 Gaussian 16, Revision A.03,

 -----------------------------------------------------------
 # opt freq B3LYP/6-31G(d) empiricaldispersion=gd3bj scf=xqc
 -----------------------------------------------------------

 ------------------------------
 CID_83619422_JID_4566_neutraal
 ------------------------------
 Symbolic Z-matrix:
 Charge =  0 Multiplicity = 1

 SCF Done:  E(RB3LYP) =  -665.453335977     A.U. after   15 cycles
 SCF Done:  E(RB3LYP) =  -665.456010493     A.U. after   13 cycles
 SCF Done:  E(RB3LYP) =  -665.451797150     A.U. after   13 cycles
 SCF Done:  E(RB3LYP) =  -665.460667291     A.U. after   12 cycles
 SCF Done:  E(RB3LYP) =  -665.462576556     A.U. after   13 cycles
 SCF Done:  E(RB3LYP) =  -665.465415680     A.U. after   14 cycles
 SCF Done:  E(RB3LYP) =  -665.468184858     A.U. after   12 cycles
 SCF Done:  E(RB3LYP) =  -665.469949427     A.U. after   13 cycles
 SCF Done:  E(RB3LYP) =  -665.471055444     A.U. after   12 cycles
 SCF Done:  E(RB3LYP) =  -665.472078644     A.U. after   13 cycles
 SCF Done:  E(RB3LYP) =  -665.474886617     A.U. after   10 cycles
 SCF Done:  E(RB3LYP) =  -665.474891161     A.U. after    9 cycles
 SCF Done:  E(RB3LYP) =  -665.474893291     A.U. after    9 cycles
 SCF Done:  E(RB3LYP) =  -665.474894305     A.U. after    8 cycles
 SCF Done:  E(RB3LYP) =  -665.474894683     A.U. after    8 cycles
 SCF Done:  E(RB3LYP) =  -665.474894780     A.U. after    7 cycles
 Optimization completed.
    -- Stationary point found.
 Normal termination of Gaussian 16 at Thu Dec 10 10:17:36 2020.

 --------------------------------------------------------------------
 #N Geom=AllCheck Guess=TCheck SCRF=Check GenChk RB3LYP/6-31G(d) Freq
 --------------------------------------------------------------------

 Structure from the checkpoint file:  "JID_4566.chk"
 ------------------------------
 CID_83619422_JID_4566_neutraal
 ------------------------------
 Charge =  0 Multiplicity = 1

 SCF Done:  E(RB3LYP) =  -665.474894780     A.U. after    1 cycles

  Exact polarizability: 128.742   0.139 113.499  10.367   1.978  92.721
 Approx polarizability: 184.810  -1.732 181.488  24.866   1.500 141.397

                      1                      2                      3
                      A                      A                      A
 Frequencies --     49.6529                62.7279                78.2757
 Red. masses --      5.9204                 4.4373                 3.5029
 Frc consts  --      0.0086                 0.0103                 0.0126
 IR Inten    --      0.7292                 0.9081                 2.3162

                      4                      5                      6
                      A                      A                      A
 Frequencies --    113.2710               119.5442               154.8103
 Red. masses --      3.0076                 4.4251                 3.1536
 Frc consts  --      0.0227                 0.0373                 0.0445
 IR Inten    --      0.5515                 2.3167                 0.5676

                      7                      8                      9
                      A                      A                      A
 Frequencies --    213.8977               255.2450               266.8207
 Red. masses --      3.7797                 1.2968                 2.1185
 Frc consts  --      0.1019                 0.0498                 0.0889
 IR Inten    --      4.8628                 1.7170                 7.3390

                     10                     11                     12
                      A                      A                      A
 Frequencies --    296.3542               334.6258               338.5876
 Red. masses --      3.3280                 3.7199                 3.9653
 Frc consts  --      0.1722                 0.2454                 0.2678
 IR Inten    --      2.7796                 0.3500                10.1524

                     13                     14                     15
                      A                      A                      A
 Frequencies --    369.2245               498.1073               522.1362
 Red. masses --      3.4653                 3.8363                 3.7904
 Frc consts  --      0.2783                 0.5608                 0.6088
 IR Inten    --      0.4952                 1.4150                 4.3602

                     16                     17                     18
                      A                      A                      A
 Frequencies --    565.1452               585.2806               612.2235
 Red. masses --      2.7653                 2.2714                 4.1503
 Frc consts  --      0.5204                 0.4584                 0.9165
 IR Inten    --     30.5569                30.7377                 9.0468

                     19                     20                     21
                      A                      A                      A
 Frequencies --    635.8045               670.8504               698.5765
 Red. masses --      2.4054                 3.9689                 4.2496
 Frc consts  --      0.5729                 1.0524                 1.2219
 IR Inten    --     35.6885                 3.4601                 3.0444

                     22                     23                     24
                      A                      A                      A
 Frequencies --    760.0852               780.9544               825.7262
 Red. masses --      2.2750                 4.0089                 1.9938
 Frc consts  --      0.7744                 1.4405                 0.8010
 IR Inten    --     13.8009                42.7595                75.4100

                     25                     26                     27
                      A                      A                      A
 Frequencies --    859.9104               867.1626               888.6258
 Red. masses --      2.8991                 1.6287                 5.1648
 Frc consts  --      1.2631                 0.7216                 2.4029
 IR Inten    --      8.1870                11.2899                25.3178

                     28                     29                     30
                      A                      A                      A
 Frequencies --    896.9461               940.8524               951.3006
 Red. masses --      1.8994                 9.0545                 2.1601
 Frc consts  --      0.9003                 4.7223                 1.1517
 IR Inten    --      1.6504                 0.3862                 0.8645

                     31                     32                     33
                      A                      A                      A
 Frequencies --    967.2767              1033.8425              1054.8940
 Red. masses --      1.7406                 1.5637                 1.5556
 Frc consts  --      0.9595                 0.9847                 1.0199
 IR Inten    --      4.0207                 0.6336                 2.2229

                     34                     35                     36
                      A                      A                      A
 Frequencies --   1077.5319              1096.3592              1101.4216
 Red. masses --      2.9782                 1.7754                 1.6043
 Frc consts  --      2.0373                 1.2573                 1.1466
 IR Inten    --     36.0796                 2.9147                 6.3351

                     37                     38                     39
                      A                      A                      A
 Frequencies --   1127.5082              1149.3096              1172.0854
 Red. masses --      2.7026                 3.3825                 2.1219
 Frc consts  --      2.0243                 2.6325                 1.7175
 IR Inten    --     18.8116                12.1264                46.7284

                     40                     41                     42
                      A                      A                      A
 Frequencies --   1199.1357              1217.1649              1234.3281
 Red. masses --      2.9415                 1.2362                 1.4520
 Frc consts  --      2.4921                 1.0790                 1.3034
 IR Inten    --     21.1172                 3.2392                 6.7420

                     43                     44                     45
                      A                      A                      A
 Frequencies --   1252.2810              1284.1922              1308.5556
 Red. masses --      1.2762                 2.7340                 1.2584
 Frc consts  --      1.1792                 2.6565                 1.2696
 IR Inten    --      3.4472                55.3423                20.3322

                     46                     47                     48
                      A                      A                      A
 Frequencies --   1327.4696              1353.5829              1384.7021
 Red. masses --      1.4130                 1.3173                 1.8765
 Frc consts  --      1.4671                 1.4220                 2.1199
 IR Inten    --      2.9183                26.3322               136.0147

                     49                     50                     51
                      A                      A                      A
 Frequencies --   1412.6011              1422.6366              1450.0250
 Red. masses --      1.5647                 3.3863                 1.5476
 Frc consts  --      1.8396                 4.0380                 1.9172
 IR Inten    --     19.6047                30.7588                21.1139

                     52                     53                     54
                      A                      A                      A
 Frequencies --   1458.7590              1460.3554              1502.8364
 Red. masses --      1.4038                 1.4754                 1.8525
 Frc consts  --      1.7601                 1.8538                 2.4651
 IR Inten    --      7.8661                17.7870                 3.3400

                     55                     56                     57
                      A                      A                      A
 Frequencies --   1506.2451              1520.1805              1529.6512
 Red. masses --      1.4772                 1.3936                 1.1103
 Frc consts  --      1.9746                 1.8975                 1.5307
 IR Inten    --     14.6571                 9.1674                 4.3819

                     58                     59                     60
                      A                      A                      A
 Frequencies --   1540.9983              1552.1816              1565.7148
 Red. masses --      1.3032                 1.1648                 1.1307
 Frc consts  --      1.8234                 1.6534                 1.6332
 IR Inten    --     26.9816                18.5457                12.4091

                     61                     62                     63
                      A                      A                      A
 Frequencies --   1641.4697              1749.7867              2950.5170
 Red. masses --      5.7964                 6.7528                 1.0739
 Frc consts  --      9.2018                12.1816                 5.5083
 IR Inten    --     99.9582               334.9415               103.9857

                     64                     65                     66
                      A                      A                      A
 Frequencies --   2989.9613              3041.0435              3054.8169
 Red. masses --      1.0744                 1.0431                 1.0853
 Frc consts  --      5.6593                 5.6834                 5.9670
 IR Inten    --     79.5805                26.8085                36.8021

                     67                     68                     69
                      A                      A                      A
 Frequencies --   3099.7049              3100.6981              3107.8671
 Red. masses --      1.0872                 1.0885                 1.0735
 Frc consts  --      6.1549                 6.1657                 6.1092
 IR Inten    --     33.3271                28.0745                19.9881

                     70                     71                     72
                      A                      A                      A
 Frequencies --   3114.1122              3150.5572              3181.8785
 Red. masses --      1.0963                 1.1015                 1.0964
 Frc consts  --      6.2638                 6.4416                 6.5403
 IR Inten    --     17.2450                 7.5338                 9.2932

                     73                     74                     75
                      A                      A                      A
 Frequencies --   3294.4500              3528.3537              3570.1239
 Red. masses --      1.0994                 1.0754                 1.0747
 Frc consts  --      7.0300                 7.8877                 8.0709
 IR Inten    --      0.3664                 0.5727                20.9759

 - Thermochemistry -
 -------------------
 Temperature   298.150 Kelvin.  Pressure   1.00000 Atm.
 Atom     1 has atomic number  6 and mass  12.00000

 Molecular mass:   195.10078 amu.
 Principal axes and moments of inertia in atomic units:
                           1         2         3
     Eigenvalues --  1774.069183248.829614029.90134
           X            0.99993   0.01160  -0.00361
           Y           -0.01150   0.99962   0.02508
           Z            0.00390  -0.02504   0.99968
 This molecule is an asymmetric top.
 Rotational symmetry number  1.
 Warning -- assumption of classical behavior for rotation
           may cause significant error
 Rotational temperatures (Kelvin)      0.04882     0.02666     0.02149
 Rotational constants (GHZ):           1.01729     0.55551     0.44784
 Zero-point vibrational energy     592461.9 (Joules/Mol)
                                  141.60179 (Kcal/Mol)
 Warning -- explicit consideration of  18 degrees of freedom as
           vibrations may cause significant error
 Vibrational temperatures:     71.44    90.25   112.62   162.97   172.00
          (Kelvin)            222.74   307.75   367.24   383.90   426.39
                              481.45   487.15   531.23   716.67   751.24
                              813.12   842.09   880.85   914.78   965.20
                             1005.10  1093.59  1123.62  1188.04  1237.22
                             1247.65  1278.53  1290.51  1353.68  1368.71
                             1391.70  1487.47  1517.76  1550.33  1577.42
                             1584.70  1622.23  1653.60  1686.37  1725.29
                             1751.23  1775.92  1801.75  1847.67  1882.72
                             1909.93  1947.50  1992.28  2032.42  2046.86
                             2086.26  2098.83  2101.13  2162.25  2167.15
                             2187.20  2200.83  2217.15  2233.24  2252.71
                             2361.71  2517.55  4245.14  4301.89  4375.38
                             4395.20  4459.78  4461.21  4471.53  4480.51
                             4532.95  4578.01  4739.98  5076.51  5136.61

 Zero-point correction=                           0.225657 (Hartree/Particle)
 Thermal correction to Energy=                    0.238259
 Thermal correction to Enthalpy=                  0.239203
 Thermal correction to Gibbs Free Energy=         0.186056
 Sum of electronic and zero-point Energies=           -665.249238
 Sum of electronic and thermal Energies=              -665.236636
 Sum of electronic and thermal Enthalpies=            -665.235692
 Sum of electronic and thermal Free Energies=         -665.288838

                     E (Thermal)             CV                S
                      KCal/Mol        Cal/Mol-Kelvin    Cal/Mol-Kelvin
 Total                  149.510             47.789            111.856
 Electronic               0.000              0.000              0.000
 Translational            0.889              2.981             41.710
 Rotational               0.889              2.981             31.519
 Vibrational            147.732             41.827             38.627
 Vibration     1          0.595              1.978              4.831
 Vibration     2          0.597              1.972              4.369
 Vibration     3          0.600              1.964              3.934
 Vibration     4          0.607              1.938              3.212
 Vibration     5          0.609              1.933              3.108
 Vibration     6          0.620              1.897              2.612
 Vibration     7          0.644              1.820              2.010
 Vibration     8          0.666              1.754              1.694
 Vibration     9          0.672              1.734              1.617
 Vibration    10          0.690              1.681              1.437
 Vibration    11          0.716              1.606              1.238
 Vibration    12          0.719              1.598              1.219
 Vibration    13          0.742              1.535              1.083
 Vibration    14          0.854              1.254              0.663
 Vibration    15          0.877              1.201              0.605
 Vibration    16          0.921              1.107              0.514
 Vibration    17          0.942              1.063              0.476
 Vibration    18          0.971              1.006              0.429

 Optimization completed.
    -- Stationary point found.
 Normal termination of Gaussian 16 at Thu Dec 10 10:25:57 2020.

 ----------------------------------------------------------------------
 # B3LYP/6-311++G(d,p) empiricaldispersion=gd3bj scf=xqc pop=npa geom=c
 heck
 ----------------------------------------------------------------------

 --------------------------------------
 CID_83619422_JID_4566_Energie_neutraal
 --------------------------------------
 Structure from the checkpoint file:  "JID_4566.chk"
 Charge =  0 Multiplicity = 1

 SCF Done:  E(RB3LYP) =  -665.665093955     A.U. after   16 cycles
 Normal termination of Gaussian 16 at Thu Dec 10 10:31:18 2020.

 ----------------------------------------------------------------------
 # B3LYP/6-311++G(d,p) empiricaldispersion=gd3bj scf=xqc pop=npa geom=c
 heck
 ----------------------------------------------------------------------

 ------------------------------------
 CID_83619422_JID_4566_Energie_kation
 ------------------------------------
 Structure from the checkpoint file:  "JID_4566.chk"
 Charge =  1 Multiplicity = 2

 SCF Done:  E(UB3LYP) =  -665.348734284     A.U. after   27 cycles
 Normal termination of Gaussian 16 at Thu Dec 10 10:43:27 2020.
 Gaussian 16:  ES64L-G16RevA.03 25-Dec-2016

 ----------------------------------------------------------------------
 # B3LYP/6-311++G(d,p) empiricaldispersion=gd3bj scf=xqc pop=npa geom=c
 heck
 ----------------------------------------------------------------------

 -----------------------------------
 CID_83619422_JID_4566_Energie_anion
 -----------------------------------
 Structure from the checkpoint file:  "JID_4566.chk"
 Charge = -1 Multiplicity = 2

                         Standard orientation:
 ---------------------------------------------------------------------
 Center     Atomic      Atomic             Coordinates (Angstroms)
 Number     Number       Type             X           Y           Z
 ---------------------------------------------------------------------
      1          6           0        0.326830   -1.465873   -1.619579
      2          6           0        1.299036   -0.996525   -0.585657
      3          7           0        2.210598   -1.829654   -0.133609
      4          8           0        2.982846   -1.098477    0.788725
      5          6           0        2.524189    0.154841    0.832126
      6          6           0        1.442263    0.304474    0.014712
      7          6           0        0.796921    1.619684   -0.226522
      8          8           0        1.498342    2.623571   -0.333526
      9          7           0       -0.569197    1.725999   -0.380145
     10          6           0       -1.705733    0.997875    0.198753
     11          6           0       -1.424214   -0.003053    1.338626
     12          6           0       -2.616160   -0.955563    1.227866
     13          7           0       -2.720258   -1.131518   -0.224307
     14          6           0       -2.559876    0.196611   -0.831549
     15          1           0        0.685829   -2.400469   -2.057196
     16          1           0       -0.663035   -1.641453   -1.179975
     17          1           0        0.223946   -0.718852   -2.413038
     18          1           0        3.045021    0.846330    1.478427
     19          1           0       -0.781555    2.693024   -0.599190
     20          1           0       -2.349773    1.778731    0.617619
     21          1           0       -1.349041    0.494612    2.309284
     22          1           0       -0.504905   -0.561157    1.170684
     23          1           0       -2.437838   -1.915994    1.721288
     24          1           0       -3.515876   -0.500271    1.682121
     25          1           0       -3.585908   -1.584655   -0.503309
     26          1           0       -3.518510    0.712912   -0.999993
     27          1           0       -2.045398    0.127874   -1.794535
 ---------------------------------------------------------------------

 SCF Done:  E(UB3LYP) =  -665.660206027     A.U. after   31 cycles

 The electronic state is 2-A.
 Alpha  occ. eigenvalues --  -19.10324 -18.97856 -14.25334 -14.22764 -14.19595
 Alpha  occ. eigenvalues --  -10.17002 -10.13017 -10.11871 -10.11182 -10.09096
 Alpha  occ. eigenvalues --  -10.08428 -10.08158 -10.07148 -10.06769  -1.04054
 Alpha  occ. eigenvalues --   -0.93184  -0.82773  -0.79957  -0.77853  -0.69909
 Alpha  occ. eigenvalues --   -0.65867  -0.62768  -0.62100  -0.55279  -0.50291
 Alpha  occ. eigenvalues --   -0.49498  -0.48046  -0.46156  -0.42169  -0.41400
 Alpha  occ. eigenvalues --   -0.40182  -0.37667  -0.37111  -0.34462  -0.33030
 Alpha  occ. eigenvalues --   -0.32400  -0.31500  -0.30936  -0.30345  -0.29112
 Alpha  occ. eigenvalues --   -0.28624  -0.27991  -0.26974  -0.25985  -0.25585
 Alpha  occ. eigenvalues --   -0.23426  -0.21351  -0.18949  -0.17143  -0.15504
 Alpha  occ. eigenvalues --   -0.14276  -0.12681   0.04311
 Alpha virt. eigenvalues --    0.06090   0.07756   0.08262   0.08624   0.09404
 Alpha virt. eigenvalues --    0.09735   0.10656   0.10816   0.11250   0.11673
 Alpha virt. eigenvalues --    0.13190   0.13234   0.13962   0.14967   0.15289

  Beta  occ. eigenvalues --  -19.10198 -18.97771 -14.25301 -14.22761 -14.19575
  Beta  occ. eigenvalues --  -10.16919 -10.12818 -10.11875 -10.11155 -10.09068
  Beta  occ. eigenvalues --  -10.08389 -10.08173 -10.07145 -10.06760  -1.03856
  Beta  occ. eigenvalues --   -0.93030  -0.82722  -0.79899  -0.77774  -0.69721
  Beta  occ. eigenvalues --   -0.65816  -0.62730  -0.62036  -0.55069  -0.50200
  Beta  occ. eigenvalues --   -0.49411  -0.47879  -0.46062  -0.42093  -0.41314
  Beta  occ. eigenvalues --   -0.40090  -0.37374  -0.36858  -0.34378  -0.32922
  Beta  occ. eigenvalues --   -0.32224  -0.31381  -0.30817  -0.30270  -0.29064
  Beta  occ. eigenvalues --   -0.28521  -0.27943  -0.26876  -0.25931  -0.25421
  Beta  occ. eigenvalues --   -0.23352  -0.21280  -0.18666  -0.16782  -0.15267
  Beta  occ. eigenvalues --   -0.14038  -0.12619
  Beta virt. eigenvalues --    0.07228   0.07568   0.08483   0.08765   0.08940
  Beta virt. eigenvalues --    0.09750   0.10132   0.11026   0.11155   0.11726
  Beta virt. eigenvalues --    0.12177   0.13252   0.13755   0.14153   0.15109

 Mulliken charges and spin densities:
               1          2
     1  C   -0.407144  -0.263138
     2  C    0.598249   0.040920
     3  N   -0.257489   0.018497
     4  O    0.128727   0.016530
     5  C   -0.149760   0.128650
     6  C    0.354874  -0.279863
     7  C   -0.916973   0.370113
     8  O   -0.354527   0.031552
     9  N   -0.325660   0.169817
    10  C    0.066201  -0.312611
    11  C   -0.143587  -0.139015
    12  C    0.709749  -1.162114
    13  N   -0.428080   0.229871
    14  C    0.812900  -1.156513
    15  H    0.176922  -0.010341
    16  H    0.265725  -0.033142
    17  H    0.086322   0.074247
    18  H    0.195642  -0.007772
    19  H    0.001457   0.324402
    20  H   -0.409291   0.602859
    21  H   -0.027560   0.206905
    22  H    0.329546  -0.089973
    23  H    0.076005   0.084938
    24  H   -0.522301   0.678506
    25  H   -0.079174   0.349119
    26  H   -0.972572   1.159823
    27  H    0.191800  -0.032265
 Sum of Mulliken charges =  -1.00000   1.00000

 Dipole moment (field-independent basis, Debye):
    X=              5.7052    Y=             -2.8540    Z=              0.1568  Tot=              6.3812
 Quadrupole moment (field-independent basis, Debye-Ang):
   XX=           -159.9130   YY=           -125.7343   ZZ=           -102.7252
   XY=              9.3466   XZ=              4.3050   YZ=              2.6893

 Summary of Natural Population Analysis:

                                       Natural Population
                Natural  -----------------------------------------------
    Atom  No    Charge         Core      Valence    Rydberg      Total
 -----------------------------------------------------------------------
      C    1   -0.31203      0.99961     2.30707    0.00535     3.31203
      C    2    0.09174      0.99958     1.89394    0.01474     2.90826
      N    3   -0.09075      0.99966     2.57862    0.01247     3.59075
      O    4   -0.15331      0.99987     3.14513    0.00831     4.15331
      C    5    0.14677      0.99950     1.84078    0.01295     2.85323
      C    6   -0.14074      0.99941     2.12795    0.01339     3.14074
      C    7    0.34389      0.99963     1.63386    0.02262     2.65611
      O    8   -0.31667      0.99988     3.31156    0.00523     4.31667
      N    9   -0.31811      0.99966     2.80815    0.01030     3.81811
      C   10   -0.01633      0.99957     2.00165    0.01511     3.01633
      C   11   -0.19917      0.99960     2.19060    0.00896     3.19917
      C   12   -0.08427      0.99963     2.07378    0.01086     3.08427
      N   13   -0.34987      0.99975     2.83718    0.01294     3.84987
      C   14   -0.08921      0.99961     2.07755    0.01205     3.08921
      H   15    0.10687      0.00000     0.39184    0.00128     0.39313
      H   16    0.12703      0.00000     0.37103    0.00194     0.37297
      H   17    0.10598      0.00000     0.39292    0.00110     0.39402
      H   18    0.09817      0.00000     0.40088    0.00095     0.40183
      H   19    0.19477      0.00000     0.30296    0.00226     0.30523
      H   20    0.10377      0.00000     0.39153    0.00470     0.39623
      H   21    0.10315      0.00000     0.39600    0.00085     0.39685
      H   22    0.10567      0.00000     0.39220    0.00213     0.39433
      H   23    0.09245      0.00000     0.40655    0.00100     0.40755
      H   24    0.08405      0.00000     0.41344    0.00251     0.41595
      H   25    0.18119      0.00000     0.31641    0.00239     0.31881
      H   26    0.09263      0.00000     0.40150    0.00587     0.40737
      H   27    0.09232      0.00000     0.40605    0.00163     0.40768
 =======================================================================
   * Total *    0.00000     13.99496    37.81115    0.19389    52.00000

 Normal termination of Gaussian 16 at Thu Dec 10 10:57:00 2020.
