 Gaussian 16, Revision A.03,

 -----------------------------------------------------------
 # opt freq B3LYP/6-31G(d) empiricaldispersion=gd3bj scf=xqc
 -----------------------------------------------------------

 -----------------------------
 CID_13451729_JID_391_neutraal
 -----------------------------
 Symbolic Z-matrix:
 Charge =  0 Multiplicity = 1

 SCF Done:  E(RB3LYP) =  -827.320766699     A.U. after   16 cycles
 SCF Done:  E(RB3LYP) =  -827.322678489     A.U. after   16 cycles
 SCF Done:  E(RB3LYP) =  -827.324789743     A.U. after   14 cycles
 SCF Done:  E(RB3LYP) =  -827.325374038     A.U. after   13 cycles
 SCF Done:  E(RB3LYP) =  -827.325389605     A.U. after   14 cycles
 SCF Done:  E(RB3LYP) =  -827.325821437     A.U. after   13 cycles
 SCF Done:  E(RB3LYP) =  -827.325908427     A.U. after   12 cycles
 SCF Done:  E(RB3LYP) =  -827.325930173     A.U. after   12 cycles
 SCF Done:  E(RB3LYP) =  -827.325947428     A.U. after   11 cycles
 SCF Done:  E(RB3LYP) =  -827.325955736     A.U. after   10 cycles
 SCF Done:  E(RB3LYP) =  -827.325968399     A.U. after   12 cycles
 SCF Done:  E(RB3LYP) =  -827.325972763     A.U. after   12 cycles
 SCF Done:  E(RB3LYP) =  -827.325975837     A.U. after   11 cycles
 SCF Done:  E(RB3LYP) =  -827.325978142     A.U. after   10 cycles
 SCF Done:  E(RB3LYP) =  -827.325978488     A.U. after    9 cycles
 Optimization completed.
    -- Stationary point found.
 Normal termination of Gaussian 16 at Tue Dec  8 10:31:27 2020.

 --------------------------------------------------------------------
 #N Geom=AllCheck Guess=TCheck SCRF=Check GenChk RB3LYP/6-31G(d) Freq
 --------------------------------------------------------------------

 Structure from the checkpoint file:  "JID_391.chk"
 -----------------------------
 CID_13451729_JID_391_neutraal
 -----------------------------
 Charge =  0 Multiplicity = 1

 SCF Done:  E(RB3LYP) =  -827.325978488     A.U. after    1 cycles

  Exact polarizability:  96.666 -10.651  84.343  -6.201  -7.479  68.736
 Approx polarizability: 153.764 -22.209 169.507 -14.248 -35.680 129.766

                      1                      2                      3
                      A                      A                      A
 Frequencies --     20.4160                72.3973               112.7590
 Red. masses --     11.1634                 3.3553                 1.5412
 Frc consts  --      0.0027                 0.0104                 0.0115
 IR Inten    --      0.2346                 1.6054                 0.8948

                      4                      5                      6
                      A                      A                      A
 Frequencies --    123.8881               191.5832               248.3227
 Red. masses --      3.4697                 7.1628                 3.6543
 Frc consts  --      0.0314                 0.1549                 0.1328
 IR Inten    --      1.9354                 1.1245                 1.3169

                      7                      8                      9
                      A                      A                      A
 Frequencies --    279.2806               373.7627               402.7059
 Red. masses --      2.4480                 5.2111                 4.1003
 Frc consts  --      0.1125                 0.4289                 0.3918
 IR Inten    --      2.5809                 5.1122                 3.3959

                     10                     11                     12
                      A                      A                      A
 Frequencies --    537.4562               569.3800               595.7523
 Red. masses --      9.3666                13.4764                 5.8772
 Frc consts  --      1.5941                 2.5741                 1.2290
 IR Inten    --     12.1834                12.3109                 0.9959

                     13                     14                     15
                      A                      A                      A
 Frequencies --    608.9967               671.2930               750.3046
 Red. masses --      6.8409                 6.7326                 6.1361
 Frc consts  --      1.4948                 1.7875                 2.0353
 IR Inten    --      7.1855                 7.8875                 0.6677

                     16                     17                     18
                      A                      A                      A
 Frequencies --    789.5881               805.3654               841.4869
 Red. masses --      8.3489                 9.9699                 6.6696
 Frc consts  --      3.0668                 3.8100                 2.7825
 IR Inten    --     23.8596                37.7791                 8.0441

                     19                     20                     21
                      A                      A                      A
 Frequencies --    908.4164               983.8469              1041.5818
 Red. masses --      6.6795                 1.8667                 1.7352
 Frc consts  --      3.2476                 1.0646                 1.1091
 IR Inten    --     27.7161                 2.0111                 4.9374

                     22                     23                     24
                      A                      A                      A
 Frequencies --   1074.9026              1187.3937              1256.9027
 Red. masses --      1.5114                 3.6555                 1.3388
 Frc consts  --      1.0289                 3.0366                 1.2461
 IR Inten    --      2.1692                10.0212                 3.4256

                     25                     26                     27
                      A                      A                      A
 Frequencies --   1317.6715              1386.8132              1396.6355
 Red. masses --      3.7979                 3.6829                 1.5994
 Frc consts  --      3.8852                 4.1732                 1.8381
 IR Inten    --    126.2322                 5.2372                 6.8819

                     28                     29                     30
                      A                      A                      A
 Frequencies --   1433.3112              1451.0913              1504.3575
 Red. masses --      1.7028                 3.1953                 1.1402
 Frc consts  --      2.0611                 3.9642                 1.5203
 IR Inten    --      0.4708                 8.6003                10.2587

                     31                     32                     33
                      A                      A                      A
 Frequencies --   1515.7918              1518.5612              1572.8718
 Red. masses --      1.1164                 1.0668                 4.9131
 Frc consts  --      1.5113                 1.4494                 7.1613
 IR Inten    --      1.6252                16.2377                 3.3777

                     34                     35                     36
                      A                      A                      A
 Frequencies --   2255.7078              3054.6047              3060.8046
 Red. masses --     13.6507                 1.0681                 1.0418
 Frc consts  --     40.9232                 5.8718                 5.7506
 IR Inten    --    382.4669                20.3697                19.5624

                     37                     38                     39
                      A                      A                      A
 Frequencies --   3118.3612              3165.8763              3169.4035
 Red. masses --      1.1000                 1.1003                 1.0949
 Frc consts  --      6.3024                 6.4974                 6.4803
 IR Inten    --      7.7213                 4.2843                 2.6334

 - Thermochemistry -
 -------------------
 Temperature   298.150 Kelvin.  Pressure   1.00000 Atm.
 Atom     1 has atomic number  6 and mass  12.00000

 Molecular mass:   155.02657 amu.
 Principal axes and moments of inertia in atomic units:
                           1         2         3
     Eigenvalues --   894.259742115.356522443.76968
           X            0.99993  -0.00076  -0.01198
           Y            0.00106   0.99970   0.02466
           Z            0.01196  -0.02467   0.99962
 This molecule is an asymmetric top.
 Rotational symmetry number  1.
 Warning -- assumption of classical behavior for rotation
           may cause significant error
 Rotational temperatures (Kelvin)      0.09686     0.04095     0.03544
 Rotational constants (GHZ):           2.01814     0.85316     0.73851
 Zero-point vibrational energy     271370.7 (Joules/Mol)
                                   64.85917 (Kcal/Mol)
 Warning -- explicit consideration of  13 degrees of freedom as
           vibrations may cause significant error
 Vibrational temperatures:     29.37   104.16   162.24   178.25   275.65
          (Kelvin)            357.28   401.82   537.76   579.40   773.28
                              819.21   857.15   876.21   965.84  1079.52
                             1136.04  1158.74  1210.71  1307.01  1415.54
                             1498.60  1546.55  1708.39  1808.40  1895.84
                             1995.31  2009.45  2062.22  2087.80  2164.43
                             2180.89  2184.87  2263.01  3245.46  4394.89
                             4403.82  4486.63  4554.99  4560.06

 Zero-point correction=                           0.103360 (Hartree/Particle)
 Thermal correction to Energy=                    0.112807
 Thermal correction to Enthalpy=                  0.113751
 Thermal correction to Gibbs Free Energy=         0.066646
 Sum of electronic and zero-point Energies=           -827.222619
 Sum of electronic and thermal Energies=              -827.213172
 Sum of electronic and thermal Enthalpies=            -827.212228
 Sum of electronic and thermal Free Energies=         -827.259333

                     E (Thermal)             CV                S
                      KCal/Mol        Cal/Mol-Kelvin    Cal/Mol-Kelvin
 Total                   70.787             32.658             99.141
 Electronic               0.000              0.000              0.000
 Translational            0.889              2.981             41.025
 Rotational               0.889              2.981             29.915
 Vibrational             69.010             26.696             28.201
 Vibration     1          0.593              1.986              6.593
 Vibration     2          0.598              1.967              4.087
 Vibration     3          0.607              1.939              3.221
 Vibration     4          0.610              1.929              3.039
 Vibration     5          0.634              1.852              2.212
 Vibration     6          0.662              1.766              1.742
 Vibration     7          0.680              1.712              1.538
 Vibration     8          0.745              1.526              1.064
 Vibration     9          0.768              1.464              0.953
 Vibration    10          0.892              1.167              0.571
 Vibration    11          0.925              1.097              0.505
 Vibration    12          0.954              1.041              0.457
 Vibration    13          0.968              1.013              0.434

                           ! Non-Optimized Parameters !
 Normal termination of Gaussian 16 at Tue Dec  8 10:34:52 2020.

 ----------------------------------------------------------------------
 # B3LYP/6-311++G(d,p) empiricaldispersion=gd3bj scf=xqc pop=npa geom=c
 heck
 ----------------------------------------------------------------------

 -------------------------------------
 CID_13451729_JID_391_Energie_neutraal
 -------------------------------------
 Structure from the checkpoint file:  "JID_391.chk"
 Charge =  0 Multiplicity = 1

 SCF Done:  E(RB3LYP) =  -827.467275014     A.U. after   16 cycles
 Normal termination of Gaussian 16 at Tue Dec  8 10:38:17 2020.

 ----------------------------------------------------------------------
 # B3LYP/6-311++G(d,p) empiricaldispersion=gd3bj scf=xqc pop=npa geom=c
 heck
 ----------------------------------------------------------------------

 -----------------------------------
 CID_13451729_JID_391_Energie_kation
 -----------------------------------
 Structure from the checkpoint file:  "JID_391.chk"
 Charge =  1 Multiplicity = 2

 SCF Done:  E(UB3LYP) =  -827.120132760     A.U. after   22 cycles
 Normal termination of Gaussian 16 at Tue Dec  8 10:44:25 2020.
 Gaussian 16:  ES64L-G16RevA.03 25-Dec-2016

 ----------------------------------------------------------------------
 # B3LYP/6-311++G(d,p) empiricaldispersion=gd3bj scf=xqc pop=npa geom=c
 heck
 ----------------------------------------------------------------------

 ----------------------------------
 CID_13451729_JID_391_Energie_anion
 ----------------------------------
 Structure from the checkpoint file:  "JID_391.chk"
 Charge = -1 Multiplicity = 2

                         Standard orientation:
 ---------------------------------------------------------------------
 Center     Atomic      Atomic             Coordinates (Angstroms)
 Number     Number       Type             X           Y           Z
 ---------------------------------------------------------------------
      1          6           0       -0.188741    2.148967    0.684641
      2          6           0        0.597121    0.925937    0.311322
      3          7           0        1.774367    1.033160   -0.276260
      4         16           0        2.354455   -0.507214   -0.527114
      5          7           0        1.077890   -1.339669    0.134418
      6          6           0        0.200590   -0.444255    0.546705
      7          6           0       -1.096372   -0.890499    1.167184
      8          7           0       -2.180637   -1.137113    0.180026
      9          7           0       -2.411742   -0.214528   -0.607006
     10          7           0       -2.715761    0.556023   -1.394320
     11          1           0       -0.480777    2.124240    1.740956
     12          1           0       -1.104009    2.231588    0.088774
     13          1           0        0.416867    3.039979    0.510197
     14          1           0       -0.950776   -1.847720    1.666239
     15          1           0       -1.436987   -0.158686    1.910534
 ---------------------------------------------------------------------

 SCF Done:  E(UB3LYP) =  -827.475252298     A.U. after   30 cycles

 The electronic state is 2-A.
 Alpha  occ. eigenvalues --  -88.73080 -14.32376 -14.22665 -14.21334 -14.15015
 Alpha  occ. eigenvalues --  -14.13973 -10.07759 -10.05458 -10.04075 -10.03833
 Alpha  occ. eigenvalues --   -7.81444  -5.77907  -5.77359  -5.76966  -0.99134
 Alpha  occ. eigenvalues --   -0.83596  -0.82684  -0.71021  -0.64329  -0.59517
 Alpha  occ. eigenvalues --   -0.54034  -0.44386  -0.41038  -0.38418  -0.37094
 Alpha  occ. eigenvalues --   -0.36146  -0.31841  -0.31090  -0.29746  -0.27902
 Alpha  occ. eigenvalues --   -0.27476  -0.25982  -0.24693  -0.20363  -0.17566
 Alpha  occ. eigenvalues --   -0.14779  -0.14462  -0.11853  -0.11213  -0.09678
 Alpha  occ. eigenvalues --    0.05859
 Alpha virt. eigenvalues --    0.08847   0.09699   0.11408   0.12911   0.13011
 Alpha virt. eigenvalues --    0.14041   0.14430   0.14704   0.15348   0.16294
 Alpha virt. eigenvalues --    0.16559   0.17285   0.19016   0.19364   0.20197

  Beta  occ. eigenvalues --  -88.73002 -14.32135 -14.22415 -14.21346 -14.14544
  Beta  occ. eigenvalues --  -14.13194 -10.07682 -10.05488 -10.04068 -10.03721
  Beta  occ. eigenvalues --   -7.81375  -5.77877  -5.77332  -5.76697  -0.98702
  Beta  occ. eigenvalues --   -0.83265  -0.82088  -0.70012  -0.64009  -0.59221
  Beta  occ. eigenvalues --   -0.53737  -0.43678  -0.40678  -0.38001  -0.36442
  Beta  occ. eigenvalues --   -0.35777  -0.31610  -0.30574  -0.29475  -0.27622
  Beta  occ. eigenvalues --   -0.27029  -0.25748  -0.23266  -0.19785  -0.16983
  Beta  occ. eigenvalues --   -0.14261  -0.11808  -0.11060  -0.10640  -0.08447
  Beta virt. eigenvalues --    0.09371   0.10321   0.11975   0.12721   0.12960
  Beta virt. eigenvalues --    0.13237   0.14085   0.14569   0.14720   0.15457
  Beta virt. eigenvalues --    0.16442   0.16664   0.17518   0.19017   0.19969

 Mulliken charges and spin densities:
               1          2
     1  C   -0.786409  -0.032564
     2  C   -0.128639   0.075250
     3  N   -0.184022   0.176300
     4  S    0.206411   0.205407
     5  N   -0.216151   0.317680
     6  C    0.049430   0.098841
     7  C   -0.461442  -0.055056
     8  N   -0.025035   0.006551
     9  N    0.301265   0.092301
    10  N   -0.464617   0.108157
    11  H    0.118827  -0.003361
    12  H    0.141976   0.000168
    13  H    0.131253   0.004105
    14  H    0.180278   0.009458
    15  H    0.136875  -0.003237
 Sum of Mulliken charges =  -1.00000   1.00000

 Dipole moment (field-independent basis, Debye):
    X=             -1.6200    Y=              1.2602    Z=              2.5565  Tot=              3.2785
 Quadrupole moment (field-independent basis, Debye-Ang):
   XX=            -95.2832   YY=            -80.7914   ZZ=            -74.1685
   XY=             -1.0659   XZ=             -4.3791   YZ=              2.7061

 Summary of Natural Population Analysis:

                                       Natural Population
                Natural  -----------------------------------------------
    Atom  No    Charge         Core      Valence    Rydberg      Total
 -----------------------------------------------------------------------
      C    1   -0.29834      0.99963     2.29385    0.00486     3.29834
      C    2    0.05706      0.99954     1.92514    0.01825     2.94294
      N    3   -0.26689      0.99969     2.75271    0.01448     3.76689
      S    4    0.36792      4.99953     2.59585    0.03670     7.63208
      N    5   -0.20324      0.99969     2.68912    0.01443     3.70324
      C    6    0.05174      0.99952     1.93007    0.01867     2.94826
      C    7   -0.09443      0.99955     2.08272    0.01216     3.09443
      N    8   -0.19825      0.99972     2.68370    0.01483     3.69825
      N    9    0.13585      0.99970     2.34808    0.01637     3.36415
      N   10   -0.04305      0.99982     2.53022    0.01300     3.54305
      H   11    0.09444      0.00000     0.40447    0.00108     0.40556
      H   12    0.10433      0.00000     0.39438    0.00130     0.39567
      H   13    0.10448      0.00000     0.39452    0.00100     0.39552
      H   14    0.10179      0.00000     0.39618    0.00203     0.39821
      H   15    0.08658      0.00000     0.41227    0.00114     0.41342
 =======================================================================
   * Total *    0.00000     13.99640    25.83329    0.17032    40.00000

 Normal termination of Gaussian 16 at Tue Dec  8 10:47:47 2020.
