 Gaussian 16, Revision A.03,

 -----------------------------------------------------------
 # opt freq B3LYP/6-31G(d) empiricaldispersion=gd3bj scf=xqc
 -----------------------------------------------------------

 -------------------------------
 CID_138453904_JID_5795_neutraal
 -------------------------------
 Symbolic Z-matrix:
 Charge =  0 Multiplicity = 1

 SCF Done:  E(RB3LYP) =  -942.495856098     A.U. after   14 cycles
 SCF Done:  E(RB3LYP) =  -942.517439609     A.U. after   12 cycles
 SCF Done:  E(RB3LYP) =  -942.520128085     A.U. after   12 cycles
 SCF Done:  E(RB3LYP) =  -942.520260803     A.U. after   12 cycles
 SCF Done:  E(RB3LYP) =  -942.520374975     A.U. after   12 cycles
 SCF Done:  E(RB3LYP) =  -942.520475598     A.U. after   11 cycles
 SCF Done:  E(RB3LYP) =  -942.520483827     A.U. after   10 cycles
 SCF Done:  E(RB3LYP) =  -942.520486185     A.U. after    9 cycles
 SCF Done:  E(RB3LYP) =  -942.520489133     A.U. after    9 cycles
 SCF Done:  E(RB3LYP) =  -942.520491709     A.U. after   10 cycles
 SCF Done:  E(RB3LYP) =  -942.522351076     A.U. after   10 cycles
 SCF Done:  E(RB3LYP) =  -942.522351851     A.U. after    7 cycles
 SCF Done:  E(RB3LYP) =  -942.522352389     A.U. after    9 cycles
 SCF Done:  E(RB3LYP) =  -942.522352589     A.U. after    7 cycles
 SCF Done:  E(RB3LYP) =  -942.522352696     A.U. after    7 cycles
 Optimization completed.
    -- Stationary point found.
 Normal termination of Gaussian 16 at Thu Dec 10 17:36:58 2020.

 --------------------------------------------------------------------
 #N Geom=AllCheck Guess=TCheck SCRF=Check GenChk RB3LYP/6-31G(d) Freq
 --------------------------------------------------------------------

 Structure from the checkpoint file:  "JID_5795.chk"
 -------------------------------
 CID_138453904_JID_5795_neutraal
 -------------------------------
 Charge =  0 Multiplicity = 1

 SCF Done:  E(RB3LYP) =  -942.522352696     A.U. after    1 cycles

  Exact polarizability: 201.772  -0.019 158.260  16.648  -0.006 119.031
 Approx polarizability: 276.643  -0.036 255.390  35.299  -0.012 191.355

                      1                      2                      3
                      A                      A                      A
 Frequencies --     28.1635                40.3533                42.5301
 Red. masses --      1.0139                 2.8175                 4.1079
 Frc consts  --      0.0005                 0.0027                 0.0044
 IR Inten    --      0.2174                 0.0078                 0.1108

                      4                      5                      6
                      A                      A                      A
 Frequencies --     72.3707               122.7048               128.3537
 Red. masses --      4.2531                 3.0335                 1.0464
 Frc consts  --      0.0131                 0.0269                 0.0102
 IR Inten    --      0.1141                 0.0521                 0.0006

                      7                      8                      9
                      A                      A                      A
 Frequencies --    129.4022               185.1636               216.9706
 Red. masses --      1.1482                 2.6578                 3.7703
 Frc consts  --      0.0113                 0.0537                 0.1046
 IR Inten    --      0.3398                 3.1543                 0.0825

                     10                     11                     12
                      A                      A                      A
 Frequencies --    230.1101               244.0129               278.1418
 Red. masses --      2.8075                 3.5470                 2.6020
 Frc consts  --      0.0876                 0.1244                 0.1186
 IR Inten    --      0.0001                 0.5014                 0.0734

                     13                     14                     15
                      A                      A                      A
 Frequencies --    306.6592               311.6764               347.6897
 Red. masses --      3.3246                 5.0109                 3.8299
 Frc consts  --      0.1842                 0.2868                 0.2728
 IR Inten    --      0.9966                 0.7949                 3.3064

                     16                     17                     18
                      A                      A                      A
 Frequencies --    413.6664               463.7830               509.7911
 Red. masses --      7.1646                 6.6565                 3.0284
 Frc consts  --      0.7223                 0.8436                 0.4637
 IR Inten    --      0.6786                 1.1469                 0.2688

                     19                     20                     21
                      A                      A                      A
 Frequencies --    530.8639               551.5977               554.6676
 Red. masses --      3.1375                 1.9598                 2.0465
 Frc consts  --      0.5210                 0.3513                 0.3710
 IR Inten    --      0.0035                 0.0443                 0.3578

                     22                     23                     24
                      A                      A                      A
 Frequencies --    555.0628               575.0613               584.1429
 Red. masses --      4.0926                 3.3410                 3.6805
 Frc consts  --      0.7429                 0.6510                 0.7399
 IR Inten    --      0.4373                 1.8590                 1.5732

                     25                     26                     27
                      A                      A                      A
 Frequencies --    636.6076               735.7768               785.9489
 Red. masses --      5.3733                 3.9630                 3.0758
 Frc consts  --      1.2830                 1.2641                 1.1194
 IR Inten    --      0.5561                 0.5499                 0.0076

                     28                     29                     30
                      A                      A                      A
 Frequencies --    801.4590               871.8289               883.9615
 Red. masses --      2.8804                 1.2565                 2.8261
 Frc consts  --      1.0901                 0.5627                 1.3011
 IR Inten    --      0.8336                10.5960                 0.6019

                     31                     32                     33
                      A                      A                      A
 Frequencies --    895.4104               917.0054               949.3236
 Red. masses --      1.2986                 4.5614                 1.6903
 Frc consts  --      0.6134                 2.2599                 0.8975
 IR Inten    --      0.0009                25.2982                 1.6130

                     34                     35                     36
                      A                      A                      A
 Frequencies --    954.5411               958.6208               983.1108
 Red. masses --      2.7345                 1.6527                 3.4625
 Frc consts  --      1.4680                 0.8948                 1.9717
 IR Inten    --      0.3728                 0.3098                 0.0736

                     37                     38                     39
                      A                      A                      A
 Frequencies --    986.1144              1001.3326              1046.8378
 Red. masses --      1.2491                 1.0110                 1.5794
 Frc consts  --      0.7156                 0.5973                 1.0198
 IR Inten    --      0.0041                 0.0020                 6.1538

                     40                     41                     42
                      A                      A                      A
 Frequencies --   1047.6276              1065.2458              1067.8954
 Red. masses --      1.5637                 1.6232                 3.2396
 Frc consts  --      1.0112                 1.0852                 2.1767
 IR Inten    --      0.2214                 0.6483                 0.4072

                     43                     44                     45
                      A                      A                      A
 Frequencies --   1073.0984              1076.3935              1078.0663
 Red. masses --      1.5312                 1.5052                 2.1024
 Frc consts  --      1.0389                 1.0275                 1.4396
 IR Inten    --      9.8788                 0.0277                19.7708

                     46                     47                     48
                      A                      A                      A
 Frequencies --   1106.0269              1111.8399              1144.8706
 Red. masses --      1.5496                 1.5709                 1.3146
 Frc consts  --      1.1169                 1.1442                 1.0152
 IR Inten    --      0.0628                 0.6915                 0.0386

                     49                     50                     51
                      A                      A                      A
 Frequencies --   1150.3634              1163.6793              1165.3827
 Red. masses --      1.3736                 4.6666                 1.5547
 Frc consts  --      1.0710                 3.7232                 1.2441
 IR Inten    --      0.9187                42.9966                 3.0295

                     52                     53                     54
                      A                      A                      A
 Frequencies --   1174.5572              1215.7008              1238.0044
 Red. masses --      1.5854                 1.4311                 1.7428
 Frc consts  --      1.2887                 1.2462                 1.5738
 IR Inten    --      3.2872                 1.3414                 0.7290

                     55                     56                     57
                      A                      A                      A
 Frequencies --   1240.8919              1260.7844              1285.3195
 Red. masses --      1.7766                 1.6852                 1.4668
 Frc consts  --      1.6118                 1.5783                 1.4277
 IR Inten    --      3.1858                73.2049                 0.6002

                     58                     59                     60
                      A                      A                      A
 Frequencies --   1332.2802              1333.6942              1441.4231
 Red. masses --      7.1937                 5.7943                 1.2433
 Frc consts  --      7.5230                 6.0724                 1.5220
 IR Inten    --      1.8275                 2.2566                 0.1634

                     61                     62                     63
                      A                      A                      A
 Frequencies --   1444.9792              1448.3950              1459.1713
 Red. masses --      1.2346                 1.2722                 2.5410
 Frc consts  --      1.5188                 1.5725                 3.1876
 IR Inten    --      3.0471                 0.2073                 0.9872

                     64                     65                     66
                      A                      A                      A
 Frequencies --   1467.8907              1510.5600              1510.5743
 Red. masses --      2.3042                 1.0471                 1.0478
 Frc consts  --      2.9252                 1.4078                 1.4087
 IR Inten    --      0.6044                 3.9113                 6.5830

                     67                     68                     69
                      A                      A                      A
 Frequencies --   1518.3518              1519.6713              1525.6958
 Red. masses --      1.0504                 1.0527                 1.1770
 Frc consts  --      1.4268                 1.4324                 1.6142
 IR Inten    --      4.7682                 0.4351                18.6559

                     70                     71                     72
                      A                      A                      A
 Frequencies --   1528.1696              1529.2336              1534.4257
 Red. masses --      1.1000                 1.1191                 1.2687
 Frc consts  --      1.5135                 1.5420                 1.7599
 IR Inten    --      0.0352                 6.5458                16.2882

                     73                     74                     75
                      A                      A                      A
 Frequencies --   1580.3941              1624.8314              1659.6346
 Red. masses --      1.1538                 6.6210                 5.2248
 Frc consts  --      1.6979                10.2988                 8.4790
 IR Inten    --      0.1650                 7.1965                16.9732

                     76                     77                     78
                      A                      A                      A
 Frequencies --   3042.1977              3061.9900              3062.6090
 Red. masses --      1.0404                 1.0359                 1.0359
 Frc consts  --      5.6729                 5.7221                 5.7247
 IR Inten    --     36.2803                39.5329                 2.1164

                     79                     80                     81
                      A                      A                      A
 Frequencies --   3071.0374              3071.2311              3078.2904
 Red. masses --      1.0537                 1.0538                 1.0542
 Frc consts  --      5.8550                 5.8564                 5.8854
 IR Inten    --     53.3207                53.8939                 2.1061

                     82                     83                     84
                      A                      A                      A
 Frequencies --   3099.5641              3124.4373              3124.5346
 Red. masses --      1.0956                 1.1002                 1.1002
 Frc consts  --      6.2016                 6.3282                 6.3283
 IR Inten    --     20.2043                 3.8498                14.5278

                     85                     86                     87
                      A                      A                      A
 Frequencies --   3126.2657              3128.5391              3132.5911
 Red. masses --      1.1029                 1.0917                 1.1026
 Frc consts  --      6.3507                 6.2955                 6.3752
 IR Inten    --     15.1350                80.9314                14.7813

                     88                     89                     90
                      A                      A                      A
 Frequencies --   3133.3764              3135.0325              3139.5663
 Red. masses --      1.1025                 1.1136                 1.1119
 Frc consts  --      6.3773                 6.4487                 6.4572
 IR Inten    --     23.6551                 1.0311                45.0841

                     91                     92                     93
                      A                      A                      A
 Frequencies --   3140.8362              3172.2276              3174.0287
 Red. masses --      1.1114                 1.0896                 1.0901
 Frc consts  --      6.4597                 6.4601                 6.4704
 IR Inten    --     45.7006                30.8996                17.5976

 - Thermochemistry -
 -------------------
 Temperature   298.150 Kelvin.  Pressure   1.00000 Atm.
 Atom     1 has atomic number  6 and mass  12.00000

 Molecular mass:   218.11292 amu.
 Principal axes and moments of inertia in atomic units:
                           1         2         3
     Eigenvalues --  1890.952604935.780565401.81742
           X            1.00000  -0.00000   0.00285
           Y            0.00000   1.00000  -0.00002
           Z           -0.00285   0.00002   1.00000
 This molecule is an asymmetric top.
 Rotational symmetry number  1.
 Warning -- assumption of classical behavior for rotation
           may cause significant error
 Rotational temperatures (Kelvin)      0.04580     0.01755     0.01603
 Rotational constants (GHZ):           0.95441     0.36564     0.33410
 Zero-point vibrational energy     744581.5 (Joules/Mol)
                                  177.95924 (Kcal/Mol)
 Warning -- explicit consideration of  24 degrees of freedom as
           vibrations may cause significant error
 Vibrational temperatures:     40.52    58.06    61.19   104.13   176.54
          (Kelvin)            184.67   186.18   266.41   312.17   331.08
                              351.08   400.18   441.21   448.43   500.25
                              595.17   667.28   733.48   763.79   793.63
                              798.04   798.61   827.39   840.45   915.94
                             1058.62  1130.81  1153.12  1254.37  1271.82
                             1288.30  1319.37  1365.86  1373.37  1379.24
                             1414.48  1418.80  1440.69  1506.17  1507.30
                             1532.65  1536.46  1543.95  1548.69  1551.10
                             1591.33  1599.69  1647.21  1655.12  1674.28
                             1676.73  1689.93  1749.12  1781.21  1785.37
                             1813.99  1849.29  1916.85  1918.89  2073.89
                             2079.00  2083.92  2099.42  2111.97  2173.36
                             2173.38  2184.57  2186.47  2195.14  2198.70
                             2200.23  2207.70  2273.83  2337.77  2387.84
                             4377.04  4405.52  4406.41  4418.54  4418.82
                             4428.97  4459.58  4495.37  4495.51  4498.00
                             4501.27  4507.10  4508.23  4510.61  4517.14
                             4518.96  4564.13  4566.72

 Zero-point correction=                           0.283596 (Hartree/Particle)
 Thermal correction to Energy=                    0.298871
 Thermal correction to Enthalpy=                  0.299815
 Thermal correction to Gibbs Free Energy=         0.239888
 Sum of electronic and zero-point Energies=           -942.238757
 Sum of electronic and thermal Energies=              -942.223482
 Sum of electronic and thermal Enthalpies=            -942.222538
 Sum of electronic and thermal Free Energies=         -942.282465

                     E (Thermal)             CV                S
                      KCal/Mol        Cal/Mol-Kelvin    Cal/Mol-Kelvin
 Total                  187.544             57.949            126.128
 Electronic               0.000              0.000              0.000
 Translational            0.889              2.981             42.043
 Rotational               0.889              2.981             32.289
 Vibrational            185.767             51.988             51.796
 Vibration     1          0.593              1.984              5.955
 Vibration     2          0.594              1.981              5.242
 Vibration     3          0.595              1.980              5.138
 Vibration     4          0.598              1.967              4.088
 Vibration     5          0.610              1.930              3.057
 Vibration     6          0.611              1.925              2.971
 Vibration     7          0.612              1.924              2.955
 Vibration     8          0.631              1.860              2.276
 Vibration     9          0.646              1.815              1.984
 Vibration    10          0.652              1.795              1.878
 Vibration    11          0.659              1.773              1.773
 Vibration    12          0.679              1.714              1.545
 Vibration    13          0.697              1.661              1.380
 Vibration    14          0.700              1.651              1.353
 Vibration    15          0.725              1.580              1.177
 Vibration    16          0.777              1.441              0.914
 Vibration    17          0.821              1.330              0.755
 Vibration    18          0.865              1.228              0.634
 Vibration    19          0.886              1.182              0.585
 Vibration    20          0.907              1.136              0.541
 Vibration    21          0.910              1.129              0.535
 Vibration    22          0.911              1.129              0.534
 Vibration    23          0.931              1.085              0.495
 Vibration    24          0.941              1.066              0.478

                           ! Non-Optimized Parameters !
 Normal termination of Gaussian 16 at Thu Dec 10 17:48:29 2020.

 ----------------------------------------------------------------------
 # B3LYP/6-311++G(d,p) empiricaldispersion=gd3bj scf=xqc pop=npa geom=c
 heck
 ----------------------------------------------------------------------

 ---------------------------------------
 CID_138453904_JID_5795_Energie_neutraal
 ---------------------------------------
 Structure from the checkpoint file:  "JID_5795.chk"
 Charge =  0 Multiplicity = 1

 SCF Done:  E(RB3LYP) =  -942.684219288     A.U. after   15 cycles
 Normal termination of Gaussian 16 at Thu Dec 10 17:53:12 2020.

 ----------------------------------------------------------------------
 # B3LYP/6-311++G(d,p) empiricaldispersion=gd3bj scf=xqc pop=npa geom=c
 heck
 ----------------------------------------------------------------------

 -------------------------------------
 CID_138453904_JID_5795_Energie_kation
 -------------------------------------
 Structure from the checkpoint file:  "JID_5795.chk"
 Charge =  1 Multiplicity = 2

 SCF Done:  E(UB3LYP) =  -942.390174083     A.U. after   31 cycles
 Normal termination of Gaussian 16 at Thu Dec 10 18:06:40 2020.
 Gaussian 16:  ES64L-G16RevA.03 25-Dec-2016

 ----------------------------------------------------------------------
 # B3LYP/6-311++G(d,p) empiricaldispersion=gd3bj scf=xqc pop=npa geom=c
 heck
 ----------------------------------------------------------------------

 ------------------------------------
 CID_138453904_JID_5795_Energie_anion
 ------------------------------------
 Structure from the checkpoint file:  "JID_5795.chk"
 Charge = -1 Multiplicity = 2

                         Standard orientation:
 ---------------------------------------------------------------------
 Center     Atomic      Atomic             Coordinates (Angstroms)
 Number     Number       Type             X           Y           Z
 ---------------------------------------------------------------------
      1          6           0        4.421039    0.000094    1.125181
      2          6           0        3.048332    0.000207    0.498606
      3          6           0        2.403138   -1.197936    0.186030
      4          6           0        1.144083   -1.224345   -0.421184
      5          6           0        0.510289   -0.000022   -0.713459
      6          6           0        1.143794    1.224362   -0.421177
      7          6           0        2.402899    1.198155    0.186139
      8          6           0        0.508140    2.553306   -0.749389
      9         16           0       -1.121057   -0.000164   -1.474436
     10          6           0       -2.134764   -0.000054    0.024248
     11          6           0       -2.194331    1.077354    1.148212
     12          6           0       -3.247454    0.000053    1.523957
     13          6           0       -3.688591   -0.000054    0.032274
     14          6           0       -2.194360   -1.077303    1.148368
     15          6           0        0.508459   -2.553367   -0.749152
     16          1           0        4.572784   -0.881766    1.756304
     17          1           0        5.205866   -0.010187    0.357295
     18          1           0        4.580126    0.891690    1.740519
     19          1           0        2.892556   -2.141233    0.418538
     20          1           0        2.892102    2.141525    0.418742
     21          1           0        0.283346    2.633364   -1.817907
     22          1           0       -0.440383    2.689813   -0.221201
     23          1           0        1.174573    3.376100   -0.473321
     24          1           0       -1.311362    1.154876    1.789385
     25          1           0       -2.577241    2.060110    0.856390
     26          1           0       -3.899118    0.000139    2.400566
     27          1           0       -4.175035    0.906477   -0.340677
     28          1           0       -4.175051   -0.906645   -0.340524
     29          1           0       -1.311434   -1.154745    1.789610
     30          1           0       -2.577250   -2.060083    0.856610
     31          1           0        0.282211   -2.633150   -1.817363
     32          1           0        1.175486   -3.376067   -0.474231
     33          1           0       -0.439310   -2.690291   -0.219677
 ---------------------------------------------------------------------

 SCF Done:  E(UB3LYP) =  -942.668677240     A.U. after   33 cycles
 SCF Done:  E(UB3LYP) =  -942.668677240     a.u. after    1 cycles

 The electronic state is 2-A.
 Alpha  occ. eigenvalues --  -88.74567 -10.12911 -10.10450 -10.10207 -10.09623
 Alpha  occ. eigenvalues --  -10.09620 -10.09188 -10.08878 -10.08413 -10.08412
 Alpha  occ. eigenvalues --  -10.07529 -10.07528 -10.07442 -10.07383 -10.07382
 Alpha  occ. eigenvalues --   -7.83230  -5.79616  -5.79266  -5.78597  -0.83489
 Alpha  occ. eigenvalues --   -0.77774  -0.70592  -0.69390  -0.65057  -0.61133
 Alpha  occ. eigenvalues --   -0.59008  -0.58388  -0.58074  -0.57562  -0.50917
 Alpha  occ. eigenvalues --   -0.48774  -0.47192  -0.45120  -0.40171  -0.39607
 Alpha  occ. eigenvalues --   -0.36712  -0.36682  -0.35954  -0.34098  -0.33339
 Alpha  occ. eigenvalues --   -0.32267  -0.32230  -0.31574  -0.31071  -0.30425
 Alpha  occ. eigenvalues --   -0.29181  -0.27783  -0.26718  -0.26038  -0.25982
 Alpha  occ. eigenvalues --   -0.24929  -0.24883  -0.23588  -0.23554  -0.22368
 Alpha  occ. eigenvalues --   -0.20715  -0.15189  -0.14625  -0.13573   0.04204
 Alpha virt. eigenvalues --    0.05764   0.06496   0.06711   0.07297   0.07821
 Alpha virt. eigenvalues --    0.08081   0.08247   0.08846   0.09559   0.09820
 Alpha virt. eigenvalues --    0.10266   0.10485   0.10903   0.12044   0.12070

  Beta  occ. eigenvalues --  -88.74566 -10.12911 -10.10447 -10.10190 -10.09623
  Beta  occ. eigenvalues --  -10.09620 -10.09189 -10.08863 -10.08395 -10.08395
  Beta  occ. eigenvalues --  -10.07516 -10.07515 -10.07404 -10.07370 -10.07369
  Beta  occ. eigenvalues --   -7.83229  -5.79616  -5.79263  -5.78597  -0.83475
  Beta  occ. eigenvalues --   -0.77767  -0.70579  -0.69378  -0.65042  -0.61099
  Beta  occ. eigenvalues --   -0.58982  -0.58356  -0.58039  -0.57527  -0.50878
  Beta  occ. eigenvalues --   -0.48749  -0.47160  -0.45063  -0.40137  -0.39597
  Beta  occ. eigenvalues --   -0.36688  -0.36655  -0.35924  -0.34069  -0.33314
  Beta  occ. eigenvalues --   -0.32238  -0.32218  -0.31556  -0.31045  -0.30388
  Beta  occ. eigenvalues --   -0.29163  -0.27761  -0.26697  -0.26024  -0.25963
  Beta  occ. eigenvalues --   -0.24913  -0.24865  -0.23563  -0.23526  -0.22350
  Beta  occ. eigenvalues --   -0.20697  -0.15179  -0.14614  -0.13567
  Beta virt. eigenvalues --    0.06211   0.06512   0.06816   0.07286   0.07746
  Beta virt. eigenvalues --    0.07851   0.08518   0.08833   0.09252   0.09906
  Beta virt. eigenvalues --    0.10187   0.10622   0.10841   0.11173   0.12277

 Mulliken charges and spin densities:
               1          2
     1  C    2.665472  -3.211393
     2  C   -0.229870   0.595289
     3  C   -0.418129   0.028367
     4  C   -0.043034   0.432933
     5  C   -0.120049   0.323838
     6  C   -0.019384   0.416374
     7  C   -0.376660  -0.040475
     8  C   -0.286783  -0.308792
     9  S    0.712391  -1.130236
    10  C   -0.115743   0.742500
    11  C    0.885267  -1.685477
    12  C   -2.354309   2.912583
    13  C    1.259225  -1.995132
    14  C    0.885746  -1.685925
    15  C   -0.291060  -0.305810
    16  H   -0.328846   0.479474
    17  H   -0.097317   0.266362
    18  H   -0.336022   0.486902
    19  H   -0.210948   0.357524
    20  H   -0.211170   0.356758
    21  H    0.113298   0.047055
    22  H    0.125740   0.035833
    23  H   -0.269135   0.413713
    24  H    0.020948   0.127082
    25  H   -0.203047   0.337381
    26  H   -1.256611   1.475836
    27  H   -0.142004   0.281321
    28  H   -0.142294   0.281607
    29  H    0.020551   0.127422
    30  H   -0.203164   0.337530
    31  H    0.113198   0.047095
    32  H   -0.271758   0.416287
    33  H    0.125499   0.036172
 Sum of Mulliken charges =  -1.00000   1.00000

 Dipole moment (field-independent basis, Debye):
    X=             -0.1634    Y=             -0.0011    Z=             -4.4496  Tot=              4.4526
 Quadrupole moment (field-independent basis, Debye-Ang):
   XX=           -194.6422   YY=           -143.2597   ZZ=           -142.3141
   XY=             -0.0333   XZ=              3.3763   YZ=             -0.0189

 Summary of Natural Population Analysis:

                                       Natural Population
                Natural  -----------------------------------------------
    Atom  No    Charge         Core      Valence    Rydberg      Total
 -----------------------------------------------------------------------
      C    1   -0.29145      0.99964     2.28646    0.00535     3.29145
      C    2   -0.00303      0.99951     1.99386    0.00965     3.00303
      C    3   -0.10403      0.99946     2.09536    0.00920     3.10403
      C    4   -0.00696      0.99945     1.99718    0.01033     3.00696
      C    5   -0.09428      0.99929     2.08064    0.01435     3.09428
      C    6   -0.00696      0.99945     1.99719    0.01033     3.00696
      C    7   -0.10405      0.99946     2.09538    0.00920     3.10405
      C    8   -0.29441      0.99963     2.28899    0.00579     3.29441
      S    9    0.11410      4.99947     2.86950    0.01693     7.88590
      C   10   -0.10799      0.99939     2.08915    0.01945     3.10799
      C   11   -0.18039      0.99959     2.16940    0.01140     3.18039
      C   12   -0.09835      0.99958     2.08347    0.01529     3.09835
      C   13   -0.17381      0.99960     2.16476    0.00945     3.17381
      C   14   -0.18039      0.99959     2.16940    0.01140     3.18039
      C   15   -0.29441      0.99963     2.28899    0.00579     3.29441
      H   16    0.10448      0.00000     0.39404    0.00148     0.39552
      H   17    0.10531      0.00000     0.39333    0.00136     0.39469
      H   18    0.10441      0.00000     0.39411    0.00148     0.39559
      H   19    0.09873      0.00000     0.39983    0.00144     0.40127
      H   20    0.09874      0.00000     0.39982    0.00144     0.40126
      H   21    0.10773      0.00000     0.39141    0.00087     0.39227
      H   22    0.10884      0.00000     0.39011    0.00106     0.39116
      H   23    0.10006      0.00000     0.39907    0.00087     0.39994
      H   24    0.09947      0.00000     0.39901    0.00153     0.40053
      H   25    0.09542      0.00000     0.40304    0.00154     0.40458
      H   26    0.10049      0.00000     0.39639    0.00312     0.39951
      H   27    0.09562      0.00000     0.40312    0.00126     0.40438
      H   28    0.09563      0.00000     0.40311    0.00126     0.40437
      H   29    0.09946      0.00000     0.39901    0.00153     0.40054
      H   30    0.09542      0.00000     0.40304    0.00154     0.40458
      H   31    0.10773      0.00000     0.39140    0.00087     0.39227
      H   32    0.10006      0.00000     0.39907    0.00087     0.39994
      H   33    0.10883      0.00000     0.39011    0.00106     0.39117
 =======================================================================
   * Total *   -0.00000     18.99274    39.81875    0.18851    59.00000

 Normal termination of Gaussian 16 at Thu Dec 10 18:21:27 2020.
