 Gaussian 16, Revision A.03,

 -----------------------------------------------------------
 # opt freq B3LYP/6-31G(d) empiricaldispersion=gd3bj scf=xqc
 -----------------------------------------------------------

 -------------------------------
 CID_151362399_JID_1797_neutraal
 -------------------------------
 Symbolic Z-matrix:
 Charge =  0 Multiplicity = 1

 SCF Done:  E(RB3LYP) =  -1178.57054311     A.U. after   13 cycles
 SCF Done:  E(RB3LYP) =  -1178.59040787     A.U. after   13 cycles
 SCF Done:  E(RB3LYP) =  -1178.59572373     A.U. after   13 cycles
 SCF Done:  E(RB3LYP) =  -1178.59739962     A.U. after   13 cycles
 SCF Done:  E(RB3LYP) =  -1178.59850010     A.U. after   14 cycles
 SCF Done:  E(RB3LYP) =  -1178.59886378     A.U. after   12 cycles
 SCF Done:  E(RB3LYP) =  -1178.59902159     A.U. after   11 cycles
 SCF Done:  E(RB3LYP) =  -1178.59905147     A.U. after   10 cycles
 SCF Done:  E(RB3LYP) =  -1178.59906297     A.U. after   10 cycles
 SCF Done:  E(RB3LYP) =  -1178.59907800     A.U. after   10 cycles
 SCF Done:  E(RB3LYP) =  -1178.59912355     A.U. after   10 cycles
 SCF Done:  E(RB3LYP) =  -1178.59912559     A.U. after    9 cycles
 SCF Done:  E(RB3LYP) =  -1178.59912589     A.U. after    8 cycles
 SCF Done:  E(RB3LYP) =  -1178.59912603     A.U. after    7 cycles
 SCF Done:  E(RB3LYP) =  -1178.59912606     A.U. after    7 cycles
 Optimization completed.
    -- Stationary point found.
 Normal termination of Gaussian 16 at Tue Dec  8 21:21:28 2020.

 --------------------------------------------------------------------
 #N Geom=AllCheck Guess=TCheck SCRF=Check GenChk RB3LYP/6-31G(d) Freq
 --------------------------------------------------------------------

 Structure from the checkpoint file:  "JID_1797.chk"
 -------------------------------
 CID_151362399_JID_1797_neutraal
 -------------------------------
 Charge =  0 Multiplicity = 1

 SCF Done:  E(RB3LYP) =  -1178.59912606     A.U. after    1 cycles

  Exact polarizability: 160.567  -3.219 129.873  12.270   0.142  66.626
 Approx polarizability: 214.092  -7.351 217.763  22.310   1.195 107.204

                      1                      2                      3
                      A                      A                      A
 Frequencies --     25.3521                40.1813                70.6268
 Red. masses --      4.4212                 6.0102                 4.9296
 Frc consts  --      0.0017                 0.0057                 0.0145
 IR Inten    --      0.1644                 0.1438                 1.0064

                      4                      5                      6
                      A                      A                      A
 Frequencies --    106.4277               134.3885               166.5896
 Red. masses --      2.1602                 2.0923                 2.8546
 Frc consts  --      0.0144                 0.0223                 0.0467
 IR Inten    --      6.0114                 4.9900                12.5153

                      7                      8                      9
                      A                      A                      A
 Frequencies --    227.6496               250.6968               286.5779
 Red. masses --      2.7553                 1.7663                 2.7808
 Frc consts  --      0.0841                 0.0654                 0.1346
 IR Inten    --      2.7573                 9.4303                12.5630

                     10                     11                     12
                      A                      A                      A
 Frequencies --    331.8604               380.5406               407.9142
 Red. masses --      4.1493                 4.3251                 3.4124
 Frc consts  --      0.2692                 0.3690                 0.3345
 IR Inten    --      6.4673                17.4682                 1.2304

                     13                     14                     15
                      A                      A                      A
 Frequencies --    417.5981               495.2622               506.7506
 Red. masses --      2.9963                 7.3966                 3.3672
 Frc consts  --      0.3079                 1.0689                 0.5095
 IR Inten    --      0.0523                 7.4660                 8.5596

                     16                     17                     18
                      A                      A                      A
 Frequencies --    610.8991               637.4046               711.9320
 Red. masses --      5.2108                 6.3371                 2.2460
 Frc consts  --      1.1457                 1.5169                 0.6707
 IR Inten    --      5.1109                 0.1271                23.3316

                     19                     20                     21
                      A                      A                      A
 Frequencies --    737.1356               759.4725               815.3986
 Red. masses --      3.4114                 1.7735                 1.9305
 Frc consts  --      1.0921                 0.6027                 0.7562
 IR Inten    --     32.0336                37.1057                81.0962

                     22                     23                     24
                      A                      A                      A
 Frequencies --    853.4128               863.6874               928.1780
 Red. masses --      3.2049                 1.2496                 1.3526
 Frc consts  --      1.3752                 0.5492                 0.6866
 IR Inten    --      1.1719                 0.2688                 3.0570

                     25                     26                     27
                      A                      A                      A
 Frequencies --    936.8398               965.3179               971.1248
 Red. masses --      1.2711                 1.3728                 1.3468
 Frc consts  --      0.6573                 0.7537                 0.7483
 IR Inten    --     10.2822                 2.3978                 0.2361

                     28                     29                     30
                      A                      A                      A
 Frequencies --    997.8268              1008.2251              1022.9730
 Red. masses --      1.2545                 1.4552                 5.9124
 Frc consts  --      0.7359                 0.8716                 3.6454
 IR Inten    --      1.2908                 5.3339                 1.3938

                     31                     32                     33
                      A                      A                      A
 Frequencies --   1060.6516              1108.0195              1128.6214
 Red. masses --      2.1919                 2.0165                 2.8060
 Frc consts  --      1.4529                 1.4586                 2.1059
 IR Inten    --      4.0086                19.1780                17.9438

                     34                     35                     36
                      A                      A                      A
 Frequencies --   1134.0217              1194.2933              1213.6288
 Red. masses --      1.9989                 1.0998                 1.1305
 Frc consts  --      1.5146                 0.9242                 0.9810
 IR Inten    --     14.1680                 0.0739                 0.7273

                     37                     38                     39
                      A                      A                      A
 Frequencies --   1238.4006              1269.3765              1349.7238
 Red. masses --      2.6513                 1.2872                 2.0913
 Frc consts  --      2.3957                 1.2220                 2.2447
 IR Inten    --      0.2739                 7.8678                 4.8541

                     40                     41                     42
                      A                      A                      A
 Frequencies --   1367.8884              1400.2176              1503.4586
 Red. masses --      2.0856                 1.4594                 2.1192
 Frc consts  --      2.2992                 1.6858                 2.8224
 IR Inten    --      1.6429                13.9070                 5.8577

                     43                     44                     45
                      A                      A                      A
 Frequencies --   1519.8441              1540.2339              1549.8562
 Red. masses --      1.1849                 1.1431                 2.0357
 Frc consts  --      1.6126                 1.5977                 2.8811
 IR Inten    --     12.4401                12.5243                 5.1792

                     46                     47                     48
                      A                      A                      A
 Frequencies --   1648.8333              1669.4442              2668.5234
 Red. masses --      5.5856                 5.6047                 1.0394
 Frc consts  --      8.9470                 9.2033                 4.3609
 IR Inten    --      0.6665                 2.1629                16.8309

                     49                     50                     51
                      A                      A                      A
 Frequencies --   2678.1938              2996.9462              3086.9201
 Red. masses --      1.0386                 1.0698                 1.0915
 Frc consts  --      4.3891                 5.6615                 6.1282
 IR Inten    --     20.5803                32.7898                15.1558

                     52                     53                     54
                      A                      A                      A
 Frequencies --   3178.7100              3186.5485              3196.6138
 Red. masses --      1.0861                 1.0873                 1.0911
 Frc consts  --      6.4659                 6.5046                 6.5691
 IR Inten    --      5.7484                 1.0431                24.2931

                     55                     56                     57
                      A                      A                      A
 Frequencies --   3206.6354              3213.7189              3411.1862
 Red. masses --      1.0941                 1.0972                 1.0744
 Frc consts  --      6.6283                 6.6762                 7.3659
 IR Inten    --     30.3521                12.1232                 6.1532

 - Thermochemistry -
 -------------------
 Temperature   298.150 Kelvin.  Pressure   1.00000 Atm.
 Atom     1 has atomic number  6 and mass  12.00000

 Molecular mass:   186.02854 amu.
 Principal axes and moments of inertia in atomic units:
                           1         2         3
     Eigenvalues --   956.932375024.417965790.93142
           X            0.99998  -0.00201   0.00673
           Y            0.00205   0.99998  -0.00677
           Z           -0.00671   0.00678   0.99995
 This molecule is an asymmetric top.
 Rotational symmetry number  1.
 Warning -- assumption of classical behavior for rotation
           may cause significant error
 Rotational temperatures (Kelvin)      0.09051     0.01724     0.01496
 Rotational constants (GHZ):           1.88597     0.35919     0.31165
 Zero-point vibrational energy     421018.2 (Joules/Mol)
                                  100.62578 (Kcal/Mol)
 Warning -- explicit consideration of  16 degrees of freedom as
           vibrations may cause significant error
 Vibrational temperatures:     36.48    57.81   101.62   153.13   193.36
          (Kelvin)            239.69   327.54   360.70   412.32   477.47
                              547.51   586.90   600.83   712.57   729.10
                              878.95   917.08  1024.31  1060.57  1092.71
                             1173.18  1227.87  1242.65  1335.44  1347.90
                             1388.88  1397.23  1435.65  1450.61  1471.83
                             1526.04  1594.19  1623.83  1631.60  1718.32
                             1746.14  1781.78  1826.35  1941.95  1968.09
                             2014.60  2163.14  2186.72  2216.05  2229.90
                             2372.30  2401.96  3839.41  3853.32  4311.94
                             4441.39  4573.45  4584.73  4599.21  4613.63
                             4623.82  4907.94

 Zero-point correction=                           0.160357 (Hartree/Particle)
 Thermal correction to Energy=                    0.172210
 Thermal correction to Enthalpy=                  0.173154
 Thermal correction to Gibbs Free Energy=         0.120207
 Sum of electronic and zero-point Energies=          -1178.438769
 Sum of electronic and thermal Energies=             -1178.426916
 Sum of electronic and thermal Enthalpies=           -1178.425972
 Sum of electronic and thermal Free Energies=        -1178.478919

                     E (Thermal)             CV                S
                      KCal/Mol        Cal/Mol-Kelvin    Cal/Mol-Kelvin
 Total                  108.063             42.795            111.436
 Electronic               0.000              0.000              0.000
 Translational            0.889              2.981             41.568
 Rotational               0.889              2.981             31.699
 Vibrational            106.286             36.833             38.168
 Vibration     1          0.593              1.985              6.163
 Vibration     2          0.594              1.981              5.250
 Vibration     3          0.598              1.968              4.136
 Vibration     4          0.605              1.944              3.333
 Vibration     5          0.613              1.919              2.882
 Vibration     6          0.624              1.884              2.474
 Vibration     7          0.651              1.799              1.897
 Vibration     8          0.663              1.762              1.726
 Vibration     9          0.684              1.699              1.494
 Vibration    10          0.714              1.612              1.251
 Vibration    11          0.750              1.512              1.037
 Vibration    12          0.772              1.453              0.934
 Vibration    13          0.781              1.432              0.900
 Vibration    14          0.851              1.261              0.670
 Vibration    15          0.862              1.235              0.641
 Vibration    16          0.970              1.009              0.431

 Optimization completed.
    -- Stationary point found.
 Normal termination of Gaussian 16 at Tue Dec  8 21:25:29 2020.

 ----------------------------------------------------------------------
 # B3LYP/6-311++G(d,p) empiricaldispersion=gd3bj scf=xqc pop=npa geom=c
 heck
 ----------------------------------------------------------------------

 ---------------------------------------
 CID_151362399_JID_1797_Energie_neutraal
 ---------------------------------------
 Structure from the checkpoint file:  "JID_1797.chk"
 Charge =  0 Multiplicity = 1

 SCF Done:  E(RB3LYP) =  -1178.76681442     A.U. after   16 cycles
 Normal termination of Gaussian 16 at Tue Dec  8 21:28:10 2020.

 ----------------------------------------------------------------------
 # B3LYP/6-311++G(d,p) empiricaldispersion=gd3bj scf=xqc pop=npa geom=c
 heck
 ----------------------------------------------------------------------

 -------------------------------------
 CID_151362399_JID_1797_Energie_kation
 -------------------------------------
 Structure from the checkpoint file:  "JID_1797.chk"
 Charge =  1 Multiplicity = 2

 SCF Done:  E(UB3LYP) =  -1178.46816528     A.U. after   29 cycles
 Normal termination of Gaussian 16 at Tue Dec  8 21:35:09 2020.
 Gaussian 16:  ES64L-G16RevA.03 25-Dec-2016

 ----------------------------------------------------------------------
 # B3LYP/6-311++G(d,p) empiricaldispersion=gd3bj scf=xqc pop=npa geom=c
 heck
 ----------------------------------------------------------------------

 ------------------------------------
 CID_151362399_JID_1797_Energie_anion
 ------------------------------------
 Structure from the checkpoint file:  "JID_1797.chk"
 Charge = -1 Multiplicity = 2

                         Standard orientation:
 ---------------------------------------------------------------------
 Center     Atomic      Atomic             Coordinates (Angstroms)
 Number     Number       Type             X           Y           Z
 ---------------------------------------------------------------------
      1          6           0       -4.212632    0.317555   -0.388371
      2          6           0       -3.350897    1.366705   -0.058217
      3          6           0       -2.036046    1.100957    0.317831
      4          6           0       -1.565236   -0.217768    0.367732
      5          6           0       -2.430638   -1.260776    0.027080
      6          6           0       -3.750241   -0.997162   -0.344891
      7          6           0       -0.140207   -0.499384    0.783149
      8          7           0        0.778486    0.288057   -0.041021
      9          7           0        2.115992    0.074726    0.349655
     10         16           0        2.850711   -1.464910   -0.296113
     11         16           0        3.013916    1.498754   -0.230403
     12          1           0       -5.238076    0.525746   -0.680597
     13          1           0       -3.705495    2.393109   -0.093435
     14          1           0       -1.358781    1.912572    0.566428
     15          1           0       -2.069000   -2.285861    0.053808
     16          1           0       -4.412649   -1.818015   -0.605149
     17          1           0        0.037933   -0.199512    1.821618
     18          1           0        0.064746   -1.579673    0.710226
     19          1           0        0.630993    0.071688   -1.030489
     20          1           0        2.722028   -2.140949    0.866466
     21          1           0        4.148307    1.179137    0.429060
 ---------------------------------------------------------------------

 SCF Done:  E(UB3LYP) =  -1178.76366950     A.U. after   33 cycles
 SCF Done:  E(UB3LYP) =  -1178.76366950     a.u. after    1 cycles

 The electronic state is 2-A.
 Alpha  occ. eigenvalues --  -88.72598 -88.71852 -14.23156 -14.21801 -10.09179
 Alpha  occ. eigenvalues --  -10.08300 -10.07928 -10.07875 -10.07803 -10.07644
 Alpha  occ. eigenvalues --  -10.07482  -7.81067  -7.80346  -5.77553  -5.77125
 Alpha  occ. eigenvalues --   -5.76774  -5.76407  -5.76376  -5.75706  -0.86752
 Alpha  occ. eigenvalues --   -0.76352  -0.70839  -0.65282  -0.64955  -0.59662
 Alpha  occ. eigenvalues --   -0.56977  -0.51297  -0.50291  -0.48672  -0.42204
 Alpha  occ. eigenvalues --   -0.38730  -0.36961  -0.35521  -0.34423  -0.32899
 Alpha  occ. eigenvalues --   -0.32312  -0.30124  -0.29595  -0.27042  -0.26151
 Alpha  occ. eigenvalues --   -0.24863  -0.24397  -0.23322  -0.16570  -0.16085
 Alpha  occ. eigenvalues --   -0.15470  -0.14023  -0.11570  -0.08478   0.04539
 Alpha virt. eigenvalues --    0.05944   0.07606   0.07711   0.08090   0.08485
 Alpha virt. eigenvalues --    0.09367   0.09871   0.11111   0.11283   0.12228
 Alpha virt. eigenvalues --    0.12267   0.13675   0.14642   0.15442   0.15702

  Beta  occ. eigenvalues --  -88.72523 -88.71763 -14.22558 -14.21789 -10.09179
  Beta  occ. eigenvalues --  -10.08283 -10.07911 -10.07860 -10.07786 -10.07628
  Beta  occ. eigenvalues --  -10.07483  -7.80994  -7.80256  -5.77347  -5.77070
  Beta  occ. eigenvalues --   -5.76575  -5.76327  -5.76314  -5.75644  -0.86262
  Beta  occ. eigenvalues --   -0.76280  -0.70349  -0.65159  -0.64820  -0.59098
  Beta  occ. eigenvalues --   -0.56831  -0.51205  -0.49935  -0.48622  -0.42085
  Beta  occ. eigenvalues --   -0.38394  -0.36760  -0.35165  -0.34221  -0.32808
  Beta  occ. eigenvalues --   -0.32186  -0.29991  -0.29368  -0.26790  -0.26017
  Beta  occ. eigenvalues --   -0.24818  -0.24328  -0.22887  -0.16142  -0.15871
  Beta  occ. eigenvalues --   -0.15391  -0.13766  -0.11226  -0.07985
  Beta virt. eigenvalues --    0.06697   0.07728   0.07982   0.08155   0.08623
  Beta virt. eigenvalues --    0.09386   0.09658   0.10088   0.11109   0.11728
  Beta virt. eigenvalues --    0.12190   0.12872   0.13690   0.14564   0.15501

 Mulliken charges and spin densities:
               1          2
     1  C    0.863010  -1.121218
     2  C   -0.158234  -0.192228
     3  C   -0.739293   0.713779
     4  C    0.812085   0.056549
     5  C   -0.502583   0.025614
     6  C    0.272740  -0.500521
     7  C   -0.432659  -0.348736
     8  N   -0.347032   0.021368
     9  N    0.371563  -0.047723
    10  S   -0.331728   0.287894
    11  S   -0.349307   0.287632
    12  H   -0.426216   0.576488
    13  H   -0.023932   0.180267
    14  H    0.172964   0.020584
    15  H   -0.001660   0.140271
    16  H   -0.502468   0.675467
    17  H    0.194782  -0.007356
    18  H   -0.001571   0.106594
    19  H    0.139738   0.017178
    20  H   -0.039654   0.085121
    21  H    0.029457   0.022976
 Sum of Mulliken charges =  -1.00000   1.00000

 Dipole moment (field-independent basis, Debye):
    X=             -0.4931    Y=              1.0552    Z=              2.0959  Tot=              2.3978
 Quadrupole moment (field-independent basis, Debye-Ang):
   XX=           -162.6942   YY=           -110.6036   ZZ=            -96.1093
   XY=             -2.8844   XZ=              0.7095   YZ=             -2.2592

 Summary of Natural Population Analysis:

                                       Natural Population
                Natural  -----------------------------------------------
    Atom  No    Charge         Core      Valence    Rydberg      Total
 -----------------------------------------------------------------------
      C    1   -0.10602      0.99956     2.09605    0.01040     3.10602
      C    2   -0.10095      0.99957     2.09106    0.01032     3.10095
      C    3   -0.09788      0.99951     2.08875    0.00963     3.09788
      C    4   -0.02081      0.99950     2.01081    0.01050     3.02081
      C    5   -0.09911      0.99951     2.08941    0.01018     3.09911
      C    6   -0.10138      0.99957     2.09127    0.01055     3.10138
      C    7   -0.09880      0.99960     2.08511    0.01409     3.09880
      N    8   -0.23665      0.99972     2.72254    0.01439     3.73665
      N    9   -0.23759      0.99984     2.72237    0.01539     3.73759
      S   10    0.05038      4.99965     2.93177    0.01819     7.94962
      S   11    0.08775      4.99962     2.89354    0.01910     7.91225
      H   12    0.10107      0.00000     0.39751    0.00142     0.39893
      H   13    0.09876      0.00000     0.40045    0.00080     0.40124
      H   14    0.10811      0.00000     0.39078    0.00111     0.39189
      H   15    0.10166      0.00000     0.39717    0.00116     0.39834
      H   16    0.10151      0.00000     0.39701    0.00148     0.39849
      H   17    0.10052      0.00000     0.39805    0.00143     0.39948
      H   18    0.09016      0.00000     0.40741    0.00243     0.40984
      H   19    0.16441      0.00000     0.33276    0.00283     0.33559
      H   20    0.04691      0.00000     0.44963    0.00346     0.45309
      H   21    0.04795      0.00000     0.44899    0.00306     0.45205
 =======================================================================
   * Total *   -0.00000     18.99566    29.84245    0.16189    49.00000

 Normal termination of Gaussian 16 at Tue Dec  8 21:41:54 2020.
