 Gaussian 16, Revision A.03,

 -----------------------------------------------------------
 # opt freq B3LYP/6-31G(d) empiricaldispersion=gd3bj scf=xqc
 -----------------------------------------------------------

 -------------------------------
 CID_43095146_JID_10717_neutraal
 -------------------------------
 Symbolic Z-matrix:
 Charge =  0 Multiplicity = 1

 SCF Done:  E(RB3LYP) =  -1239.18816884     A.U. after   15 cycles
 SCF Done:  E(RB3LYP) =  -1239.19967324     A.U. after   13 cycles
 SCF Done:  E(RB3LYP) =  -1239.20057072     A.U. after   12 cycles
 SCF Done:  E(RB3LYP) =  -1239.20214719     A.U. after   12 cycles
 SCF Done:  E(RB3LYP) =  -1239.20247262     A.U. after   12 cycles
 SCF Done:  E(RB3LYP) =  -1239.20268572     A.U. after   12 cycles
 SCF Done:  E(RB3LYP) =  -1239.20278557     A.U. after   11 cycles
 SCF Done:  E(RB3LYP) =  -1239.20284967     A.U. after   11 cycles
 SCF Done:  E(RB3LYP) =  -1239.20290076     A.U. after   11 cycles
 SCF Done:  E(RB3LYP) =  -1239.20292056     A.U. after   10 cycles
 SCF Done:  E(RB3LYP) =  -1239.20358899     A.U. after    9 cycles
 SCF Done:  E(RB3LYP) =  -1239.20358943     A.U. after    7 cycles
 SCF Done:  E(RB3LYP) =  -1239.20358965     A.U. after    9 cycles
 SCF Done:  E(RB3LYP) =  -1239.20359025     A.U. after    9 cycles
 SCF Done:  E(RB3LYP) =  -1239.20359047     A.U. after    7 cycles
 Optimization completed.
    -- Stationary point found.
 Normal termination of Gaussian 16 at Sun Dec 13 17:11:29 2020.

 --------------------------------------------------------------------
 #N Geom=AllCheck Guess=TCheck SCRF=Check GenChk RB3LYP/6-31G(d) Freq
 --------------------------------------------------------------------

 Structure from the checkpoint file:  "JID_10717.chk"
 -------------------------------
 CID_43095146_JID_10717_neutraal
 -------------------------------
 Charge =  0 Multiplicity = 1

 SCF Done:  E(RB3LYP) =  -1239.20359047     A.U. after    1 cycles

  Exact polarizability: 263.166   2.525 198.498  27.639  -5.318 134.043
 Approx polarizability: 365.400  -0.674 319.229  54.059 -13.496 207.124

                      1                      2                      3
                      A                      A                      A
 Frequencies --     16.4693                28.6330                44.8751
 Red. masses --      3.8589                 5.2019                 3.7353
 Frc consts  --      0.0006                 0.0025                 0.0044
 IR Inten    --      0.0935                 0.3878                 0.0225

                      4                      5                      6
                      A                      A                      A
 Frequencies --     72.2157                79.1019                84.6586
 Red. masses --      3.0079                 1.5435                 2.5059
 Frc consts  --      0.0092                 0.0057                 0.0106
 IR Inten    --      0.1898                 0.0378                 0.4133

                      7                      8                      9
                      A                      A                      A
 Frequencies --     96.3298               101.8243               123.6829
 Red. masses --      2.0360                 3.3464                 2.8411
 Frc consts  --      0.0111                 0.0204                 0.0256
 IR Inten    --      0.4767                 0.6333                 1.8992

                     10                     11                     12
                      A                      A                      A
 Frequencies --    148.1498               166.9678               173.7722
 Red. masses --      3.7477                 1.6112                 2.2806
 Frc consts  --      0.0485                 0.0265                 0.0406
 IR Inten    --      4.8383                 0.4373                 0.6955

                     13                     14                     15
                      A                      A                      A
 Frequencies --    175.2091               182.8620               219.8312
 Red. masses --      2.5327                 1.8733                 1.2348
 Frc consts  --      0.0458                 0.0369                 0.0352
 IR Inten    --      1.8388                 1.9166                 0.2333

                     16                     17                     18
                      A                      A                      A
 Frequencies --    250.7138               277.8190               287.2162
 Red. masses --      3.8157                 3.2921                 3.5567
 Frc consts  --      0.1413                 0.1497                 0.1729
 IR Inten    --      1.4259                 2.0601                 4.6689

                     19                     20                     21
                      A                      A                      A
 Frequencies --    295.3220               297.1896               323.5933
 Red. masses --      1.4016                 3.1173                 3.0676
 Frc consts  --      0.0720                 0.1622                 0.1893
 IR Inten    --      1.6165                 0.8643                 0.5955

                     22                     23                     24
                      A                      A                      A
 Frequencies --    325.5593               345.9823               360.3394
 Red. masses --      3.3850                 1.3397                 2.6746
 Frc consts  --      0.2114                 0.0945                 0.2046
 IR Inten    --      4.1996               101.9672                16.6714

                     25                     26                     27
                      A                      A                      A
 Frequencies --    363.7935               392.8646               414.7780
 Red. masses --      3.5762                 4.5259                 3.1735
 Frc consts  --      0.2789                 0.4116                 0.3217
 IR Inten    --      1.4771                 1.0108                 1.7276

                     28                     29                     30
                      A                      A                      A
 Frequencies --    438.5031               481.7524               490.0059
 Red. masses --      1.9413                 2.0087                 2.6733
 Frc consts  --      0.2199                 0.2747                 0.3782
 IR Inten    --      0.3013               142.0093                18.8243

                     31                     32                     33
                      A                      A                      A
 Frequencies --    506.3519               511.8357               544.8586
 Red. masses --      2.4900                 4.1639                 3.1990
 Frc consts  --      0.3761                 0.6427                 0.5595
 IR Inten    --     58.4666                 7.8528                23.1899

                     34                     35                     36
                      A                      A                      A
 Frequencies --    566.6723               570.5513               639.7506
 Red. masses --      4.2764                 5.0762                 7.2220
 Frc consts  --      0.8091                 0.9736                 1.7415
 IR Inten    --     13.1617                 1.1590                 1.5013

                     37                     38                     39
                      A                      A                      A
 Frequencies --    660.7795               718.3340               726.7525
 Red. masses --      5.1445                 3.9192                 3.8601
 Frc consts  --      1.3234                 1.1915                 1.2012
 IR Inten    --      3.0974                 0.3443                 3.6563

                     40                     41                     42
                      A                      A                      A
 Frequencies --    734.5959               773.9010               795.9492
 Red. masses --      2.6828                 6.5394                 1.1614
 Frc consts  --      0.8530                 2.3076                 0.4335
 IR Inten    --      3.0688                 7.2566                 3.4199

                     43                     44                     45
                      A                      A                      A
 Frequencies --    812.9077               829.5689               890.5662
 Red. masses --      4.5085                 1.1431                 2.7579
 Frc consts  --      1.7553                 0.4635                 1.2887
 IR Inten    --     16.8300                 1.7053                 6.1169

                     46                     47                     48
                      A                      A                      A
 Frequencies --    905.4405               918.1821               924.2353
 Red. masses --      3.7588                 2.2061                 3.5167
 Frc consts  --      1.8156                 1.0958                 1.7699
 IR Inten    --      8.6343                 5.4021                 3.6075

                     49                     50                     51
                      A                      A                      A
 Frequencies --    950.5145               998.3912              1006.9739
 Red. masses --      2.6712                 4.9702                 2.4672
 Frc consts  --      1.4219                 2.9189                 1.4740
 IR Inten    --      5.7941                 5.2660                14.0966

                     52                     53                     54
                      A                      A                      A
 Frequencies --   1029.2990              1056.0598              1065.7538
 Red. masses --      2.9275                 2.4335                 1.3897
 Frc consts  --      1.8274                 1.5991                 0.9300
 IR Inten    --      7.9685                22.2961                 0.8199

                     55                     56                     57
                      A                      A                      A
 Frequencies --   1069.7474              1080.1808              1089.4206
 Red. masses --      3.1112                 1.4717                 1.9445
 Frc consts  --      2.0977                 1.0117                 1.3597
 IR Inten    --      9.1415                 0.3041                 3.3826

                     58                     59                     60
                      A                      A                      A
 Frequencies --   1112.3854              1116.2918              1130.3637
 Red. masses --      2.2766                 2.0786                 1.6594
 Frc consts  --      1.6598                 1.5261                 1.2492
 IR Inten    --     31.1589                 6.1014                 3.6167

                     61                     62                     63
                      A                      A                      A
 Frequencies --   1147.0852              1164.5976              1186.0589
 Red. masses --      1.7475                 2.7501                 3.1990
 Frc consts  --      1.3547                 2.1976                 2.6514
 IR Inten    --     30.3834                 1.0771                 0.7497

                     64                     65                     66
                      A                      A                      A
 Frequencies --   1196.6778              1239.0954              1267.7255
 Red. masses --      1.6261                 1.6359                 3.1194
 Frc consts  --      1.3720                 1.4799                 2.9538
 IR Inten    --     28.8878                30.1146                17.9065

                     67                     68                     69
                      A                      A                      A
 Frequencies --   1272.0889              1315.1300              1336.8532
 Red. masses --      2.0728                 1.2668                 4.3869
 Frc consts  --      1.9762                 1.2909                 4.6193
 IR Inten    --     30.9599                 5.6324                26.5243

                     70                     71                     72
                      A                      A                      A
 Frequencies --   1339.3016              1365.6475              1395.5885
 Red. masses --      1.3970                 1.5206                 1.4347
 Frc consts  --      1.4764                 1.6709                 1.6464
 IR Inten    --     28.9773                67.9682                96.6339

                     73                     74                     75
                      A                      A                      A
 Frequencies --   1411.7090              1414.2844              1421.0325
 Red. masses --      1.5473                 1.4494                 1.4670
 Frc consts  --      1.8169                 1.7081                 1.7453
 IR Inten    --     44.0853                23.2328                14.0714

                     76                     77                     78
                      A                      A                      A
 Frequencies --   1430.7287              1438.9567              1441.5730
 Red. masses --      1.5918                 1.2940                 1.2770
 Frc consts  --      1.9198                 1.5786                 1.5635
 IR Inten    --     24.1503                 0.9295                 1.8758

                     79                     80                     81
                      A                      A                      A
 Frequencies --   1446.3170              1455.1240              1457.9678
 Red. masses --      2.3326                 1.4356                 1.3427
 Frc consts  --      2.8749                 1.7909                 1.6816
 IR Inten    --     97.4663                38.5412                11.6625

                     82                     83                     84
                      A                      A                      A
 Frequencies --   1501.7917              1504.4734              1505.6622
 Red. masses --      1.0747                 1.0833                 1.0476
 Frc consts  --      1.4281                 1.4446                 1.3993
 IR Inten    --      6.3284                 6.5696                 1.0280

                     85                     86                     87
                      A                      A                      A
 Frequencies --   1509.3162              1510.5006              1510.9739
 Red. masses --      1.1083                 1.1003                 1.0437
 Frc consts  --      1.4875                 1.4791                 1.4039
 IR Inten    --      3.9500                13.3075                10.0762

                     88                     89                     90
                      A                      A                      A
 Frequencies --   1522.8379              1523.8138              1526.8168
 Red. masses --      1.0652                 1.0982                 1.0560
 Frc consts  --      1.4554                 1.5024                 1.4504
 IR Inten    --     12.0684                18.3994                14.7017

                     91                     92                     93
                      A                      A                      A
 Frequencies --   1535.4012              1544.8985              1552.1126
 Red. masses --      1.0649                 1.0556                 4.8676
 Frc consts  --      1.4791                 1.4845                 6.9090
 IR Inten    --     12.1345                 7.2031                81.3067

                     94                     95                     96
                      A                      A                      A
 Frequencies --   1558.1254              1567.7128              1617.8662
 Red. masses --      1.0955                 7.2915                 7.9579
 Frc consts  --      1.5670                10.5584                12.2726
 IR Inten    --     15.3570                12.1569               464.0277

                     97                     98                     99
                      A                      A                      A
 Frequencies --   1653.6295              1681.6967              2994.2208
 Red. masses --      6.2195                 1.2600                 1.0672
 Frc consts  --     10.0204                 2.0995                 5.6372
 IR Inten    --     65.1307               194.1650                68.7983

                    100                    101                    102
                      A                      A                      A
 Frequencies --   3006.9966              3037.8868              3040.4439
 Red. masses --      1.0677                 1.0864                 1.0412
 Frc consts  --      5.6883                 5.9071                 5.6707
 IR Inten    --     58.1834                33.7680                65.7280

                    103                    104                    105
                      A                      A                      A
 Frequencies --   3040.9484              3053.9478              3055.7293
 Red. masses --      1.0725                 1.0403                 1.0374
 Frc consts  --      5.8434                 5.7163                 5.7073
 IR Inten    --     38.5841                23.9832                29.5059

                    106                    107                    108
                      A                      A                      A
 Frequencies --   3065.1206              3069.6393              3070.4630
 Red. masses --      1.0946                 1.0662                 1.0362
 Frc consts  --      6.0590                 5.9192                 5.7556
 IR Inten    --     22.6842                39.5487                15.7142

                    109                    110                    111
                      A                      A                      A
 Frequencies --   3085.2577              3106.2114              3114.2163
 Red. masses --      1.1019                 1.0967                 1.0999
 Frc consts  --      6.1797                 6.2342                 6.2852
 IR Inten    --     19.1012                 9.8687                61.4481

                    112                    113                    114
                      A                      A                      A
 Frequencies --   3121.4447              3126.6835              3134.7998
 Red. masses --      1.1020                 1.1001                 1.1006
 Frc consts  --      6.3264                 6.3364                 6.3724
 IR Inten    --     30.5417                 9.4308                15.5193

                    115                    116                    117
                      A                      A                      A
 Frequencies --   3137.8326              3142.3964              3153.1200
 Red. masses --      1.0996                 1.0994                 1.0986
 Frc consts  --      6.3788                 6.3962                 6.4353
 IR Inten    --     35.0314                12.5700                27.5454

                    118                    119                    120
                      A                      A                      A
 Frequencies --   3155.1304              3566.8618              3680.9130
 Red. masses --      1.0982                 1.0464                 1.1018
 Frc consts  --      6.4409                 7.8438                 8.7953
 IR Inten    --     20.9626                56.0966                62.8204

 - Thermochemistry -
 -------------------
 Temperature   298.150 Kelvin.  Pressure   1.00000 Atm.
 Atom     1 has atomic number  6 and mass  12.00000

 Molecular mass:   294.15143 amu.
 Principal axes and moments of inertia in atomic units:
                           1         2         3
     Eigenvalues --  3294.92480********************
           X            0.99997   0.00559  -0.00543
           Y           -0.00570   0.99976  -0.02103
           Z            0.00531   0.02106   0.99976
 This molecule is an asymmetric top.
 Rotational symmetry number  1.
 Warning -- assumption of classical behavior for rotation
           may cause significant error
 Rotational temperatures (Kelvin)      0.02629     0.00861     0.00748
 Rotational constants (GHZ):           0.54773     0.17934     0.15576
 Zero-point vibrational energy     934451.4 (Joules/Mol)
                                  223.33923 (Kcal/Mol)
 Warning -- explicit consideration of  35 degrees of freedom as
           vibrations may cause significant error
 Vibrational temperatures:     23.70    41.20    64.57   103.90   113.81
          (Kelvin)            121.80   138.60   146.50   177.95   213.15
                              240.23   250.02   252.09   263.10   316.29
                              360.72   399.72   413.24   424.90   427.59
                              465.58   468.41   497.79   518.45   523.42
                              565.24   596.77   630.91   693.13   705.01
                              728.53   736.42   783.93   815.32   820.90
                              920.46   950.71  1033.52  1045.63  1056.92
                             1113.47  1145.19  1169.59  1193.56  1281.33
                             1302.73  1321.06  1329.77  1367.58  1436.46
                             1448.81  1480.93  1519.43  1533.38  1539.13
                             1554.14  1567.43  1600.47  1606.09  1626.34
                             1650.40  1675.60  1706.47  1721.75  1782.78
                             1823.97  1830.25  1892.18  1923.43  1926.96
                             1964.86  2007.94  2031.13  2034.84  2044.55
                             2058.50  2070.34  2074.10  2080.93  2093.60
                             2097.69  2160.74  2164.60  2166.31  2171.57
                             2173.27  2173.95  2191.02  2192.43  2196.75
                             2209.10  2222.76  2233.14  2241.79  2255.59
                             2327.75  2379.20  2419.59  4308.02  4326.40
                             4370.84  4374.52  4375.25  4393.95  4396.51
                             4410.02  4416.53  4417.71  4439.00  4469.15
                             4480.66  4491.06  4498.60  4510.28  4514.64
                             4521.21  4536.64  4539.53  5131.92  5296.01

 Zero-point correction=                           0.355914 (Hartree/Particle)
 Thermal correction to Energy=                    0.377599
 Thermal correction to Enthalpy=                  0.378543
 Thermal correction to Gibbs Free Energy=         0.304278
 Sum of electronic and zero-point Energies=          -1238.847677
 Sum of electronic and thermal Energies=             -1238.825992
 Sum of electronic and thermal Enthalpies=           -1238.825048
 Sum of electronic and thermal Free Energies=        -1238.899312

                     E (Thermal)             CV                S
                      KCal/Mol        Cal/Mol-Kelvin    Cal/Mol-Kelvin
 Total                  236.947             80.529            156.303
 Electronic               0.000              0.000              0.000
 Translational            0.889              2.981             42.934
 Rotational               0.889              2.981             34.307
 Vibrational            235.169             74.568             79.063
 Vibration     1          0.593              1.986              7.020
 Vibration     2          0.593              1.984              5.922
 Vibration     3          0.595              1.979              5.031
 Vibration     4          0.598              1.967              4.092
 Vibration     5          0.600              1.963              3.913
 Vibration     6          0.601              1.960              3.780
 Vibration     7          0.603              1.952              3.527
 Vibration     8          0.604              1.948              3.419
 Vibration     9          0.610              1.929              3.042
 Vibration    10          0.618              1.905              2.696
 Vibration    11          0.624              1.883              2.469
 Vibration    12          0.627              1.875              2.394
 Vibration    13          0.627              1.873              2.379
 Vibration    14          0.630              1.863              2.299
 Vibration    15          0.647              1.811              1.960
 Vibration    16          0.663              1.762              1.726
 Vibration    17          0.679              1.715              1.547
 Vibration    18          0.684              1.697              1.490
 Vibration    19          0.690              1.682              1.443
 Vibration    20          0.691              1.679              1.433
 Vibration    21          0.708              1.628              1.292
 Vibration    22          0.710              1.624              1.282
 Vibration    23          0.724              1.583              1.184
 Vibration    24          0.735              1.554              1.121
 Vibration    25          0.737              1.547              1.106
 Vibration    26          0.760              1.485              0.989
 Vibration    27          0.778              1.438              0.910
 Vibration    28          0.799              1.386              0.831
 Vibration    29          0.838              1.291              0.705
 Vibration    30          0.846              1.272              0.684
 Vibration    31          0.862              1.236              0.642
 Vibration    32          0.867              1.224              0.629
 Vibration    33          0.900              1.151              0.555
 Vibration    34          0.923              1.103              0.511
 Vibration    35          0.927              1.095              0.503

 Optimization completed.
    -- Stationary point found.
 Normal termination of Gaussian 16 at Sun Dec 13 17:34:33 2020.

 ----------------------------------------------------------------------
 # B3LYP/6-311++G(d,p) empiricaldispersion=gd3bj scf=xqc pop=npa geom=c
 heck
 ----------------------------------------------------------------------

 ---------------------------------------
 CID_43095146_JID_10717_Energie_neutraal
 ---------------------------------------
 Structure from the checkpoint file:  "JID_10717.chk"
 Charge =  0 Multiplicity = 1

 SCF Done:  E(RB3LYP) =  -1239.45823963     A.U. after   16 cycles
 Normal termination of Gaussian 16 at Sun Dec 13 17:45:15 2020.

 ----------------------------------------------------------------------
 # B3LYP/6-311++G(d,p) empiricaldispersion=gd3bj scf=xqc pop=npa geom=c
 heck
 ----------------------------------------------------------------------

 -------------------------------------
 CID_43095146_JID_10717_Energie_kation
 -------------------------------------
 Structure from the checkpoint file:  "JID_10717.chk"
 Charge =  1 Multiplicity = 2

 SCF Done:  E(UB3LYP) =  -1239.20341123     A.U. after   29 cycles
 Normal termination of Gaussian 16 at Sun Dec 13 18:10:15 2020.
 Gaussian 16:  ES64L-G16RevA.03 25-Dec-2016

 ----------------------------------------------------------------------
 # B3LYP/6-311++G(d,p) empiricaldispersion=gd3bj scf=xqc pop=npa geom=c
 heck
 ----------------------------------------------------------------------

 ------------------------------------
 CID_43095146_JID_10717_Energie_anion
 ------------------------------------
 Structure from the checkpoint file:  "JID_10717.chk"
 Charge = -1 Multiplicity = 2

                         Standard orientation:
 ---------------------------------------------------------------------
 Center     Atomic      Atomic             Coordinates (Angstroms)
 Number     Number       Type             X           Y           Z
 ---------------------------------------------------------------------
      1          6           0       -2.958566   -1.380635    2.151005
      2          6           0       -2.824748    0.053748    1.640665
      3          7           0       -3.824103    0.417165    0.639915
      4          6           0       -3.958340    1.851908    0.418767
      5          6           0       -2.688844    2.637202    0.042508
      6          6           0       -4.002429   -0.440134   -0.511781
      7          6           0       -2.945851   -0.424054   -1.656892
      8          6           0       -1.574314   -0.829396   -1.223138
      9          7           0       -1.270127   -2.076785   -0.952379
     10          8           0        0.080999   -1.987957   -0.525982
     11          6           0        0.438690   -0.676936   -0.602717
     12          7           0       -0.552448    0.071715   -1.031528
     13          6           0        1.774209   -0.302517   -0.229131
     14          6           0        2.737543   -1.228135    0.162584
     15         16           0        4.255118   -0.442912    0.515067
     16          6           0        3.587778    1.150843    0.124078
     17          6           0        2.277853    1.066465   -0.241480
     18          6           0        1.422908    2.242975   -0.621208
     19          6           0        4.497668    2.334413    0.240306
     20          7           0        2.607104   -2.576299    0.352350
     21          1           0       -3.988580   -1.585305    2.463044
     22          1           0       -2.299916   -1.525353    3.014412
     23          1           0       -2.667709   -2.113963    1.393024
     24          1           0       -2.974955    0.742414    2.483571
     25          1           0       -1.791298    0.217882    1.294612
     26          1           0       -4.719854    1.992984   -0.358554
     27          1           0       -4.369897    2.294344    1.338786
     28          1           0       -2.208206    2.252518   -0.859992
     29          1           0       -2.939810    3.692895   -0.117277
     30          1           0       -1.945951    2.592040    0.846074
     31          1           0       -4.094780   -1.472725   -0.162607
     32          1           0       -4.964384   -0.179187   -0.972102
     33          1           0       -3.294585   -1.119342   -2.429452
     34          1           0       -2.882304    0.568248   -2.109130
     35          1           0        1.984069    3.178158   -0.561127
     36          1           0        1.031316    2.134660   -1.637013
     37          1           0        0.548415    2.320285    0.032366
     38          1           0        4.872847    2.461495    1.263672
     39          1           0        5.369563    2.242856   -0.419714
     40          1           0        3.971922    3.251749   -0.034250
     41          1           0        3.442681   -3.141421    0.299709
     42          1           0        1.767210   -3.000036   -0.021177
 ---------------------------------------------------------------------

 SCF Done:  E(UB3LYP) =  -1239.45444150     A.U. after   33 cycles
 SCF Done:  E(UB3LYP) =  -1239.45444150     a.u. after    1 cycles

 The electronic state is 2-A.
 Alpha  occ. eigenvalues --  -88.74689 -19.05876 -14.21048 -14.20463 -14.19617
 Alpha  occ. eigenvalues --  -14.16694 -10.12103 -10.10219 -10.09728 -10.09536
 Alpha  occ. eigenvalues --  -10.09185 -10.08700 -10.07980 -10.07897 -10.06926
 Alpha  occ. eigenvalues --  -10.06576 -10.05560 -10.05541 -10.05535 -10.05003
 Alpha  occ. eigenvalues --   -7.83360  -5.79673  -5.79326  -5.78888  -1.00748
 Alpha  occ. eigenvalues --   -0.81976  -0.81464  -0.79091  -0.74766  -0.72973
 Alpha  occ. eigenvalues --   -0.66082  -0.65959  -0.64763  -0.64560  -0.61351
 Alpha  occ. eigenvalues --   -0.58944  -0.55022  -0.54243  -0.52626  -0.49722
 Alpha  occ. eigenvalues --   -0.47627  -0.45519  -0.43539  -0.42601  -0.39154
 Alpha  occ. eigenvalues --   -0.39077  -0.37459  -0.37012  -0.36274  -0.35468
 Alpha  occ. eigenvalues --   -0.34214  -0.33349  -0.33010  -0.32274  -0.31612
 Alpha  occ. eigenvalues --   -0.30258  -0.30123  -0.29518  -0.29161  -0.28881
 Alpha  occ. eigenvalues --   -0.28473  -0.27559  -0.26832  -0.26373  -0.25885
 Alpha  occ. eigenvalues --   -0.25260  -0.24768  -0.24101  -0.23858  -0.22782
 Alpha  occ. eigenvalues --   -0.22069  -0.19883  -0.19397  -0.18483  -0.17191
 Alpha  occ. eigenvalues --   -0.15608  -0.11863  -0.10036  -0.07660   0.04723
 Alpha virt. eigenvalues --    0.06390   0.06982   0.07643   0.07882   0.08279
 Alpha virt. eigenvalues --    0.09215   0.10112   0.10274   0.10395   0.10745
 Alpha virt. eigenvalues --    0.11302   0.11501   0.11939   0.12336   0.12521

  Beta  occ. eigenvalues --  -88.74681 -19.05610 -14.20769 -14.20339 -14.19618
  Beta  occ. eigenvalues --  -14.16693 -10.11818 -10.09723 -10.09708 -10.09527
  Beta  occ. eigenvalues --  -10.09172 -10.08697 -10.07977 -10.07927 -10.06911
  Beta  occ. eigenvalues --  -10.06577 -10.05561 -10.05536 -10.05534 -10.05097
  Beta  occ. eigenvalues --   -7.83353  -5.79676  -5.79329  -5.78849  -1.00318
  Beta  occ. eigenvalues --   -0.81960  -0.81056  -0.78875  -0.74644  -0.72636
  Beta  occ. eigenvalues --   -0.66033  -0.65944  -0.64642  -0.64465  -0.61316
  Beta  occ. eigenvalues --   -0.58812  -0.54960  -0.54090  -0.52609  -0.49173
  Beta  occ. eigenvalues --   -0.47522  -0.45394  -0.43385  -0.42457  -0.39113
  Beta  occ. eigenvalues --   -0.38934  -0.37361  -0.36889  -0.36066  -0.35382
  Beta  occ. eigenvalues --   -0.33628  -0.33268  -0.32878  -0.32250  -0.31528
  Beta  occ. eigenvalues --   -0.30161  -0.30066  -0.29461  -0.29071  -0.28794
  Beta  occ. eigenvalues --   -0.28354  -0.27519  -0.26412  -0.26007  -0.25576
  Beta  occ. eigenvalues --   -0.25209  -0.24578  -0.24052  -0.23839  -0.22762
  Beta  occ. eigenvalues --   -0.21945  -0.19556  -0.18659  -0.17906  -0.16143
  Beta  occ. eigenvalues --   -0.15472  -0.11466  -0.09973  -0.06799
  Beta virt. eigenvalues --    0.06530   0.06990   0.07987   0.08096   0.08306
  Beta virt. eigenvalues --    0.09153   0.09867   0.10107   0.10261   0.10645
  Beta virt. eigenvalues --    0.11057   0.11316   0.11505   0.11886   0.12459

 Mulliken charges and spin densities:
               1          2
     1  C   -0.516563  -0.078415
     2  C   -0.153440  -0.024172
     3  N    0.126253   0.058380
     4  C   -0.085809  -0.267920
     5  C   -0.302680  -0.020068
     6  C   -0.070124  -0.317998
     7  C    0.018412  -0.006364
     8  C    0.391869   0.045312
     9  N   -0.304408   0.131403
    10  O    0.173455   0.041895
    11  C   -0.730426   0.099250
    12  N    0.147302  -0.001072
    13  C    0.488602  -0.259752
    14  C   -0.369486   0.214443
    15  S   -0.782523   0.137190
    16  C   -0.091568   0.104837
    17  C    0.231926  -0.030237
    18  C   -0.920585  -0.067210
    19  C    0.025828  -0.013753
    20  N   -0.323992   0.036484
    21  H    0.120239   0.022013
    22  H    0.125180  -0.005384
    23  H    0.147366   0.000523
    24  H    0.096054   0.040256
    25  H    0.124185  -0.005217
    26  H   -0.081374   0.197417
    27  H    0.089124   0.052188
    28  H    0.159954  -0.056599
    29  H   -0.042054   0.174475
    30  H    0.131055   0.003277
    31  H    0.179965  -0.025527
    32  H   -0.115024   0.259918
    33  H   -0.030032   0.199315
    34  H    0.205902  -0.030646
    35  H    0.094910  -0.008215
    36  H    0.168010   0.013371
    37  H    0.118361  -0.004401
    38  H    0.146186  -0.002189
    39  H    0.129855   0.015329
    40  H    0.099241   0.019012
    41  H   -0.100434   0.342168
    42  H    0.281288   0.016684
 Sum of Mulliken charges =  -1.00000   1.00000

 Dipole moment (field-independent basis, Debye):
    X=             -0.0130    Y=              3.8304    Z=              1.3203  Tot=              4.0516
 Quadrupole moment (field-independent basis, Debye-Ang):
   XX=           -198.4118   YY=           -160.4303   ZZ=           -147.5657
   XY=              9.8023   XZ=             -2.9623   YZ=             -2.3167

 Summary of Natural Population Analysis:

                                       Natural Population
                Natural  -----------------------------------------------
    Atom  No    Charge         Core      Valence    Rydberg      Total
 -----------------------------------------------------------------------
      C    1   -0.29373      0.99966     2.29016    0.00390     3.29373
      C    2   -0.08542      0.99962     2.07672    0.00907     3.08542
      N    3   -0.28561      0.99971     2.77167    0.01423     3.78561
      C    4   -0.08056      0.99963     2.06955    0.01138     3.08056
      C    5   -0.30013      0.99966     2.29496    0.00550     3.30013
      C    6   -0.07570      0.99960     2.06297    0.01313     3.07570
      C    7   -0.21922      0.99957     2.21078    0.00887     3.21922
      C    8    0.16743      0.99964     1.81304    0.01990     2.83257
      N    9   -0.07920      0.99965     2.56735    0.01219     3.57920
      O   10   -0.17381      0.99985     3.16560    0.00835     4.17381
      C   11    0.32499      0.99956     1.65745    0.01800     2.67501
      N   12   -0.29934      0.99968     2.79074    0.00893     3.79934
      C   13   -0.14708      0.99938     2.13706    0.01063     3.14708
      C   14    0.13493      0.99949     1.85033    0.01524     2.86507
      S   15    0.16212      4.99942     2.81894    0.01952     7.83788
      C   16   -0.12320      0.99942     2.11371    0.01007     3.12320
      C   17   -0.00937      0.99940     2.00190    0.00807     3.00937
      C   18   -0.29035      0.99963     2.28620    0.00451     3.29035
      C   19   -0.29373      0.99962     2.28892    0.00519     3.29373
      N   20   -0.38466      0.99968     2.87410    0.01088     3.88466
      H   21    0.09272      0.00000     0.40605    0.00123     0.40728
      H   22    0.09774      0.00000     0.40150    0.00075     0.40226
      H   23    0.10901      0.00000     0.38981    0.00118     0.39099
      H   24    0.08666      0.00000     0.41224    0.00110     0.41334
      H   25    0.09190      0.00000     0.40558    0.00252     0.40810
      H   26    0.09050      0.00000     0.40841    0.00109     0.40950
      H   27    0.08540      0.00000     0.41351    0.00108     0.41460
      H   28    0.10758      0.00000     0.39116    0.00126     0.39242
      H   29    0.09250      0.00000     0.40643    0.00107     0.40750
      H   30    0.09720      0.00000     0.40188    0.00092     0.40280
      H   31    0.09726      0.00000     0.40146    0.00128     0.40274
      H   32    0.08976      0.00000     0.40909    0.00115     0.41024
      H   33    0.10660      0.00000     0.39198    0.00142     0.39340
      H   34    0.10292      0.00000     0.39582    0.00125     0.39708
      H   35    0.09133      0.00000     0.40779    0.00088     0.40867
      H   36    0.11137      0.00000     0.38766    0.00098     0.38863
      H   37    0.10975      0.00000     0.38905    0.00121     0.39025
      H   38    0.09756      0.00000     0.40121    0.00123     0.40244
      H   39    0.09802      0.00000     0.40076    0.00121     0.40198
      H   40    0.10287      0.00000     0.39622    0.00091     0.39713
      H   41    0.18793      0.00000     0.30860    0.00347     0.31207
      H   42    0.20504      0.00000     0.29280    0.00215     0.29496
 =======================================================================
   * Total *   -0.00000     23.99189    54.76120    0.24690    79.00000

 Normal termination of Gaussian 16 at Sun Dec 13 18:38:54 2020.
