 Gaussian 16, Revision A.03,

 -----------------------------------------------------------
 # opt freq B3LYP/6-31G(d) empiricaldispersion=gd3bj scf=xqc
 -----------------------------------------------------------

 -------------------------------
 CID_141293290_JID_5212_neutraal
 -------------------------------
 Symbolic Z-matrix:
 Charge =  0 Multiplicity = 1

 SCF Done:  E(RB3LYP) =  -678.868212378     A.U. after   19 cycles
 SCF Done:  E(RB3LYP) =  -678.877961425     A.U. after   14 cycles
 SCF Done:  E(RB3LYP) =  -678.878669199     A.U. after   14 cycles
 SCF Done:  E(RB3LYP) =  -678.878748532     A.U. after   11 cycles
 SCF Done:  E(RB3LYP) =  -678.878754171     A.U. after   10 cycles
 SCF Done:  E(RB3LYP) =  -678.878754719     A.U. after    9 cycles
 SCF Done:  E(RB3LYP) =  -678.878754991     A.U. after    8 cycles
 Optimization completed.
    -- Stationary point found.
 Normal termination of Gaussian 16 at Thu Dec 10 14:45:01 2020.

 --------------------------------------------------------------------
 #N Geom=AllCheck Guess=TCheck SCRF=Check GenChk RB3LYP/6-31G(d) Freq
 --------------------------------------------------------------------

 Structure from the checkpoint file:  "JID_5212.chk"
 -------------------------------
 CID_141293290_JID_5212_neutraal
 -------------------------------
 Charge =  0 Multiplicity = 1

 SCF Done:  E(RB3LYP) =  -678.878754991     A.U. after    1 cycles

  Exact polarizability: 238.657 -20.640 130.457   0.003   0.001  44.914
 Approx polarizability: 478.825 -54.733 235.643   0.012   0.002  73.374

                      1                      2                      3
                      A                      A                      A
 Frequencies --     56.5664                76.4940               131.1969
 Red. masses --      5.8916                 9.7302                 6.2688
 Frc consts  --      0.0111                 0.0335                 0.0636
 IR Inten    --      0.0894                 4.3807                 8.4776

                      4                      5                      6
                      A                      A                      A
 Frequencies --    143.6488               181.0981               266.6302
 Red. masses --      7.8207                 4.7155                 1.3005
 Frc consts  --      0.0951                 0.0911                 0.0545
 IR Inten    --      0.5229                10.2263               206.6480

                      7                      8                      9
                      A                      A                      A
 Frequencies --    280.9725               292.4837               305.4034
 Red. masses --      4.5115                 4.0953                 4.4966
 Frc consts  --      0.2098                 0.2064                 0.2471
 IR Inten    --      5.2760                 0.8602                30.4053

                     10                     11                     12
                      A                      A                      A
 Frequencies --    337.0558               447.7434               498.6489
 Red. masses --      9.2728                 5.8789                 3.5864
 Frc consts  --      0.6207                 0.6944                 0.5254
 IR Inten    --      2.2528                 6.1116                13.9088

                     13                     14                     15
                      A                      A                      A
 Frequencies --    511.3322               539.4304               550.2739
 Red. masses --      3.9186                 9.7358                 3.5709
 Frc consts  --      0.6037                 1.6691                 0.6371
 IR Inten    --      3.3278                 0.5429                25.3442

                     16                     17                     18
                      A                      A                      A
 Frequencies --    610.3914               632.6580               646.1255
 Red. masses --      3.0415                 6.0116                 1.5040
 Frc consts  --      0.6677                 1.4177                 0.3700
 IR Inten    --      1.2108                 9.2790                 0.4960

                     19                     20                     21
                      A                      A                      A
 Frequencies --    651.4018               676.8076               707.7069
 Red. masses --      5.8575                 3.9938                 4.9067
 Frc consts  --      1.4644                 1.0779                 1.4479
 IR Inten    --      8.8385                13.8419                 6.0273

                     22                     23                     24
                      A                      A                      A
 Frequencies --    753.2999               777.4073               803.8627
 Red. masses --      1.8991                 2.9809                 3.8187
 Frc consts  --      0.6350                 1.0615                 1.4539
 IR Inten    --      7.1022                26.1754                 5.3079

                     25                     26                     27
                      A                      A                      A
 Frequencies --    814.1256               834.9657               864.4290
 Red. masses --      6.7113                 6.0332                 1.7285
 Frc consts  --      2.6208                 2.4782                 0.7610
 IR Inten    --     35.9816                19.9935                 9.0321

                     28                     29                     30
                      A                      A                      A
 Frequencies --    910.1296               934.5864               939.1414
 Red. masses --      8.8088                 1.4573                 1.4299
 Frc consts  --      4.2991                 0.7500                 0.7431
 IR Inten    --      7.4641                 0.6541                 2.5830

                     31                     32                     33
                      A                      A                      A
 Frequencies --    967.4125              1022.6490              1074.8236
 Red. masses --      3.2653                 4.7336                 5.7473
 Frc consts  --      1.8005                 2.9167                 3.9119
 IR Inten    --      3.0935                52.1278                 5.3289

                     34                     35                     36
                      A                      A                      A
 Frequencies --   1100.5496              1118.0824              1149.6885
 Red. masses --      1.8231                 1.9851                 1.6155
 Frc consts  --      1.3010                 1.4621                 1.2581
 IR Inten    --     19.2445                10.7786                 1.4326

                     37                     38                     39
                      A                      A                      A
 Frequencies --   1181.4690              1276.7031              1286.4792
 Red. masses --      2.8644                 2.8540                 3.3929
 Frc consts  --      2.3557                 2.7409                 3.3085
 IR Inten    --     66.1416                 5.7516                63.2236

                     40                     41                     42
                      A                      A                      A
 Frequencies --   1354.4212              1359.5718              1389.1574
 Red. masses --      3.0270                 2.3767                 1.7699
 Frc consts  --      3.2717                 2.5883                 2.0123
 IR Inten    --     64.9210               240.0149                21.8381

                     43                     44                     45
                      A                      A                      A
 Frequencies --   1401.2597              1563.8032              1588.5393
 Red. masses --      6.0274                 6.1882                 8.6785
 Frc consts  --      6.9729                 8.9162                12.9030
 IR Inten    --     20.0893                51.4732                23.6460

                     46                     47                     48
                      A                      A                      A
 Frequencies --   1604.2518              1610.2358              1634.4197
 Red. masses --      8.0433                 2.4172                 2.5184
 Frc consts  --     12.1963                 3.6927                 3.9636
 IR Inten    --    131.9196                53.4239               216.3933

                     49                     50                     51
                      A                      A                      A
 Frequencies --   1644.3399              1741.2052              1793.7216
 Red. masses --      5.3830                10.9993                 9.6534
 Frc consts  --      8.5755                19.6478                18.2995
 IR Inten    --     27.3080                 1.4481               281.8481

                     52                     53                     54
                      A                      A                      A
 Frequencies --   3176.2732              3255.3228              3279.2422
 Red. masses --      1.0914                 1.0904                 1.1039
 Frc consts  --      6.4874                 6.8080                 6.9942
 IR Inten    --     12.0698                 5.2581                 5.9050

                     55                     56                     57
                      A                      A                      A
 Frequencies --   3292.4366              3590.5987              3724.4906
 Red. masses --      1.0970                 1.0446                 1.1063
 Frc consts  --      7.0061                 7.9345                 9.0419
 IR Inten    --      1.5207                58.4856                82.6471

 - Thermochemistry -
 -------------------
 Temperature   298.150 Kelvin.  Pressure   1.00000 Atm.
 Atom     1 has atomic number  6 and mass  12.00000

 Molecular mass:   198.05416 amu.
 Principal axes and moments of inertia in atomic units:
                           1         2         3
     Eigenvalues --  1053.350825012.219706065.57050
           X            0.99984  -0.01799  -0.00000
           Y            0.01799   0.99984   0.00000
           Z            0.00000  -0.00000   1.00000
 This molecule is an asymmetric top.
 Rotational symmetry number  1.
 Warning -- assumption of classical behavior for rotation
           may cause significant error
 Rotational temperatures (Kelvin)      0.08223     0.01728     0.01428
 Rotational constants (GHZ):           1.71333     0.36007     0.29754
 Zero-point vibrational energy     390922.7 (Joules/Mol)
                                   93.43276 (Kcal/Mol)
 Warning -- explicit consideration of  16 degrees of freedom as
           vibrations may cause significant error
 Vibrational temperatures:     81.39   110.06   188.76   206.68   260.56
          (Kelvin)            383.62   404.26   420.82   439.41   484.95
                              644.20   717.44   735.69   776.12   791.72
                              878.22   910.25   929.63   937.22   973.78
                             1018.23  1083.83  1118.52  1156.58  1171.35
                             1201.33  1243.72  1309.47  1344.66  1351.22
                             1391.89  1471.36  1546.43  1583.45  1608.67
                             1654.15  1699.87  1836.89  1850.96  1948.71
                             1956.12  1998.69  2016.10  2249.96  2285.55
                             2308.16  2316.77  2351.57  2365.84  2505.21
                             2580.77  4569.95  4683.68  4718.10  4737.08
                             5166.07  5358.71

 Zero-point correction=                           0.148895 (Hartree/Particle)
 Thermal correction to Energy=                    0.160145
 Thermal correction to Enthalpy=                  0.161089
 Thermal correction to Gibbs Free Energy=         0.111183
 Sum of electronic and zero-point Energies=           -678.729860
 Sum of electronic and thermal Energies=              -678.718610
 Sum of electronic and thermal Enthalpies=            -678.717666
 Sum of electronic and thermal Free Energies=         -678.767572

                     E (Thermal)             CV                S
                      KCal/Mol        Cal/Mol-Kelvin    Cal/Mol-Kelvin
 Total                  100.493             44.101            105.035
 Electronic               0.000              0.000              0.000
 Translational            0.889              2.981             41.755
 Rotational               0.889              2.981             31.838
 Vibrational             98.715             38.140             31.443
 Vibration     1          0.596              1.975              4.574
 Vibration     2          0.599              1.965              3.979
 Vibration     3          0.612              1.922              2.928
 Vibration     4          0.616              1.910              2.755
 Vibration     5          0.630              1.865              2.317
 Vibration     6          0.672              1.734              1.618
 Vibration     7          0.681              1.709              1.528
 Vibration     8          0.688              1.688              1.460
 Vibration     9          0.696              1.663              1.387
 Vibration    10          0.718              1.601              1.226
 Vibration    11          0.807              1.366              0.803
 Vibration    12          0.854              1.253              0.662
 Vibration    13          0.866              1.225              0.630
 Vibration    14          0.894              1.163              0.567
 Vibration    15          0.906              1.139              0.544
 Vibration    16          0.969              1.010              0.432

 Optimization completed.
    -- Stationary point found.
 Normal termination of Gaussian 16 at Thu Dec 10 14:51:01 2020.

 ----------------------------------------------------------------------
 # B3LYP/6-311++G(d,p) empiricaldispersion=gd3bj scf=xqc pop=npa geom=c
 heck
 ----------------------------------------------------------------------

 ---------------------------------------
 CID_141293290_JID_5212_Energie_neutraal
 ---------------------------------------
 Structure from the checkpoint file:  "JID_5212.chk"
 Charge =  0 Multiplicity = 1

 SCF Done:  E(RB3LYP) =  -679.061169296     A.U. after   19 cycles
 Normal termination of Gaussian 16 at Thu Dec 10 14:54:09 2020.

 ----------------------------------------------------------------------
 # B3LYP/6-311++G(d,p) empiricaldispersion=gd3bj scf=xqc pop=npa geom=c
 heck
 ----------------------------------------------------------------------

 -------------------------------------
 CID_141293290_JID_5212_Energie_kation
 -------------------------------------
 Structure from the checkpoint file:  "JID_5212.chk"
 Charge =  1 Multiplicity = 2

 SCF Done:  E(UB3LYP) =  -678.741468142     A.U. after   31 cycles
 Normal termination of Gaussian 16 at Thu Dec 10 15:01:24 2020.
 Gaussian 16:  ES64L-G16RevA.03 25-Dec-2016

 ----------------------------------------------------------------------
 # B3LYP/6-311++G(d,p) empiricaldispersion=gd3bj scf=xqc pop=npa geom=c
 heck
 ----------------------------------------------------------------------

 ------------------------------------
 CID_141293290_JID_5212_Energie_anion
 ------------------------------------
 Structure from the checkpoint file:  "JID_5212.chk"
 Charge = -1 Multiplicity = 2

                         Standard orientation:
 ---------------------------------------------------------------------
 Center     Atomic      Atomic             Coordinates (Angstroms)
 Number     Number       Type             X           Y           Z
 ---------------------------------------------------------------------
      1          6           0        2.496269   -1.808290   -0.000011
      2          6           0        3.748747   -1.291113    0.000173
      3          7           0        3.787179    0.149335    0.000195
      4          6           0        2.548257    0.528676    0.000006
      5          6           0        1.614642   -0.652122   -0.000123
      6          6           0        0.286211   -0.399632   -0.000189
      7          6           0       -0.968620   -1.135253   -0.000173
      8          6           0       -1.940189   -0.183170   -0.000061
      9          7           0       -1.410751    1.153833   -0.000052
     10          6           0       -0.115630    1.019131   -0.000112
     11          6           0        0.882304    2.089305   -0.000060
     12          7           0        2.156161    1.868517   -0.000016
     13          6           0       -3.409555   -0.415947    0.000012
     14          8           0       -3.882669   -1.546167    0.000060
     15          7           0       -4.142170    0.730925    0.000191
     16          1           0        2.201424   -2.848033   -0.000090
     17          1           0        4.691424   -1.823626    0.000302
     18          1           0       -1.117147   -2.204870   -0.000247
     19          1           0        0.530810    3.120343   -0.000094
     20          1           0       -5.149190    0.666760    0.000374
     21          1           0       -3.683512    1.630983    0.000295
 ---------------------------------------------------------------------

 SCF Done:  E(UB3LYP) =  -679.176123804     A.U. after   23 cycles

 The electronic state is 2-A.
 Alpha  occ. eigenvalues --  -18.97433 -14.22406 -14.17951 -14.17866 -14.16114
 Alpha  occ. eigenvalues --  -10.16125 -10.08792 -10.08534 -10.07197 -10.06966
 Alpha  occ. eigenvalues --  -10.06933 -10.05909 -10.05430 -10.05015 -10.04015
 Alpha  occ. eigenvalues --   -0.92427  -0.84035  -0.82185  -0.79657  -0.77671
 Alpha  occ. eigenvalues --   -0.67296  -0.63774  -0.60880  -0.57436  -0.53354
 Alpha  occ. eigenvalues --   -0.48421  -0.46170  -0.44861  -0.42658  -0.40652
 Alpha  occ. eigenvalues --   -0.39561  -0.35789  -0.34005  -0.32313  -0.31692
 Alpha  occ. eigenvalues --   -0.30926  -0.30131  -0.29820  -0.27009  -0.26384
 Alpha  occ. eigenvalues --   -0.25897  -0.24767  -0.21715  -0.16881  -0.16407
 Alpha  occ. eigenvalues --   -0.15936  -0.15088  -0.14629  -0.13125  -0.11885
 Alpha  occ. eigenvalues --   -0.09148  -0.05289
 Alpha virt. eigenvalues --    0.07796   0.07871   0.09101   0.10463   0.10840
 Alpha virt. eigenvalues --    0.11759   0.12620   0.13048   0.14982   0.15293
 Alpha virt. eigenvalues --    0.15424   0.15626   0.16502   0.17374   0.17588

  Beta  occ. eigenvalues --  -18.97435 -14.22384 -14.17948 -14.17522 -14.15880
  Beta  occ. eigenvalues --  -10.16125 -10.08681 -10.08394 -10.07182 -10.06900
  Beta  occ. eigenvalues --  -10.06731 -10.05622 -10.05382 -10.04837 -10.04025
  Beta  occ. eigenvalues --   -0.92419  -0.83604  -0.81696  -0.79564  -0.77347
  Beta  occ. eigenvalues --   -0.66739  -0.63445  -0.60673  -0.56672  -0.53131
  Beta  occ. eigenvalues --   -0.48052  -0.45956  -0.44665  -0.42515  -0.40358
  Beta  occ. eigenvalues --   -0.39426  -0.35568  -0.33842  -0.32075  -0.31150
  Beta  occ. eigenvalues --   -0.30743  -0.30045  -0.28917  -0.26838  -0.26191
  Beta  occ. eigenvalues --   -0.24547  -0.24513  -0.20831  -0.16722  -0.16166
  Beta  occ. eigenvalues --   -0.14872  -0.14449  -0.13777  -0.12111  -0.11661
  Beta  occ. eigenvalues --   -0.08469
  Beta virt. eigenvalues --    0.00422   0.07801   0.08977   0.09105   0.10474
  Beta virt. eigenvalues --    0.10851   0.12628   0.12630   0.13058   0.15027
  Beta virt. eigenvalues --    0.15500   0.15645   0.16139   0.16616   0.17390

 Mulliken charges and spin densities:
               1          2
     1  C    0.015832  -0.032082
     2  C   -0.108162   0.159905
     3  N   -0.113064   0.132725
     4  C   -1.025796   0.028629
     5  C    0.443207   0.254049
     6  C    0.892100   0.075546
     7  C   -0.319386   0.130815
     8  C   -0.246699  -0.014767
     9  N   -0.070769   0.178728
    10  C   -1.079842   0.040467
    11  C    0.115441   0.072022
    12  N   -0.114980  -0.000276
    13  C    0.310287  -0.000111
    14  O   -0.426053  -0.000142
    15  N   -0.428164   0.008255
    16  H    0.113467  -0.001684
    17  H    0.140005  -0.010654
    18  H    0.150496  -0.010730
    19  H    0.178669  -0.008910
    20  H    0.312597  -0.000711
    21  H    0.260811  -0.001073
 Sum of Mulliken charges =  -1.00000   1.00000

 Dipole moment (field-independent basis, Debye):
    X=             -3.7407    Y=             -0.1727    Z=              0.0001  Tot=              3.7447
 Quadrupole moment (field-independent basis, Debye-Ang):
   XX=           -137.6190   YY=            -99.2614   ZZ=            -92.3510
   XY=            -22.3794   XZ=             -0.0032   YZ=              0.0008

 Summary of Natural Population Analysis:

                                       Natural Population
                Natural  -----------------------------------------------
    Atom  No    Charge         Core      Valence    Rydberg      Total
 -----------------------------------------------------------------------
      C    1   -0.16534      0.99951     2.15699    0.00885     3.16534
      C    2    0.06507      0.99956     1.92253    0.01285     2.93493
      N    3   -0.20272      0.99968     2.68815    0.01489     3.70272
      C    4    0.20827      0.99951     1.76998    0.02224     2.79173
      C    5    0.03626      0.99952     1.94787    0.01635     2.96374
      C    6    0.02371      0.99946     1.96605    0.01078     2.97629
      C    7   -0.06498      0.99950     2.05225    0.01323     3.06498
      C    8    0.01821      0.99945     1.96853    0.01380     2.98179
      N    9   -0.18074      0.99968     2.66978    0.01129     3.68074
      C   10    0.07253      0.99959     1.91271    0.01518     2.92747
      C   11    0.08694      0.99960     1.89889    0.01457     2.91306
      N   12   -0.23729      0.99968     2.72586    0.01175     3.73729
      C   13    0.31894      0.99963     1.65989    0.02154     2.68106
      O   14   -0.33388      0.99988     3.32763    0.00636     4.33388
      N   15   -0.40241      0.99971     2.89581    0.00689     3.90241
      H   16    0.09986      0.00000     0.39902    0.00111     0.40014
      H   17    0.08268      0.00000     0.41624    0.00108     0.41732
      H   18    0.10657      0.00000     0.39210    0.00132     0.39343
      H   19    0.08117      0.00000     0.41692    0.00191     0.41883
      H   20    0.18576      0.00000     0.31085    0.00338     0.31424
      H   21    0.20573      0.00000     0.29264    0.00163     0.29427
 =======================================================================
   * Total *    0.00434     14.99395    35.79069    0.21102    50.99566

 Normal termination of Gaussian 16 at Thu Dec 10 15:06:54 2020.
