 Gaussian 16, Revision A.03,

 -----------------------------------------------------------
 # opt freq B3LYP/6-31G(d) empiricaldispersion=gd3bj scf=xqc
 -----------------------------------------------------------

 -----------------------------
 CID_20596966_JID_515_neutraal
 -----------------------------
 Symbolic Z-matrix:
 Charge =  0 Multiplicity = 1

 SCF Done:  E(RB3LYP) =  -440.014704161     A.U. after   15 cycles
 SCF Done:  E(RB3LYP) =  -440.015615518     A.U. after   14 cycles
 SCF Done:  E(RB3LYP) =  -440.017464410     A.U. after   13 cycles
 SCF Done:  E(RB3LYP) =  -440.017569450     A.U. after   11 cycles
 SCF Done:  E(RB3LYP) =  -440.017669153     A.U. after   12 cycles
 SCF Done:  E(RB3LYP) =  -440.017658636     A.U. after   11 cycles
 SCF Done:  E(RB3LYP) =  -440.017680186     A.U. after   11 cycles
 SCF Done:  E(RB3LYP) =  -440.017687711     A.U. after   10 cycles
 SCF Done:  E(RB3LYP) =  -440.017687881     A.U. after    8 cycles
 SCF Done:  E(RB3LYP) =  -440.017688052     A.U. after    7 cycles
 Optimization completed.
    -- Stationary point found.

 1\1\GINC-NODE375\FOpt\RB3LYP\6-31G(d)\C7H15N3\VSC10255\08-Dec-2020\0\\
 # opt freq B3LYP/6-31G(d) empiricaldispersion=gd3bj scf=xqc\\CID_20596
 966_JID_515_neutraal\\0,1\C,0.9152155812,0.0559545924,-0.0450809978\C,
 0.5220180961,-1.2879547476,-0.6665353677\C,0.9519088273,-2.5141203923,
 0.1614767908\C,0.3861192027,-2.4602621336,1.5884903426\C,0.5306474434,
 -3.8282008461,-0.5331731736\C,0.9430334237,-3.9757582861,-2.0097635083
 \C,2.4427480096,-3.8383051199,-2.288757002\N,0.9712428404,-5.037442751
 2,0.2308685767\N,2.127496328,-5.0429624527,0.6550243034\N,3.1677955059

 Normal termination of Gaussian 16 at Tue Dec  8 12:16:34 2020.

 --------------------------------------------------------------------
 #N Geom=AllCheck Guess=TCheck SCRF=Check GenChk RB3LYP/6-31G(d) Freq
 --------------------------------------------------------------------

 Structure from the checkpoint file:  "JID_515.chk"
 -----------------------------
 CID_20596966_JID_515_neutraal
 -----------------------------
 Charge =  0 Multiplicity = 1

 SCF Done:  E(RB3LYP) =  -440.017688052     A.U. after    1 cycles

  Exact polarizability:  97.937  -4.686  88.947   8.951  -7.101  89.062
 Approx polarizability: 128.900 -14.996 122.933  29.136 -26.211 172.924

                      1                      2                      3
                      A                      A                      A
 Frequencies --     59.7809                66.9837                79.4359
 Red. masses --      6.3516                 3.4204                 2.0465
 Frc consts  --      0.0134                 0.0090                 0.0076
 IR Inten    --      0.0192                 0.4566                 0.0190

                      4                      5                      6
                      A                      A                      A
 Frequencies --    121.8561               159.8390               196.6766
 Red. masses --      2.5749                 3.1904                 1.4493
 Frc consts  --      0.0225                 0.0480                 0.0330
 IR Inten    --      0.2460                 1.2292                 0.2247

                      7                      8                      9
                      A                      A                      A
 Frequencies --    197.7168               232.9622               248.1044
 Red. masses --      1.2309                 1.6980                 1.6495
 Frc consts  --      0.0284                 0.0543                 0.0598
 IR Inten    --      0.1752                 0.8462                 1.6099

                     10                     11                     12
                      A                      A                      A
 Frequencies --    280.9692               333.7155               352.2550
 Red. masses --      1.9285                 2.2585                 3.0169
 Frc consts  --      0.0897                 0.1482                 0.2206
 IR Inten    --      0.4436                 0.7141                 0.8978

                     13                     14                     15
                      A                      A                      A
 Frequencies --    403.5650               421.7564               470.7445
 Red. masses --      2.7792                 2.6883                 2.6328
 Frc consts  --      0.2667                 0.2817                 0.3438
 IR Inten    --      0.4960                 0.7567                 1.4547

                     16                     17                     18
                      A                      A                      A
 Frequencies --    569.3201               579.9607               707.2311
 Red. masses --      5.5712                 5.4855                 3.5748
 Frc consts  --      1.0639                 1.0871                 1.0535
 IR Inten    --      5.7168                 7.1167                11.3131

                     19                     20                     21
                      A                      A                      A
 Frequencies --    779.1214               800.2313               832.5719
 Red. masses --      1.5469                 1.3992                 1.9773
 Frc consts  --      0.5533                 0.5279                 0.8075
 IR Inten    --      0.4415                 6.3600                 9.2948

                     22                     23                     24
                      A                      A                      A
 Frequencies --    864.3877               913.0604               942.9709
 Red. masses --      2.1352                 2.8468                 1.8498
 Frc consts  --      0.9400                 1.3983                 0.9691
 IR Inten    --      3.1672                19.6496                 8.6235

                     25                     26                     27
                      A                      A                      A
 Frequencies --    988.7247              1009.7446              1049.5739
 Red. masses --      1.2838                 1.6557                 1.4933
 Frc consts  --      0.7394                 0.9946                 0.9692
 IR Inten    --      3.9983                 1.7051                 1.0203

                     28                     29                     30
                      A                      A                      A
 Frequencies --   1059.8733              1086.7507              1125.7176
 Red. masses --      1.9688                 2.4296                 1.7679
 Frc consts  --      1.3030                 1.6906                 1.3200
 IR Inten    --      0.9394                 2.9878                11.3325

                     31                     32                     33
                      A                      A                      A
 Frequencies --   1168.9997              1191.9716              1198.4238
 Red. masses --      2.2350                 1.9271                 2.0716
 Frc consts  --      1.7995                 1.6132                 1.7529
 IR Inten    --      5.5996                 1.4251                 1.5236

                     34                     35                     36
                      A                      A                      A
 Frequencies --   1284.6748              1311.0929              1323.7733
 Red. masses --      1.5680                 1.6423                 1.3621
 Frc consts  --      1.5247                 1.6633                 1.4063
 IR Inten    --     33.9458                21.9326                20.6908

                     37                     38                     39
                      A                      A                      A
 Frequencies --   1329.0125              1364.9161              1386.6963
 Red. masses --      1.2983                 1.4354                 1.4477
 Frc consts  --      1.3511                 1.5755                 1.6402
 IR Inten    --     23.1135                17.1280                 7.6287

                     40                     41                     42
                      A                      A                      A
 Frequencies --   1399.8314              1409.5162              1420.5891
 Red. masses --      1.4566                 1.3932                 1.4167
 Frc consts  --      1.6817                 1.6308                 1.6844
 IR Inten    --      2.4363                 4.6417                 1.1038

                     43                     44                     45
                      A                      A                      A
 Frequencies --   1441.6699              1445.9598              1450.8682
 Red. masses --      1.2623                 1.2197                 1.2608
 Frc consts  --      1.5457                 1.5025                 1.5638
 IR Inten    --      2.6910                 2.6295                11.4434

                     46                     47                     48
                      A                      A                      A
 Frequencies --   1513.0419              1521.0633              1526.4081
 Red. masses --      1.0701                 1.0626                 1.0471
 Frc consts  --      1.4433                 1.4485                 1.4374
 IR Inten    --      1.0494                 5.3854                 5.4908

                     49                     50                     51
                      A                      A                      A
 Frequencies --   1531.2248              1533.4446              1535.7845
 Red. masses --      1.0530                 1.0532                 1.0439
 Frc consts  --      1.4546                 1.4591                 1.4507
 IR Inten    --      3.2772                 9.0235                 3.8358

                     52                     53                     54
                      A                      A                      A
 Frequencies --   1540.8825              1546.1069              2247.6456
 Red. masses --      1.0620                 1.0506                13.8390
 Frc consts  --      1.4856                 1.4797                41.1919
 IR Inten    --      2.2276                 3.0099               441.3724

                     55                     56                     57
                      A                      A                      A
 Frequencies --   3018.0071              3030.7718              3049.6766
 Red. masses --      1.0790                 1.0698                 1.0378
 Frc consts  --      5.7905                 5.7895                 5.6870
 IR Inten    --      3.1737                20.4942                24.9478

                     58                     59                     60
                      A                      A                      A
 Frequencies --   3052.3769              3055.7280              3060.1022
 Red. masses --      1.0452                 1.0628                 1.0365
 Frc consts  --      5.7373                 5.8471                 5.7189
 IR Inten    --     18.2827                13.6439                19.3808

                     61                     62                     63
                      A                      A                      A
 Frequencies --   3076.3029              3084.2768              3092.0885
 Red. masses --      1.0826                 1.0956                 1.1003
 Frc consts  --      6.0365                 6.1408                 6.1984
 IR Inten    --     48.7802                23.6590                13.6924

                     64                     65                     66
                      A                      A                      A
 Frequencies --   3112.8156              3122.0413              3123.0117
 Red. masses --      1.1013                 1.0991                 1.0986
 Frc consts  --      6.2873                 6.3118                 6.3132
 IR Inten    --     38.5255                26.3329                44.6260

                     67                     68                     69
                      A                      A                      A
 Frequencies --   3129.7929              3133.5559              3144.9653
 Red. masses --      1.0996                 1.1018                 1.1020
 Frc consts  --      6.3464                 6.3743                 6.4218
 IR Inten    --     34.3198                38.9182                23.5458

 - Thermochemistry -
 -------------------
 Temperature   298.150 Kelvin.  Pressure   1.00000 Atm.
 Atom     1 has atomic number  6 and mass  12.00000

 Molecular mass:   141.12660 amu.
 Principal axes and moments of inertia in atomic units:
                           1         2         3
     Eigenvalues --  1078.135871901.352682379.13188
           X            0.99810   0.06063  -0.01077
           Y           -0.06029   0.99775   0.02929
           Z            0.01252  -0.02859   0.99951
 This molecule is an asymmetric top.
 Rotational symmetry number  1.
 Warning -- assumption of classical behavior for rotation
           may cause significant error
 Rotational temperatures (Kelvin)      0.08034     0.04555     0.03641
 Rotational constants (GHZ):           1.67395     0.94919     0.75857
 Zero-point vibrational energy     585241.3 (Joules/Mol)
                                  139.87604 (Kcal/Mol)
 Warning -- explicit consideration of  17 degrees of freedom as
           vibrations may cause significant error
 Vibrational temperatures:     86.01    96.37   114.29   175.32   229.97
          (Kelvin)            282.97   284.47   335.18   356.97   404.25
                              480.14   506.82   580.64   606.81   677.30
                              819.12   834.43  1017.55  1120.98  1151.35
                             1197.89  1243.66  1313.69  1356.72  1422.55
                             1452.80  1510.10  1524.92  1563.59  1619.66
                             1681.93  1714.98  1724.26  1848.36  1886.37
                             1904.61  1912.15  1963.81  1995.15  2014.05
                             2027.98  2043.91  2074.24  2080.41  2087.48
                             2176.93  2188.47  2196.16  2203.09  2206.28
                             2209.65  2216.99  2224.50  3233.86  4342.24
                             4360.60  4387.80  4391.69  4396.51  4402.80
                             4426.11  4437.59  4448.83  4478.65  4491.92
                             4493.32  4503.07  4508.49  4524.90

 Zero-point correction=                           0.222907 (Hartree/Particle)
 Thermal correction to Energy=                    0.234822
 Thermal correction to Enthalpy=                  0.235767
 Thermal correction to Gibbs Free Energy=         0.185123
 Sum of electronic and zero-point Energies=           -439.794781
 Sum of electronic and thermal Energies=              -439.782866
 Sum of electronic and thermal Enthalpies=            -439.781921
 Sum of electronic and thermal Free Energies=         -439.832565

                     E (Thermal)             CV                S
                      KCal/Mol        Cal/Mol-Kelvin    Cal/Mol-Kelvin
 Total                  147.353             42.935            106.588
 Electronic               0.000              0.000              0.000
 Translational            0.889              2.981             40.745
 Rotational               0.889              2.981             29.968
 Vibrational            145.576             36.973             35.875
 Vibration     1          0.597              1.973              4.464
 Vibration     2          0.598              1.970              4.240
 Vibration     3          0.600              1.963              3.905
 Vibration     4          0.609              1.931              3.071
 Vibration     5          0.622              1.892              2.552
 Vibration     6          0.636              1.845              2.164
 Vibration     7          0.637              1.843              2.154
 Vibration     8          0.654              1.791              1.856
 Vibration     9          0.662              1.766              1.744
 Vibration    10          0.681              1.709              1.528
 Vibration    11          0.715              1.608              1.242
 Vibration    12          0.729              1.571              1.156
 Vibration    13          0.769              1.462              0.950
 Vibration    14          0.784              1.423              0.886
 Vibration    15          0.828              1.315              0.735
 Vibration    16          0.925              1.098              0.506
 Vibration    17          0.937              1.075              0.485

                           ! Non-Optimized Parameters !

 1\1\GINC-NODE375\Freq\RB3LYP\6-31G(d)\C7H15N3\VSC10255\08-Dec-2020\0\\
 #N Geom=AllCheck Guess=TCheck SCRF=Check GenChk RB3LYP/6-31G(d) Freq\\
 CID_20596966_JID_515_neutraal\\0,1\C,0.9152155812,0.0559545924,-0.0450
 809978\C,0.5220180961,-1.2879547476,-0.6665353677\C,0.9519088273,-2.51
 41203923,0.1614767908\C,0.3861192027,-2.4602621336,1.5884903426\C,0.53
 06474434,-3.8282008461,-0.5331731736\C,0.9430334237,-3.9757582861,-2.0
 097635083\C,2.4427480096,-3.8383051199,-2.288757002\N,0.9712428404,-5.
 0374427512,0.2308685767\N,2.127496328,-5.0429624527,0.6550243034\N,3.1

 Normal termination of Gaussian 16 at Tue Dec  8 12:23:20 2020.

 ----------------------------------------------------------------------
 # B3LYP/6-311++G(d,p) empiricaldispersion=gd3bj scf=xqc pop=npa geom=c
 heck
 ----------------------------------------------------------------------

 -------------------------------------
 CID_20596966_JID_515_Energie_neutraal
 -------------------------------------
 Structure from the checkpoint file:  "JID_515.chk"
 Charge =  0 Multiplicity = 1

 SCF Done:  E(RB3LYP) =  -440.140814484     A.U. after   14 cycles
 Normal termination of Gaussian 16 at Tue Dec  8 12:26:00 2020.

 ----------------------------------------------------------------------
 # B3LYP/6-311++G(d,p) empiricaldispersion=gd3bj scf=xqc pop=npa geom=c
 heck
 ----------------------------------------------------------------------

 -----------------------------------
 CID_20596966_JID_515_Energie_kation
 -----------------------------------
 Structure from the checkpoint file:  "JID_515.chk"
 Charge =  1 Multiplicity = 2

 SCF Done:  E(UB3LYP) =  -439.803207878     A.U. after   23 cycles
 Normal termination of Gaussian 16 at Tue Dec  8 12:32:57 2020.
 Gaussian 16:  ES64L-G16RevA.03 25-Dec-2016

 ----------------------------------
 CID_20596966_JID_515_Energie_anion
 ----------------------------------
 Structure from the checkpoint file:  "JID_515.chk"
 Charge = -1 Multiplicity = 2

                         Standard orientation:
 ---------------------------------------------------------------------
 Center     Atomic      Atomic             Coordinates (Angstroms)
 Number     Number       Type             X           Y           Z
 ---------------------------------------------------------------------
      1          6           0       -3.178618   -0.011036    0.758264
      2          6           0       -2.023923    0.510013   -0.103181
      3          6           0       -0.754716   -0.361781   -0.048566
      4          6           0       -1.046048   -1.812372   -0.461236
      5          6           0        0.365064    0.232393   -0.931662
      6          6           0        0.694782    1.718603   -0.697955
      7          6           0        1.079302    2.087154    0.738078
      8          7           0        1.624203   -0.574076   -0.865889
      9          7           0        2.002975   -0.933539    0.249538
     10          7           0        2.453637   -1.343122    1.218879
     11          1           0       -3.569065   -0.964845    0.390594
     12          1           0       -4.008165    0.704237    0.764601
     13          1           0       -2.858231   -0.158902    1.796933
     14          1           0       -2.354657    0.594239   -1.148729
     15          1           0       -1.780780    1.526398    0.225046
     16          1           0       -0.399668   -0.366343    0.992717
     17          1           0       -1.496511   -1.843361   -1.461600
     18          1           0       -0.133943   -2.414185   -0.490095
     19          1           0       -1.739281   -2.292399    0.234753
     20          1           0        0.062705    0.122553   -1.978916
     21          1           0        1.517657    1.977338   -1.374012
     22          1           0       -0.165661    2.317788   -1.018513
     23          1           0        1.967117    1.542362    1.074066
     24          1           0        1.307086    3.156073    0.806802
     25          1           0        0.270639    1.876353    1.446195
 ---------------------------------------------------------------------

 SCF Done:  E(UB3LYP) =  -440.126390979     A.U. after   32 cycles

 The electronic state is 2-A.
 Alpha  occ. eigenvalues --  -14.35483 -14.25330 -14.23830 -10.10783 -10.07407
 Alpha  occ. eigenvalues --  -10.06325 -10.06081 -10.05664 -10.05419 -10.05417
 Alpha  occ. eigenvalues --   -1.01810  -0.86043  -0.72166  -0.67066  -0.62862
 Alpha  occ. eigenvalues --   -0.59257  -0.54043  -0.50715  -0.46690  -0.41344
 Alpha  occ. eigenvalues --   -0.39639  -0.39104  -0.36467  -0.34104  -0.33728
 Alpha  occ. eigenvalues --   -0.33204  -0.32140  -0.30806  -0.28525  -0.27998
 Alpha  occ. eigenvalues --   -0.26664  -0.26378  -0.24972  -0.24034  -0.23425
 Alpha  occ. eigenvalues --   -0.22217  -0.21652  -0.17671  -0.13758   0.04842
 Alpha virt. eigenvalues --    0.06592   0.07468   0.08311   0.08730   0.10019
 Alpha virt. eigenvalues --    0.10452   0.10807   0.11311   0.11676   0.12205
 Alpha virt. eigenvalues --    0.13008   0.13626   0.14070   0.14844   0.15244

  Beta  occ. eigenvalues --  -14.35330 -14.25150 -14.23860 -10.10739 -10.07405
  Beta  occ. eigenvalues --  -10.06302 -10.06052 -10.05643 -10.05397 -10.05383
  Beta  occ. eigenvalues --   -1.01524  -0.85907  -0.72114  -0.67015  -0.62805
  Beta  occ. eigenvalues --   -0.59178  -0.53959  -0.50616  -0.46594  -0.41132
  Beta  occ. eigenvalues --   -0.39429  -0.38816  -0.36330  -0.33921  -0.33556
  Beta  occ. eigenvalues --   -0.33083  -0.31973  -0.30753  -0.28480  -0.27958
  Beta  occ. eigenvalues --   -0.26587  -0.26335  -0.24930  -0.23968  -0.23339
  Beta  occ. eigenvalues --   -0.22173  -0.21603  -0.17354  -0.13706
  Beta virt. eigenvalues --    0.07276   0.07899   0.08268   0.09219   0.09418
  Beta virt. eigenvalues --    0.10596   0.10940   0.11209   0.11821   0.12006
  Beta virt. eigenvalues --    0.12584   0.13502   0.14063   0.14389   0.15004

 Mulliken charges and spin densities:
               1          2
     1  C    1.724538  -2.406581
     2  C   -1.705058   1.465947
     3  C    0.065433   0.091608
     4  C    1.031123  -1.711074
     5  C    0.313048  -0.080216
     6  C   -0.261302  -0.258517
     7  C    0.423760  -1.034724
     8  N   -0.433776  -0.175675
     9  N    0.666116   0.144505
    10  N   -0.360690   0.186983
    11  H   -0.190497   0.337562
    12  H   -0.668311   0.818388
    13  H   -0.113788   0.246948
    14  H   -0.319388   0.474214
    15  H    0.116571   0.022591
    16  H    0.282071  -0.140027
    17  H   -0.108323   0.271563
    18  H    0.000642   0.120606
    19  H    0.002340   0.131286
    20  H   -0.409832   0.663706
    21  H   -0.405347   0.597641
    22  H   -0.297699   0.445186
    23  H    0.152894  -0.015535
    24  H   -0.399459   0.543947
    25  H   -0.105064   0.259670
 Sum of Mulliken charges =  -1.00000   1.00000

 Dipole moment (field-independent basis, Debye):
    X=              2.5479    Y=             -2.6010    Z=              1.6174  Tot=              3.9841
 Quadrupole moment (field-independent basis, Debye-Ang):
   XX=           -124.4986   YY=           -106.2006   ZZ=            -97.4780
   XY=              3.7486   XZ=             -0.3353   YZ=              1.1646

 Summary of Natural Population Analysis:

                                       Natural Population
                Natural  -----------------------------------------------
    Atom  No    Charge         Core      Valence    Rydberg      Total
 -----------------------------------------------------------------------
      C    1   -0.28372      0.99967     2.27853    0.00552     3.28372
      C    2   -0.18954      0.99962     2.18081    0.00911     3.18954
      C    3   -0.11989      0.99958     2.11038    0.00993     3.11989
      C    4   -0.28651      0.99965     2.28054    0.00632     3.28651
      C    5   -0.00664      0.99953     1.99243    0.01469     3.00664
      C    6   -0.19496      0.99961     2.18592    0.00944     3.19496
      C    7   -0.29116      0.99966     2.28533    0.00618     3.29116
      N    8   -0.18793      0.99970     2.67341    0.01482     3.68793
      N    9    0.12515      0.99969     2.35939    0.01577     3.37485
      N   10   -0.04962      0.99982     2.53682    0.01298     3.54962
      H   11    0.09666      0.00000     0.40226    0.00107     0.40334
      H   12    0.10202      0.00000     0.39662    0.00136     0.39798
      H   13    0.09373      0.00000     0.40533    0.00094     0.40627
      H   14    0.09650      0.00000     0.40169    0.00182     0.40350
      H   15    0.09915      0.00000     0.39924    0.00161     0.40085
      H   16    0.09445      0.00000     0.40344    0.00211     0.40555
      H   17    0.09874      0.00000     0.40026    0.00100     0.40126
      H   18    0.10291      0.00000     0.39611    0.00098     0.39709
      H   19    0.09907      0.00000     0.40014    0.00079     0.40093
      H   20    0.10155      0.00000     0.39634    0.00211     0.39845
      H   21    0.10266      0.00000     0.39577    0.00157     0.39734
      H   22    0.10080      0.00000     0.39755    0.00165     0.39920
      H   23    0.09842      0.00000     0.40049    0.00109     0.40158
      H   24    0.10173      0.00000     0.39721    0.00106     0.39827
      H   25    0.09644      0.00000     0.40247    0.00109     0.40356
 =======================================================================
   * Total *   -0.00000      9.99651    28.87847    0.12502    39.00000

 Normal termination of Gaussian 16 at Tue Dec  8 12:50:18 2020.
