 Gaussian 16, Revision A.03,

 -----------------------------------------------------------
 # opt freq B3LYP/6-31G(d) empiricaldispersion=gd3bj scf=xqc
 -----------------------------------------------------------

 -----------------------------
 CID_87388093_JID_521_neutraal
 -----------------------------
 Symbolic Z-matrix:
 Charge =  0 Multiplicity = 1

 SCF Done:  E(RB3LYP) =  -406.756224897     A.U. after   14 cycles
 SCF Done:  E(RB3LYP) =  -406.758445545     A.U. after   13 cycles
 SCF Done:  E(RB3LYP) =  -406.758802818     A.U. after   12 cycles
 SCF Done:  E(RB3LYP) =  -406.758851573     A.U. after   11 cycles
 SCF Done:  E(RB3LYP) =  -406.758864141     A.U. after   10 cycles
 SCF Done:  E(RB3LYP) =  -406.758869905     A.U. after    9 cycles
 SCF Done:  E(RB3LYP) =  -406.758870158     A.U. after    8 cycles
 SCF Done:  E(RB3LYP) =  -406.758870229     A.U. after    7 cycles
 Optimization completed.
    -- Stationary point found.

 1\1\GINC-NODE374\FOpt\RB3LYP\6-31G(d)\C9H15N1\VSC10255\08-Dec-2020\0\\
 # opt freq B3LYP/6-31G(d) empiricaldispersion=gd3bj scf=xqc\\CID_87388
 093_JID_521_neutraal\\0,1\C,1.0146347355,0.077561403,0.0030155614\C,0.
 5381494226,-1.2596056319,-0.4859237955\C,-0.186582779,-2.1134488883,0.
 2409420466\C,-0.6934852672,-3.4695055759,-0.1924238851\C,-0.4451167468
 ,-3.7718757812,-1.6734819315\C,-0.1382912315,-4.6013849182,0.755769560
 9\C,-0.7752741506,-5.970714025,0.4319175547\C,1.399877736,-4.702215247
 3,0.6927538117\C,-0.5243560323,-4.2559582018,2.1380591781\N,-0.8366903

 Normal termination of Gaussian 16 at Tue Dec  8 12:17:43 2020.

 --------------------------------------------------------------------
 #N Geom=AllCheck Guess=TCheck SCRF=Check GenChk RB3LYP/6-31G(d) Freq
 --------------------------------------------------------------------

 Structure from the checkpoint file:  "JID_521.chk"
 -----------------------------
 CID_87388093_JID_521_neutraal
 -----------------------------
 Charge =  0 Multiplicity = 1

 SCF Done:  E(RB3LYP) =  -406.758870229     A.U. after    1 cycles

  Exact polarizability: 114.807  -1.930  98.781   5.837  -3.777  76.767
 Approx polarizability: 147.626  -9.770 150.236  12.538 -12.572 113.842

                      1                      2                      3
                      A                      A                      A
 Frequencies --     54.9022                75.4964               129.6542
 Red. masses --      3.2354                 2.3644                 2.3640
 Frc consts  --      0.0057                 0.0079                 0.0234
 IR Inten    --      1.5706                 0.0911                 4.0683

                      4                      5                      6
                      A                      A                      A
 Frequencies --    163.0191               179.8902               208.9096
 Red. masses --      2.8613                 2.4904                 1.4460
 Frc consts  --      0.0448                 0.0475                 0.0372
 IR Inten    --      1.2453                 3.4257                 2.1645

                      7                      8                      9
                      A                      A                      A
 Frequencies --    212.3418               231.5658               260.9750
 Red. masses --      2.2374                 1.1096                 1.0957
 Frc consts  --      0.0594                 0.0351                 0.0440
 IR Inten    --      0.0406                 0.2007                 0.0932

                     10                     11                     12
                      A                      A                      A
 Frequencies --    285.8546               304.3041               329.8747
 Red. masses --      1.5039                 2.5638                 2.2500
 Frc consts  --      0.0724                 0.1399                 0.1443
 IR Inten    --      1.5621                 0.9620                 0.0096

                     13                     14                     15
                      A                      A                      A
 Frequencies --    335.8091               366.4700               420.5582
 Red. masses --      2.2992                 2.6840                 3.1442
 Frc consts  --      0.1528                 0.2124                 0.3277
 IR Inten    --      0.2867                 0.2936                 1.3950

                     16                     17                     18
                      A                      A                      A
 Frequencies --    451.0419               570.0137               597.7943
 Red. masses --      3.3102                 4.7451                 4.9240
 Frc consts  --      0.3968                 0.9084                 1.0367
 IR Inten    --      0.3660                 0.2170                 0.2297

                     19                     20                     21
                      A                      A                      A
 Frequencies --    633.4113               691.8748               812.9085
 Red. masses --      2.6306                 3.1436                 1.7495
 Frc consts  --      0.6218                 0.8866                 0.6812
 IR Inten    --      0.3472                 1.2580                 0.3586

                     22                     23                     24
                      A                      A                      A
 Frequencies --    848.3920               897.6416               948.0406
 Red. masses --      2.1101                 2.0657                 1.9836
 Frc consts  --      0.8948                 0.9807                 1.0504
 IR Inten    --      0.5856                 1.4171                 0.7640

                     25                     26                     27
                      A                      A                      A
 Frequencies --    963.2814               980.5041              1026.1822
 Red. masses --      1.5506                 1.7746                 1.0745
 Frc consts  --      0.8477                 1.0052                 0.6667
 IR Inten    --      0.4699                 8.9678                27.8741

                     28                     29                     30
                      A                      A                      A
 Frequencies --   1035.2723              1067.3329              1074.7589
 Red. masses --      1.3232                 1.4553                 1.7903
 Frc consts  --      0.8356                 0.9768                 1.2184
 IR Inten    --      3.0812                 4.8490                 3.7277

                     31                     32                     33
                      A                      A                      A
 Frequencies --   1080.6480              1143.3710              1166.3174
 Red. masses --      1.5243                 1.9216                 2.3357
 Frc consts  --      1.0488                 1.4801                 1.8720
 IR Inten    --      0.4207                 0.9758                 9.7178

                     34                     35                     36
                      A                      A                      A
 Frequencies --   1176.9547              1229.9280              1255.3003
 Red. masses --      2.8081                 2.3976                 2.4045
 Frc consts  --      2.2918                 2.1369                 2.2324
 IR Inten    --      6.4361                 6.0146                10.1834

                     37                     38                     39
                      A                      A                      A
 Frequencies --   1341.3179              1345.7544              1364.8340
 Red. masses --      1.4484                 1.2751                 1.3210
 Frc consts  --      1.5353                 1.3606                 1.4498
 IR Inten    --      2.0263                 1.3800                 0.9662

                     40                     41                     42
                      A                      A                      A
 Frequencies --   1385.9534              1426.5727              1437.4053
 Red. masses --      1.4103                 1.2062                 1.2536
 Frc consts  --      1.5961                 1.4464                 1.5261
 IR Inten    --      4.6276                 4.3366                 4.0242

                     43                     44                     45
                      A                      A                      A
 Frequencies --   1444.0427              1452.3535              1510.3959
 Red. masses --      1.2676                 1.2088                 1.0453
 Frc consts  --      1.5574                 1.5023                 1.4050
 IR Inten    --      3.9121                 5.4893                 6.2532

                     46                     47                     48
                      A                      A                      A
 Frequencies --   1514.7384              1515.7703              1522.1413
 Red. masses --      1.0451                 1.0472                 1.0526
 Frc consts  --      1.4128                 1.4176                 1.4369
 IR Inten    --      0.2510                 6.3097                 8.7471

                     49                     50                     51
                      A                      A                      A
 Frequencies --   1528.6572              1536.8922              1541.4802
 Red. masses --      1.0507                 1.0482                 1.0484
 Frc consts  --      1.4465                 1.4588                 1.4677
 IR Inten    --      5.2702                 8.3999                 4.6352

                     52                     53                     54
                      A                      A                      A
 Frequencies --   1544.3868              1757.8078              2355.8260
 Red. masses --      1.0475                 5.6832                12.6967
 Frc consts  --      1.4721                10.3463                41.5170
 IR Inten    --      3.0700                 2.4293                 9.6089

                     55                     56                     57
                      A                      A                      A
 Frequencies --   3009.2610              3033.2109              3063.8826
 Red. masses --      1.0829                 1.0376                 1.0345
 Frc consts  --      5.7776                 5.6246                 5.7216
 IR Inten    --     21.1704                37.7057                13.4724

                     58                     59                     60
                      A                      A                      A
 Frequencies --   3066.0557              3072.0191              3079.4473
 Red. masses --      1.0360                 1.0354                 1.1001
 Frc consts  --      5.7380                 5.7573                 6.1464
 IR Inten    --      9.0320                18.7373                23.8885

                     61                     62                     63
                      A                      A                      A
 Frequencies --   3121.0315              3130.3711              3135.7872
 Red. masses --      1.0996                 1.1021                 1.1033
 Frc consts  --      6.3105                 6.3629                 6.3918
 IR Inten    --     12.5613                23.8577                16.8624

                     64                     65                     66
                      A                      A                      A
 Frequencies --   3137.0059              3141.7130              3148.8743
 Red. masses --      1.1031                 1.1024                 1.1010
 Frc consts  --      6.3958                 6.4110                 6.4322
 IR Inten    --     17.9617                29.3362                18.2296

                     67                     68                     69
                      A                      A                      A
 Frequencies --   3151.2716              3154.7370              3165.4059
 Red. masses --      1.0898                 1.1030                 1.0872
 Frc consts  --      6.3765                 6.4678                 6.4185
 IR Inten    --      7.7945                13.7991                29.9416

 - Thermochemistry -
 -------------------
 Temperature   298.150 Kelvin.  Pressure   1.00000 Atm.
 Atom     1 has atomic number  6 and mass  12.00000

 Molecular mass:   137.12045 amu.
 Principal axes and moments of inertia in atomic units:
                           1         2         3
     Eigenvalues --  1010.676072018.380202516.47273
           X            0.99867   0.05148  -0.00087
           Y           -0.05146   0.99846   0.02092
           Z            0.00195  -0.02085   0.99978
 This molecule is an asymmetric top.
 Rotational symmetry number  1.
 Warning -- assumption of classical behavior for rotation
           may cause significant error
 Rotational temperatures (Kelvin)      0.08570     0.04291     0.03442
 Rotational constants (GHZ):           1.78568     0.89415     0.71717
 Zero-point vibrational energy     582264.4 (Joules/Mol)
                                  139.16452 (Kcal/Mol)
 Warning -- explicit consideration of  18 degrees of freedom as
           vibrations may cause significant error
 Vibrational temperatures:     78.99   108.62   186.54   234.55   258.82
          (Kelvin)            300.57   305.51   333.17   375.48   411.28
                              437.83   474.62   483.15   527.27   605.09
                              648.95   820.12   860.09   911.34   995.45
                             1169.59  1220.65  1291.51  1364.02  1385.95
                             1410.73  1476.45  1489.53  1535.65  1546.34
                             1554.81  1645.06  1678.07  1693.38  1769.59
                             1806.10  1929.86  1936.24  1963.69  1994.08
                             2052.52  2068.11  2077.66  2089.61  2173.12
                             2179.37  2180.86  2190.02  2199.40  2211.25
                             2217.85  2222.03  2529.09  3389.51  4329.66
                             4364.11  4408.24  4411.37  4419.95  4430.64
                             4490.47  4503.91  4511.70  4513.45  4520.22
                             4530.53  4533.98  4538.96  4554.31

 Zero-point correction=                           0.221773 (Hartree/Particle)
 Thermal correction to Energy=                    0.233940
 Thermal correction to Enthalpy=                  0.234885
 Thermal correction to Gibbs Free Energy=         0.184428
 Sum of electronic and zero-point Energies=           -406.537097
 Sum of electronic and thermal Energies=              -406.524930
 Sum of electronic and thermal Enthalpies=            -406.523986
 Sum of electronic and thermal Free Energies=         -406.574443

                     E (Thermal)             CV                S
                      KCal/Mol        Cal/Mol-Kelvin    Cal/Mol-Kelvin
 Total                  146.800             44.665            106.196
 Electronic               0.000              0.000              0.000
 Translational            0.889              2.981             40.659
 Rotational               0.889              2.981             30.019
 Vibrational            145.022             38.703             35.518
 Vibration     1          0.596              1.976              4.633
 Vibration     2          0.599              1.965              4.005
 Vibration     3          0.612              1.924              2.951
 Vibration     4          0.623              1.888              2.514
 Vibration     5          0.629              1.867              2.330
 Vibration     6          0.642              1.827              2.053
 Vibration     7          0.643              1.822              2.023
 Vibration     8          0.653              1.793              1.867
 Vibration     9          0.669              1.744              1.655
 Vibration    10          0.684              1.700              1.498
 Vibration    11          0.695              1.666              1.393
 Vibration    12          0.713              1.616              1.261
 Vibration    13          0.717              1.604              1.232
 Vibration    14          0.739              1.541              1.095
 Vibration    15          0.783              1.426              0.890
 Vibration    16          0.810              1.359              0.793
 Vibration    17          0.926              1.096              0.504
 Vibration    18          0.956              1.036              0.453

 Optimization completed.
    -- Stationary point found.

 1\1\GINC-NODE374\Freq\RB3LYP\6-31G(d)\C9H15N1\VSC10255\08-Dec-2020\0\\
 #N Geom=AllCheck Guess=TCheck SCRF=Check GenChk RB3LYP/6-31G(d) Freq\\
 CID_87388093_JID_521_neutraal\\0,1\C,1.0146347355,0.077561403,0.003015
 5614\C,0.5381494226,-1.2596056319,-0.4859237955\C,-0.186582779,-2.1134
 488883,0.2409420466\C,-0.6934852672,-3.4695055759,-0.1924238851\C,-0.4
 451167468,-3.7718757812,-1.6734819315\C,-0.1382912315,-4.6013849182,0.
 7557695609\C,-0.7752741506,-5.970714025,0.4319175547\C,1.399877736,-4.
 7022152473,0.6927538117\C,-0.5243560323,-4.2559582018,2.1380591781\N,-

 Normal termination of Gaussian 16 at Tue Dec  8 12:23:47 2020.

 ----------------------------------------------------------------------
 # B3LYP/6-311++G(d,p) empiricaldispersion=gd3bj scf=xqc pop=npa geom=c
 heck
 ----------------------------------------------------------------------

 -------------------------------------
 CID_87388093_JID_521_Energie_neutraal
 -------------------------------------
 Structure from the checkpoint file:  "JID_521.chk"
 Charge =  0 Multiplicity = 1

 SCF Done:  E(RB3LYP) =  -406.873487885     A.U. after   14 cycles
 Normal termination of Gaussian 16 at Tue Dec  8 12:27:10 2020.

 ----------------------------------------------------------------------
 # B3LYP/6-311++G(d,p) empiricaldispersion=gd3bj scf=xqc pop=npa geom=c
 heck
 ----------------------------------------------------------------------

 -----------------------------------
 CID_87388093_JID_521_Energie_kation
 -----------------------------------
 Structure from the checkpoint file:  "JID_521.chk"
 Charge =  1 Multiplicity = 2

 SCF Done:  E(UB3LYP) =  -406.537583048     A.U. after   20 cycles
 Normal termination of Gaussian 16 at Tue Dec  8 12:40:05 2020.
 Gaussian 16:  ES64L-G16RevA.03 25-Dec-2016

 ----------------------------------
 CID_87388093_JID_521_Energie_anion
 ----------------------------------
 Structure from the checkpoint file:  "JID_521.chk"
 Charge = -1 Multiplicity = 2

                         Standard orientation:
 ---------------------------------------------------------------------
 Center     Atomic      Atomic             Coordinates (Angstroms)
 Number     Number       Type             X           Y           Z
 ---------------------------------------------------------------------
      1          6           0        3.578140    0.694437    0.217594
      2          6           0        2.378969   -0.188314    0.025616
      3          6           0        1.205976    0.228191   -0.457324
      4          6           0       -0.034265   -0.608055   -0.672126
      5          6           0        0.187122   -2.104963   -0.433589
      6          6           0       -1.243836   -0.036359    0.163676
      7          6           0       -2.558580   -0.775265   -0.169722
      8          6           0       -0.972554   -0.092319    1.681363
      9          6           0       -1.426544    1.376455   -0.223190
     10          7           0       -1.576858    2.484850   -0.534794
     11          1           0        3.367247    1.727108   -0.078586
     12          1           0        4.432777    0.337670   -0.372706
     13          1           0        3.902396    0.699916    1.266812
     14          1           0        2.510534   -1.233469    0.303030
     15          1           0        1.101125    1.279402   -0.726996
     16          1           0       -0.329796   -0.482361   -1.724864
     17          1           0       -0.702398   -2.688036   -0.684903
     18          1           0        1.005332   -2.461424   -1.066621
     19          1           0        0.454137   -2.321753    0.605497
     20          1           0       -2.520294   -1.802985    0.201125
     21          1           0       -3.408484   -0.275926    0.304814
     22          1           0       -2.734621   -0.798330   -1.249948
     23          1           0       -1.787977    0.382829    2.234625
     24          1           0       -0.901435   -1.133923    2.008315
     25          1           0       -0.037099    0.414477    1.930170
 ---------------------------------------------------------------------

 SCF Done:  E(UB3LYP) =  -406.860373764     A.U. after   30 cycles

 The electronic state is 2-A.
 Alpha  occ. eigenvalues --  -14.21121 -10.12818 -10.10882 -10.09224 -10.07357
 Alpha  occ. eigenvalues --  -10.07193 -10.06995 -10.06901 -10.06766 -10.05744
 Alpha  occ. eigenvalues --   -0.81172  -0.74939  -0.69636  -0.64884  -0.60292
 Alpha  occ. eigenvalues --   -0.58567  -0.55691  -0.50036  -0.44255  -0.40397
 Alpha  occ. eigenvalues --   -0.37836  -0.36525  -0.33986  -0.32877  -0.31554
 Alpha  occ. eigenvalues --   -0.30740  -0.30025  -0.29483  -0.28753  -0.27735
 Alpha  occ. eigenvalues --   -0.26578  -0.26055  -0.25583  -0.24683  -0.24044
 Alpha  occ. eigenvalues --   -0.22414  -0.21757  -0.15220   0.04486
 Alpha virt. eigenvalues --    0.06712   0.07831   0.08158   0.09277   0.09574
 Alpha virt. eigenvalues --    0.10013   0.10433   0.11130   0.11341   0.12310
 Alpha virt. eigenvalues --    0.12477   0.12706   0.12984   0.13375   0.13929

  Beta  occ. eigenvalues --  -14.21105 -10.12816 -10.10882 -10.09214 -10.07315
  Beta  occ. eigenvalues --  -10.07177 -10.06956 -10.06872 -10.06765 -10.05694
  Beta  occ. eigenvalues --   -0.81150  -0.74911  -0.69608  -0.64838  -0.60224
  Beta  occ. eigenvalues --   -0.58502  -0.55625  -0.49973  -0.44203  -0.40359
  Beta  occ. eigenvalues --   -0.37788  -0.36482  -0.33952  -0.32830  -0.31519
  Beta  occ. eigenvalues --   -0.30690  -0.29978  -0.29436  -0.28713  -0.27693
  Beta  occ. eigenvalues --   -0.26537  -0.26016  -0.25538  -0.24644  -0.24008
  Beta  occ. eigenvalues --   -0.22388  -0.21715  -0.15203
  Beta virt. eigenvalues --    0.06879   0.07608   0.08697   0.08905   0.09769
  Beta virt. eigenvalues --    0.10086   0.10419   0.10830   0.11553   0.11983
  Beta virt. eigenvalues --    0.12599   0.12816   0.12870   0.13304   0.13625

 Mulliken charges and spin densities:
               1          2
     1  C    1.291565  -2.040180
     2  C   -1.361583   1.264591
     3  C   -0.058930  -0.047887
     4  C   -0.746869   0.867928
     5  C    1.937824  -2.601493
     6  C   -0.581345   1.924086
     7  C    1.456607  -2.033104
     8  C    0.515077  -1.247124
     9  C   -0.253444  -0.462352
    10  N   -0.292878   0.011668
    11  H   -0.135434   0.266258
    12  H   -0.171693   0.312759
    13  H   -0.227345   0.377844
    14  H   -0.472021   0.627126
    15  H    0.242477  -0.070818
    16  H   -0.097277   0.316770
    17  H   -0.593806   0.748497
    18  H   -0.204996   0.358779
    19  H   -0.191296   0.363182
    20  H   -0.416301   0.582711
    21  H   -0.087438   0.243500
    22  H   -0.150350   0.311391
    23  H   -0.073343   0.240457
    24  H   -0.461312   0.629759
    25  H    0.134111   0.055654
 Sum of Mulliken charges =  -1.00000   1.00000

 Dipole moment (field-independent basis, Debye):
    X=              0.0243    Y=              3.3509    Z=             -0.6912  Tot=              3.4215
 Quadrupole moment (field-independent basis, Debye-Ang):
   XX=           -120.2602   YY=           -118.4364   ZZ=            -97.7263
   XY=              0.0306   XZ=             -2.0007   YZ=              1.9957

 Summary of Natural Population Analysis:

                                       Natural Population
                Natural  -----------------------------------------------
    Atom  No    Charge         Core      Valence    Rydberg      Total
 -----------------------------------------------------------------------
      C    1   -0.29602      0.99965     2.29147    0.00490     3.29602
      C    2   -0.08473      0.99951     2.07639    0.00884     3.08473
      C    3   -0.09969      0.99950     2.08897    0.01122     3.09969
      C    4   -0.11361      0.99956     2.10096    0.01309     3.11361
      C    5   -0.29214      0.99965     2.28489    0.00760     3.29214
      C    6   -0.08637      0.99948     2.07333    0.01356     3.08637
      C    7   -0.27671      0.99963     2.26928    0.00779     3.27671
      C    8   -0.28004      0.99963     2.27271    0.00770     3.28004
      C    9    0.17225      0.99962     1.80665    0.02148     2.82775
      N   10   -0.19113      0.99979     2.67972    0.01163     3.69113
      H   11    0.09841      0.00000     0.40054    0.00105     0.40159
      H   12    0.10156      0.00000     0.39701    0.00143     0.39844
      H   13    0.10283      0.00000     0.39563    0.00154     0.39717
      H   14    0.09536      0.00000     0.40285    0.00179     0.40464
      H   15    0.09670      0.00000     0.40135    0.00195     0.40330
      H   16    0.10304      0.00000     0.39463    0.00234     0.39696
      H   17    0.10603      0.00000     0.39199    0.00198     0.39397
      H   18    0.10708      0.00000     0.39144    0.00148     0.39292
      H   19    0.10186      0.00000     0.39604    0.00209     0.39814
      H   20    0.10871      0.00000     0.38948    0.00182     0.39129
      H   21    0.10394      0.00000     0.39474    0.00132     0.39606
      H   22    0.10352      0.00000     0.39486    0.00162     0.39648
      H   23    0.10315      0.00000     0.39562    0.00123     0.39685
      H   24    0.10728      0.00000     0.39126    0.00146     0.39272
      H   25    0.10874      0.00000     0.38961    0.00165     0.39126
 =======================================================================
   * Total *   -0.00000      9.99602    27.87141    0.13257    38.00000

 Normal termination of Gaussian 16 at Tue Dec  8 12:50:13 2020.
