 Gaussian 16, Revision A.03,

 -----------------------------------------------------------
 # opt freq B3LYP/6-31G(d) empiricaldispersion=gd3bj scf=xqc
 -----------------------------------------------------------

 -------------------------------
 CID_105294032_JID_4605_neutraal
 -------------------------------
 Symbolic Z-matrix:
 Charge =  0 Multiplicity = 1

 SCF Done:  E(RB3LYP) =  -583.669169249     A.U. after   12 cycles
 SCF Done:  E(RB3LYP) =  -583.676456603     A.U. after   11 cycles
 SCF Done:  E(RB3LYP) =  -583.677417126     A.U. after   11 cycles
 SCF Done:  E(RB3LYP) =  -583.677014882     A.U. after   10 cycles
 SCF Done:  E(RB3LYP) =  -583.677692406     A.U. after   10 cycles
 SCF Done:  E(RB3LYP) =  -583.677722596     A.U. after    9 cycles
 SCF Done:  E(RB3LYP) =  -583.677770188     A.U. after   10 cycles
 SCF Done:  E(RB3LYP) =  -583.677807656     A.U. after   10 cycles
 SCF Done:  E(RB3LYP) =  -583.677822660     A.U. after    9 cycles
 SCF Done:  E(RB3LYP) =  -583.677829674     A.U. after    8 cycles
 SCF Done:  E(RB3LYP) =  -583.677830649     A.U. after    7 cycles
 SCF Done:  E(RB3LYP) =  -583.677830794     A.U. after    6 cycles
 SCF Done:  E(RB3LYP) =  -583.677830834     A.U. after    6 cycles
 SCF Done:  E(RB3LYP) =  -583.677830857     A.U. after    6 cycles
 Optimization completed.
    -- Stationary point found.
 Normal termination of Gaussian 16 at Thu Dec 10 10:17:01 2020.

 --------------------------------------------------------------------
 #N Geom=AllCheck Guess=TCheck SCRF=Check GenChk RB3LYP/6-31G(d) Freq
 --------------------------------------------------------------------

 Structure from the checkpoint file:  "JID_4605.chk"
 -------------------------------
 CID_105294032_JID_4605_neutraal
 -------------------------------
 Charge =  0 Multiplicity = 1

 SCF Done:  E(RB3LYP) =  -583.677830857     A.U. after    1 cycles

  Exact polarizability: 158.579  -1.899 142.174  -1.219  -0.894 124.606
 Approx polarizability: 189.855  -3.161 193.097  -0.865  -2.405 191.782

                      1                      2                      3
                      A                      A                      A
 Frequencies --     28.6870                41.2474                50.5292
 Red. masses --      3.1865                 3.3014                 3.0708
 Frc consts  --      0.0015                 0.0033                 0.0046
 IR Inten    --      0.0028                 0.0021                 0.0078

                      4                      5                      6
                      A                      A                      A
 Frequencies --     56.5385                70.3782                98.3048
 Red. masses --      2.9101                 3.2737                 1.8363
 Frc consts  --      0.0055                 0.0096                 0.0105
 IR Inten    --      0.0140                 0.8569                 0.3598

                      7                      8                      9
                      A                      A                      A
 Frequencies --    104.6618               117.2859               133.6023
 Red. masses --      2.3516                 1.2577                 2.2654
 Frc consts  --      0.0152                 0.0102                 0.0238
 IR Inten    --      0.9953                37.3328                15.6367

                     10                     11                     12
                      A                      A                      A
 Frequencies --    167.5807               185.7158               205.3186
 Red. masses --      1.8945                 2.3254                 2.1117
 Frc consts  --      0.0313                 0.0473                 0.0524
 IR Inten    --      0.2757                 1.4410                 0.4371

                     13                     14                     15
                      A                      A                      A
 Frequencies --    231.8617               252.6608               259.1040
 Red. masses --      1.3689                 1.8291                 1.5669
 Frc consts  --      0.0434                 0.0688                 0.0620
 IR Inten    --      0.1492                 0.2847                 0.1125

                     16                     17                     18
                      A                      A                      A
 Frequencies --    284.5824               307.4882               315.1577
 Red. masses --      1.8599                 1.7650                 2.0324
 Frc consts  --      0.0887                 0.0983                 0.1189
 IR Inten    --      2.5641                 0.4380                 0.5299

                     19                     20                     21
                      A                      A                      A
 Frequencies --    347.0527               366.0443               390.1894
 Red. masses --      2.3746                 2.1267                 2.0622
 Frc consts  --      0.1685                 0.1679                 0.1850
 IR Inten    --      0.0902                 0.4868                 0.3700

                     22                     23                     24
                      A                      A                      A
 Frequencies --    414.6204               452.9586               461.3743
 Red. masses --      1.9891                 2.3022                 2.4863
 Frc consts  --      0.2015                 0.2783                 0.3118
 IR Inten    --      0.3924                 1.1130                 1.0842

                     25                     26                     27
                      A                      A                      A
 Frequencies --    493.6390               553.3462               594.6585
 Red. masses --      2.4531                 2.4564                 2.3331
 Frc consts  --      0.3522                 0.4431                 0.4861
 IR Inten    --      1.9045                 0.0981                 5.3776

                     28                     29                     30
                      A                      A                      A
 Frequencies --    721.4308               754.8299               762.3808
 Red. masses --      1.2992                 1.6835                 1.6693
 Frc consts  --      0.3984                 0.5651                 0.5717
 IR Inten    --     16.3904                 1.3069                 0.3916

                     31                     32                     33
                      A                      A                      A
 Frequencies --    816.7079               829.4221               833.7865
 Red. masses --      1.7965                 1.8367                 1.8011
 Frc consts  --      0.7060                 0.7445                 0.7377
 IR Inten    --      9.8924                 2.6061                 1.5495

                     34                     35                     36
                      A                      A                      A
 Frequencies --    864.3823               875.9798               904.6725
 Red. masses --      2.0035                 1.6312                 2.0768
 Frc consts  --      0.8820                 0.7375                 1.0015
 IR Inten    --      8.2696                 5.6880                33.4736

                     37                     38                     39
                      A                      A                      A
 Frequencies --    921.7732               943.0388               961.5041
 Red. masses --      1.7499                 1.8467                 1.8265
 Frc consts  --      0.8760                 0.9676                 0.9949
 IR Inten    --      5.0565                13.8939                 3.0865

                     40                     41                     42
                      A                      A                      A
 Frequencies --    990.2821               996.7038              1012.9158
 Red. masses --      1.4649                 1.4315                 1.8103
 Frc consts  --      0.8464                 0.8378                 1.0943
 IR Inten    --      6.4024                 6.4406                36.3667

                     43                     44                     45
                      A                      A                      A
 Frequencies --   1033.9647              1037.8574              1053.9610
 Red. masses --      2.1667                 1.6540                 1.4981
 Frc consts  --      1.3648                 1.0497                 0.9805
 IR Inten    --      4.1823                 2.5896                15.3065

                     46                     47                     48
                      A                      A                      A
 Frequencies --   1060.9446              1073.1494              1084.8801
 Red. masses --      1.7598                 1.8658                 1.9991
 Frc consts  --      1.1671                 1.2660                 1.3863
 IR Inten    --      0.9744                10.5339                 3.4878

                     49                     50                     51
                      A                      A                      A
 Frequencies --   1112.9346              1127.4317              1151.8898
 Red. masses --      1.4066                 2.1776                 2.0068
 Frc consts  --      1.0265                 1.6309                 1.5688
 IR Inten    --      0.2603                 0.7858                22.9036

                     52                     53                     54
                      A                      A                      A
 Frequencies --   1157.9390              1184.1308              1193.3090
 Red. masses --      2.0872                 1.9315                 2.0133
 Frc consts  --      1.6489                 1.5956                 1.6891
 IR Inten    --      1.6295                 9.2289                 0.5334

                     55                     56                     57
                      A                      A                      A
 Frequencies --   1211.7492              1226.3052              1227.7562
 Red. masses --      1.3769                 1.3877                 1.4108
 Frc consts  --      1.1911                 1.2295                 1.2529
 IR Inten    --     14.1596                13.7434                 0.9372

                     58                     59                     60
                      A                      A                      A
 Frequencies --   1272.9867              1290.2702              1297.6384
 Red. masses --      1.2918                 1.3361                 1.2135
 Frc consts  --      1.2333                 1.3105                 1.2039
 IR Inten    --      0.4982                 2.6047                 1.3317

                     61                     62                     63
                      A                      A                      A
 Frequencies --   1316.7171              1331.4695              1346.6417
 Red. masses --      1.2046                 1.2653                 1.1726
 Frc consts  --      1.2304                 1.3216                 1.2529
 IR Inten    --      3.4798                 5.0852                 2.8077

                     64                     65                     66
                      A                      A                      A
 Frequencies --   1353.8279              1363.1077              1376.6556
 Red. masses --      1.1875                 1.3116                 1.3010
 Frc consts  --      1.2824                 1.4359                 1.4527
 IR Inten    --      3.6894                12.8020                 2.0985

                     67                     68                     69
                      A                      A                      A
 Frequencies --   1382.6262              1392.8810              1400.1024
 Red. masses --      1.4823                 1.3645                 1.4279
 Frc consts  --      1.6696                 1.5597                 1.6492
 IR Inten    --      1.1764                 8.0387                 0.9290

                     70                     71                     72
                      A                      A                      A
 Frequencies --   1411.0411              1419.2015              1421.8124
 Red. masses --      1.4528                 1.3931                 1.4254
 Frc consts  --      1.7042                 1.6532                 1.6977
 IR Inten    --      0.7891                 2.8198                 2.9758

                     73                     74                     75
                      A                      A                      A
 Frequencies --   1430.8888              1441.3885              1442.9658
 Red. masses --      1.3481                 1.2645                 1.2656
 Frc consts  --      1.6262                 1.5479                 1.5526
 IR Inten    --      1.3008                 1.6525                 8.8512

                     76                     77                     78
                      A                      A                      A
 Frequencies --   1443.5972              1445.1717              1505.6344
 Red. masses --      1.2609                 1.3300                 1.0870
 Frc consts  --      1.5482                 1.6366                 1.4518
 IR Inten    --      4.4474                 4.7642                 2.4561

                     79                     80                     81
                      A                      A                      A
 Frequencies --   1509.3591              1515.8083              1519.7207
 Red. masses --      1.0728                 1.0730                 1.0776
 Frc consts  --      1.4399                 1.4526                 1.4664
 IR Inten    --      0.9322                 0.5037                 1.6517

                     82                     83                     84
                      A                      A                      A
 Frequencies --   1523.6154              1525.3803              1529.7154
 Red. masses --      1.1019                 1.0739                 1.0537
 Frc consts  --      1.5071                 1.4722                 1.4528
 IR Inten    --      6.3503                10.0187                 1.3183

                     85                     86                     87
                      A                      A                      A
 Frequencies --   1532.6104              1533.4251              1538.6150
 Red. masses --      1.0640                 1.0683                 1.0731
 Frc consts  --      1.4726                 1.4800                 1.4968
 IR Inten    --      5.0521                 3.0648                 1.7845

                     88                     89                     90
                      A                      A                      A
 Frequencies --   1540.6855              1541.4829              1544.7205
 Red. masses --      1.0761                 1.0748                 1.0688
 Frc consts  --      1.5049                 1.5047                 1.5026
 IR Inten    --      4.2848                15.6294                 8.7019

                     91                     92                     93
                      A                      A                      A
 Frequencies --   1546.3297              1695.3275              2998.2488
 Red. masses --      1.0704                 1.0582                 1.0818
 Frc consts  --      1.5079                 1.7920                 5.7298
 IR Inten    --      7.5084                34.1789                33.3062

                     94                     95                     96
                      A                      A                      A
 Frequencies --   3013.0066              3024.0537              3026.8219
 Red. masses --      1.0800                 1.0616                 1.0639
 Frc consts  --      5.7765                 5.7197                 5.7428
 IR Inten    --     11.8426                45.8494                17.6420

                     97                     98                     99
                      A                      A                      A
 Frequencies --   3035.8557              3037.1566              3040.9363
 Red. masses --      1.0630                 1.0626                 1.0578
 Frc consts  --      5.7720                 5.7753                 5.7631
 IR Inten    --     28.5911                12.1021                22.5614

                    100                    101                    102
                      A                      A                      A
 Frequencies --   3043.7190              3043.8992              3044.9007
 Red. masses --      1.0395                 1.0396                 1.0428
 Frc consts  --      5.6738                 5.6749                 5.6962
 IR Inten    --     15.5726                33.1978                35.1690

                    103                    104                    105
                      A                      A                      A
 Frequencies --   3048.5698              3054.8084              3057.6528
 Red. masses --      1.0665                 1.0613                 1.0986
 Frc consts  --      5.8396                 5.8353                 6.0518
 IR Inten    --      8.5800                19.7755                25.1915

                    106                    107                    108
                      A                      A                      A
 Frequencies --   3060.5312              3066.5533              3073.6124
 Red. masses --      1.0954                 1.0984                 1.0996
 Frc consts  --      6.0454                 6.0859                 6.1204
 IR Inten    --     12.0982                33.3168                51.4209

                    109                    110                    111
                      A                      A                      A
 Frequencies --   3079.4559              3090.6282              3094.4821
 Red. masses --      1.1018                 1.1015                 1.0967
 Frc consts  --      6.1559                 6.1994                 6.1877
 IR Inten    --    129.3410                28.0838                79.5696

                    112                    113                    114
                      A                      A                      A
 Frequencies --   3101.2763              3106.4391              3108.6947
 Red. masses --      1.1006                 1.1006                 1.1015
 Frc consts  --      6.2368                 6.2574                 6.2720
 IR Inten    --     46.4847                41.8637                49.4025

                    115                    116                    117
                      A                      A                      A
 Frequencies --   3115.5831              3118.3572              3122.1435
 Red. masses --      1.1019                 1.1027                 1.1005
 Frc consts  --      6.3021                 6.3179                 6.3204
 IR Inten    --     50.8130                27.7493                53.3869

                    118                    119                    120
                      A                      A                      A
 Frequencies --   3398.8578              3483.0881              3494.8878
 Red. masses --      1.0507                 1.0841                 1.0802
 Frc consts  --      7.1516                 7.7488                 7.7737
 IR Inten    --      5.2341                 1.0843                 2.8766

 - Thermochemistry -
 -------------------
 Temperature   298.150 Kelvin.  Pressure   1.00000 Atm.
 Atom     1 has atomic number  6 and mass  12.00000

 Molecular mass:   200.22525 amu.
 Principal axes and moments of inertia in atomic units:
                           1         2         3
     Eigenvalues --  2116.941575590.500536844.35981
           X            0.99999   0.00378  -0.00018
           Y           -0.00378   0.99997   0.00646
           Z            0.00021  -0.00646   0.99998
 This molecule is an asymmetric top.
 Rotational symmetry number  1.
 Warning -- assumption of classical behavior for rotation
           may cause significant error
 Rotational temperatures (Kelvin)      0.04091     0.01549     0.01265
 Rotational constants (GHZ):           0.85252     0.32282     0.26368
 Zero-point vibrational energy    1045418.0 (Joules/Mol)
                                  249.86090 (Kcal/Mol)
 Warning -- explicit consideration of  27 degrees of freedom as
           vibrations may cause significant error
 Vibrational temperatures:     41.27    59.35    72.70    81.35   101.26
          (Kelvin)            141.44   150.58   168.75   192.22   241.11
                              267.20   295.41   333.60   363.52   372.79
                              409.45   442.41   453.44   499.33   526.66
                              561.40   596.55   651.71   663.81   710.24
                              796.14   855.58  1037.98  1086.03  1096.90
                             1175.06  1193.35  1199.63  1243.65  1260.34
                             1301.62  1326.23  1356.82  1383.39  1424.80
                             1434.03  1457.36  1487.64  1493.25  1516.41
                             1526.46  1544.02  1560.90  1601.26  1622.12
                             1657.31  1666.02  1703.70  1716.91  1743.44
                             1764.38  1766.47  1831.54  1856.41  1867.01
                             1894.46  1915.69  1937.52  1947.86  1961.21
                             1980.70  1989.29  2004.05  2014.44  2030.17
                             2041.91  2045.67  2058.73  2073.84  2076.11
                             2077.01  2079.28  2166.27  2171.63  2180.91
                             2186.54  2192.14  2194.68  2200.92  2205.08
                             2206.26  2213.72  2216.70  2217.85  2222.51
                             2224.82  2439.20  4313.81  4335.04  4350.94
                             4354.92  4367.92  4369.79  4375.23  4379.23
                             4379.49  4380.93  4386.21  4395.19  4399.28
                             4403.42  4412.09  4422.24  4430.65  4446.72
                             4452.27  4462.04  4469.47  4472.72  4482.63
                             4486.62  4492.07  4890.20  5011.39  5028.36

 Zero-point correction=                           0.398179 (Hartree/Particle)
 Thermal correction to Energy=                    0.416416
 Thermal correction to Enthalpy=                  0.417360
 Thermal correction to Gibbs Free Energy=         0.351039
 Sum of electronic and zero-point Energies=           -583.279652
 Sum of electronic and thermal Energies=              -583.261415
 Sum of electronic and thermal Enthalpies=            -583.260471
 Sum of electronic and thermal Free Energies=         -583.326792

                     E (Thermal)             CV                S
                      KCal/Mol        Cal/Mol-Kelvin    Cal/Mol-Kelvin
 Total                  261.305             66.967            139.584
 Electronic               0.000              0.000              0.000
 Translational            0.889              2.981             41.787
 Rotational               0.889              2.981             32.760
 Vibrational            259.527             61.005             65.036
 Vibration     1          0.593              1.984              5.918
 Vibration     2          0.594              1.981              5.198
 Vibration     3          0.595              1.977              4.797
 Vibration     4          0.596              1.975              4.574
 Vibration     5          0.598              1.968              4.143
 Vibration     6          0.604              1.950              3.488
 Vibration     7          0.605              1.945              3.366
 Vibration     8          0.608              1.935              3.145
 Vibration     9          0.613              1.920              2.894
 Vibration    10          0.624              1.882              2.462
 Vibration    11          0.632              1.859              2.270
 Vibration    12          0.640              1.832              2.085
 Vibration    13          0.653              1.792              1.864
 Vibration    14          0.664              1.758              1.712
 Vibration    15          0.668              1.747              1.668
 Vibration    16          0.683              1.702              1.506
 Vibration    17          0.697              1.659              1.376
 Vibration    18          0.703              1.645              1.335
 Vibration    19          0.725              1.581              1.180
 Vibration    20          0.739              1.542              1.096
 Vibration    21          0.758              1.491              0.999
 Vibration    22          0.778              1.438              0.910
 Vibration    23          0.812              1.354              0.787
 Vibration    24          0.819              1.336              0.762
 Vibration    25          0.849              1.264              0.674
 Vibration    26          0.909              1.132              0.537
 Vibration    27          0.952              1.043              0.459

 Optimization completed.
    -- Stationary point found.
 Normal termination of Gaussian 16 at Thu Dec 10 10:32:17 2020.

 ----------------------------------------------------------------------
 # B3LYP/6-311++G(d,p) empiricaldispersion=gd3bj scf=xqc pop=npa geom=c
 heck
 ----------------------------------------------------------------------

 ---------------------------------------
 CID_105294032_JID_4605_Energie_neutraal
 ---------------------------------------
 Structure from the checkpoint file:  "JID_4605.chk"
 Charge =  0 Multiplicity = 1

 SCF Done:  E(RB3LYP) =  -583.852258071     A.U. after   14 cycles
 Normal termination of Gaussian 16 at Thu Dec 10 10:41:23 2020.

 ----------------------------------------------------------------------
 # B3LYP/6-311++G(d,p) empiricaldispersion=gd3bj scf=xqc pop=npa geom=c
 heck
 ----------------------------------------------------------------------

 -------------------------------------
 CID_105294032_JID_4605_Energie_kation
 -------------------------------------
 Structure from the checkpoint file:  "JID_4605.chk"
 Charge =  1 Multiplicity = 2

 SCF Done:  E(UB3LYP) =  -583.565125076     A.U. after   18 cycles
 Normal termination of Gaussian 16 at Thu Dec 10 10:56:18 2020.
 Gaussian 16:  ES64L-G16RevA.03 25-Dec-2016

 ----------------------------------------------------------------------
 # B3LYP/6-311++G(d,p) empiricaldispersion=gd3bj scf=xqc pop=npa geom=c
 heck
 ----------------------------------------------------------------------

 ------------------------------------
 CID_105294032_JID_4605_Energie_anion
 ------------------------------------
 Structure from the checkpoint file:  "JID_4605.chk"
 Charge = -1 Multiplicity = 2

                         Standard orientation:
 ---------------------------------------------------------------------
 Center     Atomic      Atomic             Coordinates (Angstroms)
 Number     Number       Type             X           Y           Z
 ---------------------------------------------------------------------
      1          6           0        4.958947   -0.995790    0.454112
      2          6           0        4.160877    0.304905    0.324047
      3          6           0        3.146244    0.300989   -0.829473
      4          6           0        2.073926   -0.797414   -0.750010
      5          6           0        1.235696   -0.794313    0.538333
      6          6           0        0.524873    0.531435    0.849853
      7          6           0       -0.425964    1.029080   -0.247671
      8          6           0       -1.538455    0.020160   -0.618596
      9          6           0       -2.361496   -0.621925    0.515107
     10          6           0       -3.137954    0.407370    1.352716
     11          6           0       -3.342500   -1.666886   -0.055627
     12          6           0       -2.684376   -2.864344   -0.747592
     13          7           0       -0.858676    2.386510    0.131993
     14          7           0       -1.808235    2.911043   -0.873395
     15          1           0        4.312861   -1.844782    0.703838
     16          1           0        5.717985   -0.917426    1.240444
     17          1           0        5.473466   -1.237247   -0.484410
     18          1           0        3.644948    0.512384    1.270658
     19          1           0        4.856169    1.140822    0.171936
     20          1           0        2.659215    1.283812   -0.874367
     21          1           0        3.689162    0.188060   -1.778423
     22          1           0        1.410872   -0.700124   -1.619647
     23          1           0        2.548943   -1.781539   -0.851231
     24          1           0        0.498233   -1.604153    0.475788
     25          1           0        1.880046   -1.043814    1.391061
     26          1           0       -0.035282    0.416935    1.787897
     27          1           0        1.261156    1.321936    1.032172
     28          1           0        0.170164    1.173933   -1.161977
     29          1           0       -2.231885    0.519758   -1.305976
     30          1           0       -1.057180   -0.780229   -1.192469
     31          1           0       -1.678166   -1.160814    1.188119
     32          1           0       -3.672144    1.115097    0.708556
     33          1           0       -3.872552   -0.090772    1.996607
     34          1           0       -2.479596    0.981098    2.014262
     35          1           0       -3.964886   -2.037725    0.770067
     36          1           0       -4.029685   -1.167318   -0.753896
     37          1           0       -1.954659   -3.347486   -0.085366
     38          1           0       -3.432656   -3.616447   -1.021655
     39          1           0       -2.160361   -2.576488   -1.664704
     40          1           0       -1.440422    2.288537    0.963257
     41          1           0       -1.813307    3.917044   -0.687225
     42          1           0       -1.290965    2.844466   -1.754690
 ---------------------------------------------------------------------

 SCF Done:  E(UB3LYP) =  -583.837115526     A.U. after   29 cycles

 The electronic state is 2-A.
 Alpha  occ. eigenvalues --  -14.22418 -14.22406 -10.09977 -10.07884 -10.07197
 Alpha  occ. eigenvalues --  -10.06928 -10.06881 -10.06846 -10.06701 -10.06555
 Alpha  occ. eigenvalues --  -10.06552 -10.06524 -10.06328 -10.06119  -0.85926
 Alpha  occ. eigenvalues --   -0.73490  -0.71374  -0.69826  -0.66323  -0.63925
 Alpha  occ. eigenvalues --   -0.61874  -0.60192  -0.56407  -0.53910  -0.52017
 Alpha  occ. eigenvalues --   -0.49201  -0.45930  -0.44543  -0.40770  -0.38831
 Alpha  occ. eigenvalues --   -0.37576  -0.36993  -0.36026  -0.35214  -0.34309
 Alpha  occ. eigenvalues --   -0.33089  -0.32794  -0.32044  -0.31125  -0.30572
 Alpha  occ. eigenvalues --   -0.29825  -0.29359  -0.28146  -0.27517  -0.26495
 Alpha  occ. eigenvalues --   -0.26283  -0.25478  -0.24902  -0.24550  -0.23957
 Alpha  occ. eigenvalues --   -0.22953  -0.22436  -0.22055  -0.21796  -0.21103
 Alpha  occ. eigenvalues --   -0.20366  -0.10965   0.04253
 Alpha virt. eigenvalues --    0.05983   0.06111   0.06776   0.07839   0.08100
 Alpha virt. eigenvalues --    0.08418   0.09026   0.09103   0.10032   0.10395
 Alpha virt. eigenvalues --    0.10763   0.11145   0.11515   0.11698   0.12229

  Beta  occ. eigenvalues --  -14.22404 -14.22376 -10.09967 -10.07879 -10.07184
  Beta  occ. eigenvalues --  -10.06916 -10.06872 -10.06841 -10.06689 -10.06541
  Beta  occ. eigenvalues --  -10.06526 -10.06510 -10.06298 -10.06107  -0.85889
  Beta  occ. eigenvalues --   -0.73458  -0.71351  -0.69786  -0.66285  -0.63892
  Beta  occ. eigenvalues --   -0.61834  -0.60160  -0.56365  -0.53862  -0.51969
  Beta  occ. eigenvalues --   -0.49158  -0.45888  -0.44501  -0.40743  -0.38802
  Beta  occ. eigenvalues --   -0.37540  -0.36966  -0.35996  -0.35174  -0.34280
  Beta  occ. eigenvalues --   -0.33063  -0.32762  -0.32013  -0.31102  -0.30538
  Beta  occ. eigenvalues --   -0.29799  -0.29332  -0.28120  -0.27485  -0.26463
  Beta  occ. eigenvalues --   -0.26254  -0.25453  -0.24877  -0.24522  -0.23936
  Beta  occ. eigenvalues --   -0.22925  -0.22410  -0.22028  -0.21770  -0.21079
  Beta  occ. eigenvalues --   -0.20340  -0.10940
  Beta virt. eigenvalues --    0.06120   0.06663   0.06910   0.07150   0.08219
  Beta virt. eigenvalues --    0.08466   0.08635   0.09371   0.09471   0.10278
  Beta virt. eigenvalues --    0.10642   0.10940   0.11434   0.11704   0.11973

 Mulliken charges and spin densities:
               1          2
     1  C    1.004443  -1.654840
     2  C   -0.873204   0.691706
     3  C    0.213550  -0.466664
     4  C    0.103037  -0.317851
     5  C   -0.059852  -0.437281
     6  C    0.144325  -0.151442
     7  C   -0.717092  -0.329145
     8  C    0.802656  -0.943833
     9  C   -0.725647   1.288775
    10  C   -0.033501  -0.782790
    11  C   -0.508244   0.184402
    12  C    0.555616  -1.184142
    13  N    0.167381   0.089990
    14  N   -0.439136  -0.092385
    15  H   -0.120337   0.255107
    16  H   -0.217793   0.352929
    17  H   -0.133549   0.269438
    18  H    0.130886  -0.020500
    19  H   -0.241541   0.399236
    20  H   -0.045655   0.204943
    21  H   -0.212850   0.370185
    22  H   -0.255830   0.401618
    23  H   -0.039843   0.211209
    24  H    0.388190  -0.250283
    25  H   -0.204109   0.387658
    26  H    0.122051   0.028615
    27  H    0.111698   0.127250
    28  H   -0.063962   0.327092
    29  H   -0.007191   0.170030
    30  H    0.833698  -0.754437
    31  H   -0.047855   0.204394
    32  H    0.145827   0.044268
    33  H   -0.100612   0.233532
    34  H   -0.010200   0.135338
    35  H   -0.068738   0.196029
    36  H    0.030175   0.097190
    37  H   -0.102901   0.236557
    38  H   -0.245338   0.392976
    39  H   -0.292098   0.444775
    40  H    0.145872   0.026820
    41  H   -0.034151   0.280839
    42  H   -0.098175   0.332690
 Sum of Mulliken charges =  -1.00000   1.00000

 Dipole moment (field-independent basis, Debye):
    X=             -2.3815    Y=              0.4874    Z=              2.2922  Tot=              3.3412
 Quadrupole moment (field-independent basis, Debye-Ang):
   XX=           -185.5177   YY=           -150.0078   ZZ=           -130.2897
   XY=             -0.3029   XZ=             -1.6792   YZ=              3.4624

 Summary of Natural Population Analysis:

                                       Natural Population
                Natural  -----------------------------------------------
    Atom  No    Charge         Core      Valence    Rydberg      Total
 -----------------------------------------------------------------------
      C    1   -0.28575      0.99967     2.28166    0.00442     3.28575
      C    2   -0.19281      0.99964     2.18479    0.00838     3.19281
      C    3   -0.19116      0.99963     2.18281    0.00873     3.19116
      C    4   -0.19282      0.99963     2.18449    0.00871     3.19282
      C    5   -0.19284      0.99962     2.18466    0.00855     3.19284
      C    6   -0.19419      0.99960     2.18630    0.00830     3.19419
      C    7   -0.01252      0.99959     1.99928    0.01365     3.01252
      C    8   -0.20441      0.99959     2.19464    0.01018     3.20441
      C    9   -0.11532      0.99960     2.10583    0.00989     3.11532
      C   10   -0.28600      0.99965     2.28115    0.00521     3.28600
      C   11   -0.18522      0.99962     2.17659    0.00901     3.18522
      C   12   -0.28469      0.99967     2.28075    0.00427     3.28469
      N   13   -0.25990      0.99974     2.74646    0.01371     3.75990
      N   14   -0.33474      0.99979     2.82364    0.01131     3.83474
      H   15    0.09618      0.00000     0.40266    0.00116     0.40382
      H   16    0.09787      0.00000     0.40100    0.00113     0.40213
      H   17    0.09567      0.00000     0.40302    0.00131     0.40433
      H   18    0.09244      0.00000     0.40621    0.00135     0.40756
      H   19    0.09551      0.00000     0.40345    0.00104     0.40449
      H   20    0.09740      0.00000     0.40117    0.00143     0.40260
      H   21    0.09611      0.00000     0.40275    0.00114     0.40389
      H   22    0.09717      0.00000     0.40145    0.00138     0.40283
      H   23    0.09766      0.00000     0.40122    0.00112     0.40234
      H   24    0.09796      0.00000     0.40050    0.00154     0.40204
      H   25    0.09684      0.00000     0.40211    0.00105     0.40316
      H   26    0.09547      0.00000     0.40335    0.00118     0.40453
      H   27    0.10404      0.00000     0.39427    0.00169     0.39596
      H   28    0.09103      0.00000     0.40669    0.00228     0.40897
      H   29    0.10721      0.00000     0.39105    0.00174     0.39279
      H   30    0.10172      0.00000     0.39673    0.00155     0.39828
      H   31    0.09160      0.00000     0.40641    0.00199     0.40840
      H   32    0.10411      0.00000     0.39469    0.00120     0.39589
      H   33    0.09727      0.00000     0.40170    0.00103     0.40273
      H   34    0.09181      0.00000     0.40702    0.00117     0.40819
      H   35    0.09353      0.00000     0.40543    0.00104     0.40647
      H   36    0.09321      0.00000     0.40570    0.00109     0.40679
      H   37    0.09621      0.00000     0.40242    0.00137     0.40379
      H   38    0.09813      0.00000     0.40090    0.00097     0.40187
      H   39    0.09799      0.00000     0.40082    0.00119     0.40201
      H   40    0.16636      0.00000     0.33038    0.00325     0.33364
      H   41    0.17207      0.00000     0.32599    0.00194     0.32793
      H   42    0.16981      0.00000     0.32774    0.00245     0.33019
 =======================================================================
   * Total *    0.00000     13.99502    42.83987    0.16511    57.00000

 Normal termination of Gaussian 16 at Thu Dec 10 11:19:54 2020.
