 Gaussian 16, Revision A.03,

 -----------------------------------------------------------
 # opt freq B3LYP/6-31G(d) empiricaldispersion=gd3bj scf=xqc
 -----------------------------------------------------------

 -------------------------------
 CID_114620874_JID_7237_neutraal
 -------------------------------
 Symbolic Z-matrix:
 Charge =  0 Multiplicity = 1

 SCF Done:  E(RB3LYP) =  -736.584415380     A.U. after   14 cycles
 SCF Done:  E(RB3LYP) =  -736.588271786     A.U. after   12 cycles
 SCF Done:  E(RB3LYP) =  -736.587566028     A.U. after   12 cycles
 SCF Done:  E(RB3LYP) =  -736.588680759     A.U. after   12 cycles
 SCF Done:  E(RB3LYP) =  -736.588855957     A.U. after   11 cycles
 SCF Done:  E(RB3LYP) =  -736.588874533     A.U. after   11 cycles
 SCF Done:  E(RB3LYP) =  -736.588902070     A.U. after   10 cycles
 SCF Done:  E(RB3LYP) =  -736.588903381     A.U. after    9 cycles
 SCF Done:  E(RB3LYP) =  -736.588906512     A.U. after    9 cycles
 SCF Done:  E(RB3LYP) =  -736.588906896     A.U. after    8 cycles
 SCF Done:  E(RB3LYP) =  -736.588907033     A.U. after    7 cycles
 SCF Done:  E(RB3LYP) =  -736.588907098     A.U. after    6 cycles
 Optimization completed.
    -- Stationary point found.
 Normal termination of Gaussian 16 at Sun Dec 13 12:35:41 2020.

 --------------------------------------------------------------------
 #N Geom=AllCheck Guess=TCheck SCRF=Check GenChk RB3LYP/6-31G(d) Freq
 --------------------------------------------------------------------

 Structure from the checkpoint file:  "JID_7237.chk"
 -------------------------------
 CID_114620874_JID_7237_neutraal
 -------------------------------
 Charge =  0 Multiplicity = 1

 SCF Done:  E(RB3LYP) =  -736.588907098     A.U. after    1 cycles

  Exact polarizability: 176.876   5.338 157.597  -6.402  -1.622 129.919
 Approx polarizability: 221.588  11.122 226.047 -12.201  -8.392 214.337

                      1                      2                      3
                      A                      A                      A
 Frequencies --     41.0460                52.7269                62.0858
 Red. masses --      2.1339                 3.7957                 4.7342
 Frc consts  --      0.0021                 0.0062                 0.0108
 IR Inten    --      0.0253                 0.1050                 0.9888

                      4                      5                      6
                      A                      A                      A
 Frequencies --     71.5535                75.5420               144.0067
 Red. masses --      3.1517                 4.1765                 4.4115
 Frc consts  --      0.0095                 0.0140                 0.0539
 IR Inten    --      0.0654                 0.8889                 0.1444

                      7                      8                      9
                      A                      A                      A
 Frequencies --    153.5173               181.2640               200.6927
 Red. masses --      3.2176                 4.0278                 2.6729
 Frc consts  --      0.0447                 0.0780                 0.0634
 IR Inten    --      0.1630                 0.0519                 0.2463

                     10                     11                     12
                      A                      A                      A
 Frequencies --    252.2976               260.7662               271.6081
 Red. masses --      2.5377                 1.4417                 2.4384
 Frc consts  --      0.0952                 0.0578                 0.1060
 IR Inten    --      0.0695                 0.3615                 0.3207

                     13                     14                     15
                      A                      A                      A
 Frequencies --    279.5757               297.6096               316.8350
 Red. masses --      1.8533                 3.5856                 2.8055
 Frc consts  --      0.0853                 0.1871                 0.1659
 IR Inten    --      0.0486                 0.1992                 1.3229

                     16                     17                     18
                      A                      A                      A
 Frequencies --    357.2882               381.3622               399.3649
 Red. masses --      3.0543                 2.2640                 1.8201
 Frc consts  --      0.2297                 0.1940                 0.1710
 IR Inten    --      0.4790                 4.8499                 0.3756

                     19                     20                     21
                      A                      A                      A
 Frequencies --    426.7334               443.1743               463.3451
 Red. masses --      2.3709                 2.6229                 2.1768
 Frc consts  --      0.2544                 0.3035                 0.2753
 IR Inten    --      0.2573                 0.3212                 1.5726

                     22                     23                     24
                      A                      A                      A
 Frequencies --    506.4588               540.9742               553.8363
 Red. masses --      2.8893                 3.9042                 3.5057
 Frc consts  --      0.4367                 0.6732                 0.6336
 IR Inten    --      4.0962                 6.3377                 3.7857

                     25                     26                     27
                      A                      A                      A
 Frequencies --    605.8778               631.1657               680.6487
 Red. masses --      2.2014                 1.5893                 2.4811
 Frc consts  --      0.4761                 0.3730                 0.6772
 IR Inten    --     24.1030                36.8238                28.5940

                     28                     29                     30
                      A                      A                      A
 Frequencies --    696.5965               733.1344               741.1409
 Red. masses --      2.4028                 2.1147                 2.0427
 Frc consts  --      0.6870                 0.6697                 0.6611
 IR Inten    --     29.2257                16.1843                14.0212

                     31                     32                     33
                      A                      A                      A
 Frequencies --    757.8871               782.7040               784.1271
 Red. masses --      2.7504                 2.2501                 1.2946
 Frc consts  --      0.9308                 0.8122                 0.4690
 IR Inten    --     17.3182                 9.3417                 0.5951

                     34                     35                     36
                      A                      A                      A
 Frequencies --    792.8133               851.2785               879.2555
 Red. masses --      1.5296                 3.3015                 2.2615
 Frc consts  --      0.5665                 1.4096                 1.0301
 IR Inten    --      4.3823                 3.3637                 4.0345

                     37                     38                     39
                      A                      A                      A
 Frequencies --    888.4369               903.7947               925.2717
 Red. masses --      2.0669                 2.1722                 2.3462
 Frc consts  --      0.9612                 1.0454                 1.1835
 IR Inten    --      3.3568                 7.1013                 1.1318

                     40                     41                     42
                      A                      A                      A
 Frequencies --    934.6537               961.0275               967.2696
 Red. masses --      2.0747                 2.3047                 2.3167
 Frc consts  --      1.0678                 1.2541                 1.2771
 IR Inten    --      1.7620                 1.5760                 4.4900

                     43                     44                     45
                      A                      A                      A
 Frequencies --    994.9356              1004.9938              1010.9245
 Red. masses --      1.5499                 1.2501                 2.2911
 Frc consts  --      0.9040                 0.7439                 1.3795
 IR Inten    --      6.1929                 0.3090                12.4983

                     46                     47                     48
                      A                      A                      A
 Frequencies --   1036.0508              1053.7774              1064.3785
 Red. masses --      1.9212                 2.3261                 1.7722
 Frc consts  --      1.2150                 1.5219                 1.1829
 IR Inten    --      7.4255                 3.6847                 1.1977

                     49                     50                     51
                      A                      A                      A
 Frequencies --   1078.0023              1087.1998              1089.0897
 Red. masses --      1.8426                 2.0929                 2.1737
 Frc consts  --      1.2616                 1.4575                 1.5191
 IR Inten    --      1.1322                 1.6894                 5.9937

                     52                     53                     54
                      A                      A                      A
 Frequencies --   1110.7368              1121.6995              1133.7421
 Red. masses --      1.7992                 2.1963                 1.7706
 Frc consts  --      1.3078                 1.6281                 1.3409
 IR Inten    --      2.0296                12.1232                 3.6668

                     55                     56                     57
                      A                      A                      A
 Frequencies --   1156.9355              1177.9220              1182.5363
 Red. masses --      2.5026                 1.1370                 2.0234
 Frc consts  --      1.9736                 0.9295                 1.6671
 IR Inten    --    126.7547                 3.1531                11.5135

                     58                     59                     60
                      A                      A                      A
 Frequencies --   1198.3404              1212.8713              1225.3798
 Red. masses --      2.2900                 1.1814                 1.2367
 Frc consts  --      1.9375                 1.0240                 1.0941
 IR Inten    --     76.5386                 1.3383                10.1307

                     61                     62                     63
                      A                      A                      A
 Frequencies --   1253.1338              1276.0351              1293.7336
 Red. masses --      1.4432                 1.2403                 1.2743
 Frc consts  --      1.3352                 1.1899                 1.2567
 IR Inten    --      4.9395                 0.5951                 3.1355

                     64                     65                     66
                      A                      A                      A
 Frequencies --   1299.2188              1320.5300              1327.9674
 Red. masses --      1.2832                 1.2247                 1.2692
 Frc consts  --      1.2761                 1.2583                 1.3187
 IR Inten    --      1.2469                 0.5975                 1.6097

                     67                     68                     69
                      A                      A                      A
 Frequencies --   1342.7330              1362.4978              1366.9745
 Red. masses --      1.4702                 1.5426                 1.4940
 Frc consts  --      1.5617                 1.6873                 1.6448
 IR Inten    --      7.7874                 0.7927                 4.3187

                     70                     71                     72
                      A                      A                      A
 Frequencies --   1376.9657              1384.2454              1388.8214
 Red. masses --      1.4532                 1.4917                 1.4294
 Frc consts  --      1.6234                 1.6840                 1.6244
 IR Inten    --      0.8518                 6.0320                 0.2654

                     73                     74                     75
                      A                      A                      A
 Frequencies --   1395.9244              1398.2946              1402.4527
 Red. masses --      1.7753                 1.5281                 1.4207
 Frc consts  --      2.0382                 1.7604                 1.6463
 IR Inten    --     12.7343                 3.2143                 0.7917

                     76                     77                     78
                      A                      A                      A
 Frequencies --   1406.0834              1409.5402              1420.6043
 Red. masses --      1.3580                 1.4324                 1.3823
 Frc consts  --      1.5819                 1.6768                 1.6436
 IR Inten    --      1.4203                 0.8357                 6.3041

                     79                     80                     81
                      A                      A                      A
 Frequencies --   1429.0103              1447.4365              1449.6921
 Red. masses --      1.3620                 1.3318                 1.4195
 Frc consts  --      1.6388                 1.6440                 1.7577
 IR Inten    --      2.6543                 5.2042                 0.7239

                     82                     83                     84
                      A                      A                      A
 Frequencies --   1505.9408              1507.2724              1510.0706
 Red. masses --      1.0922                 1.0777                 1.0748
 Frc consts  --      1.4594                 1.4426                 1.4440
 IR Inten    --      1.7250                 1.4569                 1.1443

                     85                     86                     87
                      A                      A                      A
 Frequencies --   1516.6867              1519.7203              1523.8521
 Red. masses --      1.0891                 1.0875                 1.0946
 Frc consts  --      1.4760                 1.4798                 1.4975
 IR Inten    --      2.6507                 5.0832                10.2322

                     88                     89                     90
                      A                      A                      A
 Frequencies --   1526.8499              1532.8648              1541.1473
 Red. masses --      1.0996                 1.0776                 1.0486
 Frc consts  --      1.5103                 1.4918                 1.4674
 IR Inten    --      0.8976                 5.1378                10.0243

                     91                     92                     93
                      A                      A                      A
 Frequencies --   1543.2021              1735.5714              1823.5809
 Red. masses --      1.0721                 6.7470                 9.6000
 Frc consts  --      1.5042                11.9741                18.8092
 IR Inten    --      9.6686                 3.7101               210.9371

                     94                     95                     96
                      A                      A                      A
 Frequencies --   3002.8319              3004.9714              3008.2615
 Red. masses --      1.0822                 1.0781                 1.0697
 Frc consts  --      5.7494                 5.7357                 5.7033
 IR Inten    --     12.6192                 7.4762                34.2106

                     97                     98                     99
                      A                      A                      A
 Frequencies --   3023.5254              3036.0166              3037.4915
 Red. masses --      1.0636                 1.0620                 1.0669
 Frc consts  --      5.7287                 5.7672                 5.7997
 IR Inten    --     41.8970                40.6368                18.5339

                    100                    101                    102
                      A                      A                      A
 Frequencies --   3045.1526              3051.5118              3052.7444
 Red. masses --      1.0674                 1.1005                 1.0628
 Frc consts  --      5.8317                 6.0376                 5.8354
 IR Inten    --     76.5666                35.5162                 8.8752

                    103                    104                    105
                      A                      A                      A
 Frequencies --   3055.9592              3056.1343              3067.6813
 Red. masses --      1.0406                 1.0844                 1.1003
 Frc consts  --      5.7255                 5.9675                 6.1009
 IR Inten    --     15.5288                68.1175                27.3470

                    106                    107                    108
                      A                      A                      A
 Frequencies --   3076.8502              3085.0120              3087.8982
 Red. masses --      1.0920                 1.0993                 1.0680
 Frc consts  --      6.0910                 6.1643                 6.0001
 IR Inten    --     11.3624                47.9285                23.5553

                    109                    110                    111
                      A                      A                      A
 Frequencies --   3090.4757              3099.2785              3112.4744
 Red. masses --      1.0691                 1.1009                 1.1000
 Frc consts  --      6.0159                 6.2303                 6.2786
 IR Inten    --     17.8972                52.3695                76.7400

                    112                    113                    114
                      A                      A                      A
 Frequencies --   3123.3688              3134.6103              3141.9114
 Red. masses --      1.1033                 1.0990                 1.0986
 Frc consts  --      6.3414                 6.3622                 6.3896
 IR Inten    --     35.1655                36.5436                16.0072

                    115                    116                    117
                      A                      A                      A
 Frequencies --   3155.3396              3184.1568              3674.6418
 Red. masses --      1.0862                 1.0930                 1.0639
 Frc consts  --      6.3715                 6.5293                 8.4640
 IR Inten    --      9.6979                38.5767                49.7176

 - Thermochemistry -
 -------------------
 Temperature   298.150 Kelvin.  Pressure   1.00000 Atm.
 Atom     1 has atomic number  6 and mass  12.00000

 Molecular mass:   236.17763 amu.
 Principal axes and moments of inertia in atomic units:
                           1         2         3
     Eigenvalues --  2678.817695001.898506479.01625
           X            0.99989  -0.01442  -0.00346
           Y            0.01445   0.99987   0.00734
           Z            0.00336  -0.00738   0.99997
 This molecule is an asymmetric top.
 Rotational symmetry number  1.
 Warning -- assumption of classical behavior for rotation
           may cause significant error
 Rotational temperatures (Kelvin)      0.03233     0.01732     0.01337
 Rotational constants (GHZ):           0.67371     0.36081     0.27855
 Zero-point vibrational energy     975777.3 (Joules/Mol)
                                  233.21636 (Kcal/Mol)
 Warning -- explicit consideration of  25 degrees of freedom as
           vibrations may cause significant error
 Vibrational temperatures:     59.06    75.86    89.33   102.95   108.69
          (Kelvin)            207.19   220.88   260.80   288.75   363.00
                              375.18   390.78   402.25   428.19   455.85
                              514.06   548.70   574.60   613.97   637.63
                              666.65   728.68   778.34   796.85   871.72
                              908.11   979.30  1002.25  1054.82  1066.34
                             1090.43  1126.14  1128.18  1140.68  1224.80
                             1265.05  1278.26  1300.36  1331.26  1344.76
                             1382.70  1391.69  1431.49  1445.96  1454.49
                             1490.65  1516.15  1531.40  1551.00  1564.24
                             1566.96  1598.10  1613.88  1631.20  1664.57
                             1694.77  1701.41  1724.14  1745.05  1763.05
                             1802.98  1835.93  1861.39  1869.29  1899.95
                             1910.65  1931.89  1960.33  1966.77  1981.15
                             1991.62  1998.20  2008.42  2011.83  2017.82
                             2023.04  2028.01  2043.93  2056.03  2082.54
                             2085.78  2166.71  2168.63  2172.65  2182.17
                             2186.54  2192.48  2196.80  2205.45  2217.37
                             2220.32  2497.10  2623.73  4320.41  4323.48
                             4328.22  4350.18  4368.15  4370.27  4381.30
                             4390.44  4392.22  4396.84  4397.10  4413.71
                             4426.90  4438.64  4442.80  4446.51  4459.17
                             4478.16  4493.83  4510.01  4520.51  4539.83
                             4581.29  5286.99

 Zero-point correction=                           0.371654 (Hartree/Particle)
 Thermal correction to Energy=                    0.388240
 Thermal correction to Enthalpy=                  0.389185
 Thermal correction to Gibbs Free Energy=         0.327615
 Sum of electronic and zero-point Energies=           -736.217253
 Sum of electronic and thermal Energies=              -736.200667
 Sum of electronic and thermal Enthalpies=            -736.199723
 Sum of electronic and thermal Free Energies=         -736.261292

                     E (Thermal)             CV                S
                      KCal/Mol        Cal/Mol-Kelvin    Cal/Mol-Kelvin
 Total                  243.625             65.880            129.585
 Electronic               0.000              0.000              0.000
 Translational            0.889              2.981             42.280
 Rotational               0.889              2.981             32.829
 Vibrational            241.847             59.918             54.476
 Vibration     1          0.594              1.981              5.208
 Vibration     2          0.596              1.977              4.712
 Vibration     3          0.597              1.972              4.390
 Vibration     4          0.598              1.968              4.110
 Vibration     5          0.599              1.965              4.003
 Vibration     6          0.616              1.909              2.750
 Vibration     7          0.619              1.899              2.628
 Vibration     8          0.630              1.865              2.315
 Vibration     9          0.638              1.839              2.127
 Vibration    10          0.664              1.759              1.714
 Vibration    11          0.669              1.745              1.657
 Vibration    12          0.675              1.726              1.586
 Vibration    13          0.680              1.711              1.536
 Vibration    14          0.691              1.678              1.430
 Vibration    15          0.704              1.641              1.326
 Vibration    16          0.732              1.560              1.134
 Vibration    17          0.751              1.510              1.034
 Vibration    18          0.765              1.471              0.965
 Vibration    19          0.788              1.412              0.869
 Vibration    20          0.803              1.376              0.817
 Vibration    21          0.821              1.331              0.756
 Vibration    22          0.862              1.236              0.642
 Vibration    23          0.896              1.159              0.563
 Vibration    24          0.909              1.131              0.536
 Vibration    25          0.965              1.019              0.440

 Optimization completed.
    -- Stationary point found.
 Normal termination of Gaussian 16 at Sun Dec 13 12:58:43 2020.

 ----------------------------------------------------------------------
 # B3LYP/6-311++G(d,p) empiricaldispersion=gd3bj scf=xqc pop=npa geom=c
 heck
 ----------------------------------------------------------------------

 ---------------------------------------
 CID_114620874_JID_7237_Energie_neutraal
 ---------------------------------------
 Structure from the checkpoint file:  "JID_7237.chk"
 Charge =  0 Multiplicity = 1

 SCF Done:  E(RB3LYP) =  -736.798372762     A.U. after   14 cycles
 Normal termination of Gaussian 16 at Sun Dec 13 13:08:34 2020.

 ----------------------------------------------------------------------
 # B3LYP/6-311++G(d,p) empiricaldispersion=gd3bj scf=xqc pop=npa geom=c
 heck
 ----------------------------------------------------------------------

 -------------------------------------
 CID_114620874_JID_7237_Energie_kation
 -------------------------------------
 Structure from the checkpoint file:  "JID_7237.chk"
 Charge =  1 Multiplicity = 2

 SCF Done:  E(UB3LYP) =  -736.478331248     A.U. after   26 cycles
 Normal termination of Gaussian 16 at Sun Dec 13 13:34:59 2020.
 Gaussian 16:  ES64L-G16RevA.03 25-Dec-2016

 ----------------------------------------------------------------------
 # B3LYP/6-311++G(d,p) empiricaldispersion=gd3bj scf=xqc pop=npa geom=c
 heck
 ----------------------------------------------------------------------

 ------------------------------------
 CID_114620874_JID_7237_Energie_anion
 ------------------------------------
 Structure from the checkpoint file:  "JID_7237.chk"
 Charge = -1 Multiplicity = 2

                         Standard orientation:
 ---------------------------------------------------------------------
 Center     Atomic      Atomic             Coordinates (Angstroms)
 Number     Number       Type             X           Y           Z
 ---------------------------------------------------------------------
      1          6           0        2.649889   -2.574493   -0.111452
      2          6           0        3.581933   -1.407886    0.236065
      3          6           0        3.007911    0.025100    0.312751
      4          6           0        2.468682    0.579466   -1.022956
      5          6           0        1.022791    0.183697   -1.352548
      6          6           0        0.036326    0.522629   -0.212185
      7          6           0        0.530739   -0.112086    1.102475
      8          6           0        1.983616    0.252133    1.445893
      9          6           0       -1.411152    0.028409   -0.594453
     10          6           0       -2.516378    0.621024    0.301756
     11          6           0       -3.862178   -0.068161    0.057450
     12          6           0       -3.782290   -1.557082    0.412171
     13          6           0       -2.536807   -2.183770   -0.156948
     14          6           0       -1.498051   -1.481360   -0.619119
     15          6           0       -0.063067    2.045966   -0.137454
     16          8           0       -0.116421    2.781570   -1.101075
     17          8           0       -0.145784    2.536473    1.126342
     18          1           0        1.827976   -2.674705    0.603780
     19          1           0        3.210332   -3.516562   -0.097502
     20          1           0        2.216064   -2.472172   -1.110917
     21          1           0        4.051440   -1.622308    1.206484
     22          1           0        4.401855   -1.394454   -0.495891
     23          1           0        3.881627    0.642184    0.566805
     24          1           0        2.518120    1.676066   -0.989236
     25          1           0        3.127175    0.272260   -1.845731
     26          1           0        0.965936   -0.887374   -1.556067
     27          1           0        0.701519    0.702715   -2.260589
     28          1           0        0.423522   -1.195226    1.000200
     29          1           0       -0.115993    0.184019    1.933120
     30          1           0        2.292998   -0.305389    2.339639
     31          1           0        2.008483    1.312475    1.724038
     32          1           0       -1.577402    0.400528   -1.617272
     33          1           0       -2.607533    1.696575    0.115986
     34          1           0       -2.240821    0.503778    1.357035
     35          1           0       -4.651544    0.422226    0.639049
     36          1           0       -4.134239    0.036118   -1.001542
     37          1           0       -3.795208   -1.687436    1.505833
     38          1           0       -4.668782   -2.088309    0.040656
     39          1           0       -2.503275   -3.271432   -0.204053
     40          1           0       -0.656867   -2.021039   -1.047194
     41          1           0       -0.249518    3.501600    1.022560
 ---------------------------------------------------------------------

 SCF Done:  E(UB3LYP) =  -736.785596152     A.U. after   33 cycles
 SCF Done:  E(UB3LYP) =  -736.785596152     a.u. after    1 cycles

 The electronic state is 2-A.
 Alpha  occ. eigenvalues --  -19.07441 -19.02016 -10.20930 -10.10296 -10.09130
 Alpha  occ. eigenvalues --  -10.07833 -10.07682 -10.07515 -10.07509 -10.07396
 Alpha  occ. eigenvalues --  -10.07181 -10.07083 -10.07059 -10.06944 -10.06780
 Alpha  occ. eigenvalues --  -10.06538 -10.06509  -1.01585  -0.92474  -0.76504
 Alpha  occ. eigenvalues --   -0.73670  -0.69934  -0.65465  -0.65240  -0.64932
 Alpha  occ. eigenvalues --   -0.62373  -0.57305  -0.54220  -0.52108  -0.51985
 Alpha  occ. eigenvalues --   -0.50636  -0.47231  -0.44643  -0.41948  -0.40974
 Alpha  occ. eigenvalues --   -0.39805  -0.38584  -0.37327  -0.36997  -0.36712
 Alpha  occ. eigenvalues --   -0.35171  -0.34214  -0.32828  -0.32545  -0.31833
 Alpha  occ. eigenvalues --   -0.30738  -0.30417  -0.30173  -0.29707  -0.28901
 Alpha  occ. eigenvalues --   -0.28251  -0.27871  -0.26933  -0.26250  -0.25961
 Alpha  occ. eigenvalues --   -0.24046  -0.23899  -0.22878  -0.22761  -0.21544
 Alpha  occ. eigenvalues --   -0.20901  -0.20361  -0.19882  -0.18411  -0.15590
 Alpha  occ. eigenvalues --    0.04084
 Alpha virt. eigenvalues --    0.05840   0.06040   0.07471   0.07563   0.07714
 Alpha virt. eigenvalues --    0.08344   0.08579   0.09062   0.09862   0.09961
 Alpha virt. eigenvalues --    0.10357   0.10553   0.11019   0.11130   0.12106

  Beta  occ. eigenvalues --  -19.07400 -19.02002 -10.20926 -10.10292 -10.09126
  Beta  occ. eigenvalues --  -10.07817 -10.07669 -10.07512 -10.07500 -10.07381
  Beta  occ. eigenvalues --  -10.07176 -10.07065 -10.07044 -10.06932 -10.06770
  Beta  occ. eigenvalues --  -10.06516 -10.06493  -1.01533  -0.92428  -0.76484
  Beta  occ. eigenvalues --   -0.73646  -0.69906  -0.65436  -0.65210  -0.64911
  Beta  occ. eigenvalues --   -0.62339  -0.57259  -0.54168  -0.52067  -0.51942
  Beta  occ. eigenvalues --   -0.50587  -0.47177  -0.44606  -0.41917  -0.40939
  Beta  occ. eigenvalues --   -0.39776  -0.38554  -0.37286  -0.36969  -0.36688
  Beta  occ. eigenvalues --   -0.35142  -0.34188  -0.32804  -0.32513  -0.31811
  Beta  occ. eigenvalues --   -0.30709  -0.30390  -0.30147  -0.29680  -0.28872
  Beta  occ. eigenvalues --   -0.28232  -0.27849  -0.26905  -0.26215  -0.25934
  Beta  occ. eigenvalues --   -0.24023  -0.23866  -0.22849  -0.22730  -0.21516
  Beta  occ. eigenvalues --   -0.20874  -0.20335  -0.19860  -0.18368  -0.15554
  Beta virt. eigenvalues --    0.06020   0.06550   0.07053   0.07688   0.07962
  Beta virt. eigenvalues --    0.08240   0.08735   0.08837   0.09279   0.10075
  Beta virt. eigenvalues --    0.10262   0.10651   0.10729   0.11120   0.11285

 Mulliken charges and spin densities:
               1          2
     1  C   -0.158719  -0.361376
     2  C    0.659315  -1.267715
     3  C    0.111451   0.462803
     4  C   -0.240157  -0.429450
     5  C   -0.102311  -0.086211
     6  C   -0.236767   0.617956
     7  C    0.155371  -0.415118
     8  C    0.336077  -0.996652
     9  C    0.635256  -0.284223
    10  C   -0.738982   0.531234
    11  C   -1.016851   0.652080
    12  C    1.299485  -1.955370
    13  C   -0.898811   0.718590
    14  C    0.034867  -0.124690
    15  C    0.290974  -1.167449
    16  O   -0.214096   0.066252
    17  O   -0.120765   0.078863
    18  H   -0.063399   0.215237
    19  H   -0.313005   0.472092
    20  H    0.042700   0.092666
    21  H    0.005484   0.130855
    22  H   -0.136934   0.273691
    23  H   -0.313160   0.514042
    24  H    0.187568  -0.003797
    25  H   -0.076384   0.263413
    26  H    0.216664  -0.150551
    27  H    0.220393   0.026872
    28  H    0.423285  -0.300219
    29  H    0.128697   0.099822
    30  H   -0.232542   0.411605
    31  H    0.216785  -0.033162
    32  H    0.122834   0.099449
    33  H   -0.014570   0.235116
    34  H   -0.045439   0.211960
    35  H   -0.338334   0.514950
    36  H    0.064555   0.067598
    37  H   -0.026130   0.175593
    38  H   -0.157826   0.305187
    39  H   -0.278052   0.452547
    40  H   -0.078261   0.237772
    41  H   -0.350266   0.647737
 Sum of Mulliken charges =  -1.00000   1.00000

 Dipole moment (field-independent basis, Debye):
    X=              0.0606    Y=             -0.7410    Z=             -1.8121  Tot=              1.9586
 Quadrupole moment (field-independent basis, Debye-Ang):
   XX=           -184.1487   YY=           -168.0174   ZZ=           -141.3706
   XY=              3.7810   XZ=              2.1980   YZ=             -1.7190

 Summary of Natural Population Analysis:

                                       Natural Population
                Natural  -----------------------------------------------
    Atom  No    Charge         Core      Valence    Rydberg      Total
 -----------------------------------------------------------------------
      C    1   -0.28710      0.99966     2.28204    0.00540     3.28710
      C    2   -0.18541      0.99961     2.17715    0.00864     3.18541
      C    3   -0.10838      0.99958     2.09841    0.01039     3.10838
      C    4   -0.19056      0.99961     2.18189    0.00906     3.19056
      C    5   -0.19011      0.99959     2.18179    0.00873     3.19011
      C    6   -0.06930      0.99949     2.05558    0.01422     3.06930
      C    7   -0.19615      0.99959     2.18661    0.00995     3.19615
      C    8   -0.19040      0.99961     2.18148    0.00931     3.19040
      C    9   -0.11603      0.99955     2.10485    0.01163     3.11603
      C   10   -0.19185      0.99961     2.18267    0.00956     3.19185
      C   11   -0.18536      0.99963     2.17762    0.00811     3.18536
      C   12   -0.20679      0.99962     2.19881    0.00837     3.20679
      C   13   -0.08563      0.99952     2.07611    0.00999     3.08563
      C   14   -0.09665      0.99951     2.08719    0.00994     3.09665
      C   15    0.41971      0.99961     1.55235    0.02833     2.58029
      O   16   -0.31243      0.99987     3.30648    0.00608     4.31243
      O   17   -0.34429      0.99987     3.33720    0.00722     4.34429
      H   18    0.09636      0.00000     0.40238    0.00126     0.40364
      H   19    0.09872      0.00000     0.40036    0.00091     0.40128
      H   20    0.09368      0.00000     0.40517    0.00116     0.40632
      H   21    0.09458      0.00000     0.40421    0.00120     0.40542
      H   22    0.09378      0.00000     0.40501    0.00121     0.40622
      H   23    0.09860      0.00000     0.39981    0.00159     0.40140
      H   24    0.10012      0.00000     0.39874    0.00114     0.39988
      H   25    0.09935      0.00000     0.39973    0.00091     0.40065
      H   26    0.09783      0.00000     0.40048    0.00169     0.40217
      H   27    0.10879      0.00000     0.39017    0.00104     0.39121
      H   28    0.10288      0.00000     0.39536    0.00176     0.39712
      H   29    0.10808      0.00000     0.39027    0.00165     0.39192
      H   30    0.09906      0.00000     0.39992    0.00102     0.40094
      H   31    0.10249      0.00000     0.39594    0.00158     0.39751
      H   32    0.10702      0.00000     0.39127    0.00171     0.39298
      H   33    0.10329      0.00000     0.39549    0.00122     0.39671
      H   34    0.09922      0.00000     0.39908    0.00170     0.40078
      H   35    0.10026      0.00000     0.39870    0.00103     0.39974
      H   36    0.09327      0.00000     0.40552    0.00120     0.40673
      H   37    0.10159      0.00000     0.39709    0.00132     0.39841
      H   38    0.10137      0.00000     0.39751    0.00112     0.39863
      H   39    0.09618      0.00000     0.40289    0.00093     0.40382
      H   40    0.09807      0.00000     0.40023    0.00169     0.40193
      H   41    0.24211      0.00000     0.24877    0.00911     0.25789
 =======================================================================
   * Total *    0.00000     16.99354    47.79236    0.21410    65.00000

 Normal termination of Gaussian 16 at Sun Dec 13 14:05:32 2020.
