 Gaussian 16, Revision A.03,

 -----------------------------------------------------------
 # opt freq B3LYP/6-31G(d) empiricaldispersion=gd3bj scf=xqc
 -----------------------------------------------------------

 ------------------------------
 CID_69896554_JID_5692_neutraal
 ------------------------------
 Symbolic Z-matrix:
 Charge =  0 Multiplicity = 1

 SCF Done:  E(RB3LYP) =  -1011.98557720     A.U. after   15 cycles
 SCF Done:  E(RB3LYP) =  -1011.99148726     A.U. after   13 cycles
 SCF Done:  E(RB3LYP) =  -1011.99160032     A.U. after   12 cycles
 SCF Done:  E(RB3LYP) =  -1011.99190657     A.U. after   12 cycles
 SCF Done:  E(RB3LYP) =  -1011.99209384     A.U. after   11 cycles
 SCF Done:  E(RB3LYP) =  -1011.99210708     A.U. after   10 cycles
 SCF Done:  E(RB3LYP) =  -1011.99211181     A.U. after   10 cycles
 SCF Done:  E(RB3LYP) =  -1011.99211447     A.U. after   10 cycles
 SCF Done:  E(RB3LYP) =  -1011.99211591     A.U. after   10 cycles
 SCF Done:  E(RB3LYP) =  -1011.99212121     A.U. after   11 cycles
 SCF Done:  E(RB3LYP) =  -1011.99348405     A.U. after   12 cycles
 SCF Done:  E(RB3LYP) =  -1011.99353156     A.U. after   11 cycles
 SCF Done:  E(RB3LYP) =  -1011.99353941     A.U. after   10 cycles
 SCF Done:  E(RB3LYP) =  -1011.99354142     A.U. after    9 cycles
 SCF Done:  E(RB3LYP) =  -1011.99354164     A.U. after    8 cycles
 SCF Done:  E(RB3LYP) =  -1011.99354169     A.U. after    8 cycles
 Optimization completed.
    -- Stationary point found.
 Normal termination of Gaussian 16 at Thu Dec 10 16:40:56 2020.

 --------------------------------------------------------------------
 #N Geom=AllCheck Guess=TCheck SCRF=Check GenChk RB3LYP/6-31G(d) Freq
 --------------------------------------------------------------------

 Structure from the checkpoint file:  "JID_5692.chk"
 ------------------------------
 CID_69896554_JID_5692_neutraal
 ------------------------------
 Charge =  0 Multiplicity = 1

 SCF Done:  E(RB3LYP) =  -1011.99354169     A.U. after    1 cycles

  Exact polarizability: 172.841   1.476 168.308 -15.490 -12.752  90.366
 Approx polarizability: 278.452  23.413 299.175 -34.446 -38.452 144.889

                      1                      2                      3
                      A                      A                      A
 Frequencies --     27.1272                50.2417                76.9430
 Red. masses --      8.0351                 7.5559                 5.6497
 Frc consts  --      0.0035                 0.0112                 0.0197
 IR Inten    --      1.1168                 0.9473                 0.0280

                      4                      5                      6
                      A                      A                      A
 Frequencies --    134.8011               155.6566               163.2816
 Red. masses --      3.5792                 2.6865                 3.2206
 Frc consts  --      0.0383                 0.0384                 0.0506
 IR Inten    --      0.9355                 0.8613                 0.1062

                      7                      8                      9
                      A                      A                      A
 Frequencies --    206.3835               210.1471               222.8466
 Red. masses --      2.5377                 2.0217                 4.4915
 Frc consts  --      0.0637                 0.0526                 0.1314
 IR Inten    --      3.0770                 0.5338                 0.5164

                     10                     11                     12
                      A                      A                      A
 Frequencies --    289.8284               329.7029               372.2464
 Red. masses --      4.2360                 5.7545                 5.8735
 Frc consts  --      0.2096                 0.3686                 0.4795
 IR Inten    --      0.0377                 0.5003                 2.9377

                     13                     14                     15
                      A                      A                      A
 Frequencies --    432.5078               457.6031               480.3384
 Red. masses --      3.5936                 4.8082                 5.2779
 Frc consts  --      0.3961                 0.5932                 0.7175
 IR Inten    --      1.6567                11.6890                 0.7753

                     16                     17                     18
                      A                      A                      A
 Frequencies --    509.0860               523.6367               572.8619
 Red. masses --      5.8142                 5.6432                 3.7145
 Frc consts  --      0.8878                 0.9117                 0.7182
 IR Inten    --      3.2914                 0.5761                 4.6973

                     19                     20                     21
                      A                      A                      A
 Frequencies --    586.6834               616.7170               632.3155
 Red. masses --      1.9099                 2.7052                 2.9816
 Frc consts  --      0.3873                 0.6062                 0.7024
 IR Inten    --     47.4752                46.3952                21.5969

                     22                     23                     24
                      A                      A                      A
 Frequencies --    665.5613               721.5570               742.1227
 Red. masses --      3.3007                 4.9793                 3.3557
 Frc consts  --      0.8615                 1.5274                 1.0889
 IR Inten    --      6.7943                 6.4499                37.5369

                     25                     26                     27
                      A                      A                      A
 Frequencies --    754.9281               774.4817               778.4589
 Red. masses --      1.9160                 2.7260                 2.9047
 Frc consts  --      0.6434                 0.9634                 1.0371
 IR Inten    --      9.7301                30.1924                11.2559

                     28                     29                     30
                      A                      A                      A
 Frequencies --    797.4099               851.3945               873.7414
 Red. masses --      1.5646                 4.6216                 1.3601
 Frc consts  --      0.5862                 1.9738                 0.6117
 IR Inten    --      7.3912                21.7709                 0.6366

                     31                     32                     33
                      A                      A                      A
 Frequencies --    885.7007               921.5847               948.5807
 Red. masses --      1.6172                 3.5776                 1.3407
 Frc consts  --      0.7474                 1.7902                 0.7108
 IR Inten    --     31.3193                15.3393                 0.6498

                     34                     35                     36
                      A                      A                      A
 Frequencies --    986.8848               998.2779              1056.7185
 Red. masses --      1.2609                 5.1362                 2.2652
 Frc consts  --      0.7235                 3.0157                 1.4903
 IR Inten    --      0.0611                 1.8705                 5.1801

                     37                     38                     39
                      A                      A                      A
 Frequencies --   1062.7151              1076.0712              1081.8073
 Red. masses --      1.8071                 1.5447                 3.1896
 Frc consts  --      1.2025                 1.0538                 2.1993
 IR Inten    --      9.8767                 2.8590                13.1460

                     40                     41                     42
                      A                      A                      A
 Frequencies --   1158.1357              1176.2430              1192.6542
 Red. masses --      2.1777                 1.7189                 1.2914
 Frc consts  --      1.7210                 1.4012                 1.0823
 IR Inten    --     14.7334                14.9845                33.0009

                     43                     44                     45
                      A                      A                      A
 Frequencies --   1209.7035              1230.6715              1297.0346
 Red. masses --      1.4304                 1.6891                 1.5715
 Frc consts  --      1.2333                 1.5072                 1.5576
 IR Inten    --     25.0159               101.6724                10.2092

                     46                     47                     48
                      A                      A                      A
 Frequencies --   1346.6486              1371.3179              1396.0223
 Red. masses --      1.7747                 7.4617                 2.4406
 Frc consts  --      1.8962                 8.2674                 2.8024
 IR Inten    --      8.7332                 0.4416                38.1263

                     49                     50                     51
                      A                      A                      A
 Frequencies --   1410.7876              1439.6558              1478.9224
 Red. masses --      3.1679                 1.2672                 2.4017
 Frc consts  --      3.7149                 1.5474                 3.0951
 IR Inten    --     31.0574                11.0538                26.1805

                     52                     53                     54
                      A                      A                      A
 Frequencies --   1504.1755              1507.1301              1511.7078
 Red. masses --      1.2293                 1.9223                 1.0748
 Frc consts  --      1.6387                 2.5726                 1.4471
 IR Inten    --     12.2130                 6.4046                 8.2498

                     55                     56                     57
                      A                      A                      A
 Frequencies --   1567.0974              1617.1316              1654.5535
 Red. masses --      5.5861                 5.9921                 5.8253
 Frc consts  --      8.0826                 9.2325                 9.3957
 IR Inten    --     24.4740                 0.7234                 1.5833

                     58                     59                     60
                      A                      A                      A
 Frequencies --   1697.9290              1812.9671              3045.9853
 Red. masses --      7.7008                 8.9973                 1.0368
 Frc consts  --     13.0805                17.4239                 5.6676
 IR Inten    --     35.4728               418.1370                13.8593

                     61                     62                     63
                      A                      A                      A
 Frequencies --   3098.6207              3139.4267              3189.9721
 Red. masses --      1.0994                 1.1024                 1.0855
 Frc consts  --      6.2196                 6.4016                 6.5078
 IR Inten    --     11.4064                23.9382                 0.3735

                     64                     65                     66
                      A                      A                      A
 Frequencies --   3200.1272              3204.2313              3209.7588
 Red. masses --      1.0889                 1.0893                 1.0935
 Frc consts  --      6.5701                 6.5894                 6.6375
 IR Inten    --      6.8455                 6.0819                21.1308

                     67                     68                     69
                      A                      A                      A
 Frequencies --   3217.2874              3261.3177              3693.2985
 Red. masses --      1.0969                 1.0935                 1.0640
 Frc consts  --      6.6894                 6.8524                 8.5509
 IR Inten    --     16.6112                 1.1369                54.6731

 - Thermochemistry -
 -------------------
 Temperature   298.150 Kelvin.  Pressure   1.00000 Atm.
 Atom     1 has atomic number  6 and mass  12.00000

 Molecular mass:   218.04015 amu.
 Principal axes and moments of inertia in atomic units:
                           1         2         3
     Eigenvalues --  2394.292153833.900695085.43819
           X            0.99753  -0.06906  -0.01244
           Y            0.06928   0.99744   0.01763
           Z            0.01119  -0.01845   0.99977
 This molecule is an asymmetric top.
 Rotational symmetry number  1.
 Warning -- assumption of classical behavior for rotation
           may cause significant error
 Rotational temperatures (Kelvin)      0.03618     0.02259     0.01703
 Rotational constants (GHZ):           0.75377     0.47073     0.35488
 Zero-point vibrational energy     501650.8 (Joules/Mol)
                                  119.89742 (Kcal/Mol)
 Warning -- explicit consideration of  20 degrees of freedom as
           vibrations may cause significant error
 Vibrational temperatures:     39.03    72.29   110.70   193.95   223.96
          (Kelvin)            234.93   296.94   302.35   320.63   417.00
                              474.37   535.58   622.28   658.39   691.10
                              732.46   753.40   824.22   844.11   887.32
                              909.76   957.59  1038.16  1067.75  1086.17
                             1114.31  1120.03  1147.30  1224.97  1257.12
                             1274.33  1325.95  1364.80  1419.91  1436.30
                             1520.38  1529.01  1548.23  1556.48  1666.30
                             1692.35  1715.96  1740.49  1770.66  1866.14
                             1937.53  1973.02  2008.56  2029.81  2071.34
                             2127.84  2164.17  2168.42  2175.01  2254.70
                             2326.69  2380.53  2442.94  2608.46  4382.49
                             4458.22  4516.93  4589.66  4604.27  4610.17
                             4618.13  4628.96  4692.31  5313.83

 Zero-point correction=                           0.191069 (Hartree/Particle)
 Thermal correction to Energy=                    0.204241
 Thermal correction to Enthalpy=                  0.205185
 Thermal correction to Gibbs Free Energy=         0.150224
 Sum of electronic and zero-point Energies=          -1011.802473
 Sum of electronic and thermal Energies=             -1011.789301
 Sum of electronic and thermal Enthalpies=           -1011.788357
 Sum of electronic and thermal Free Energies=        -1011.843317

                     E (Thermal)             CV                S
                      KCal/Mol        Cal/Mol-Kelvin    Cal/Mol-Kelvin
 Total                  128.163             50.457            115.675
 Electronic               0.000              0.000              0.000
 Translational            0.889              2.981             42.042
 Rotational               0.889              2.981             32.212
 Vibrational            126.386             44.496             41.421
 Vibration     1          0.593              1.984              6.029
 Vibration     2          0.595              1.977              4.808
 Vibration     3          0.599              1.965              3.967
 Vibration     4          0.613              1.919              2.876
 Vibration     5          0.620              1.896              2.602
 Vibration     6          0.623              1.888              2.511
 Vibration     7          0.641              1.831              2.075
 Vibration     8          0.642              1.825              2.042
 Vibration     9          0.649              1.806              1.936
 Vibration    10          0.686              1.693              1.475
 Vibration    11          0.712              1.616              1.262
 Vibration    12          0.744              1.529              1.071
 Vibration    13          0.793              1.399              0.850
 Vibration    14          0.816              1.344              0.773
 Vibration    15          0.837              1.294              0.709
 Vibration    16          0.864              1.230              0.636
 Vibration    17          0.879              1.198              0.602
 Vibration    18          0.929              1.090              0.499
 Vibration    19          0.944              1.060              0.473
 Vibration    20          0.976              0.997              0.422

                           ! Non-Optimized Parameters !
 Normal termination of Gaussian 16 at Thu Dec 10 16:48:58 2020.

 ----------------------------------------------------------------------
 # B3LYP/6-311++G(d,p) empiricaldispersion=gd3bj scf=xqc pop=npa geom=c
 heck
 ----------------------------------------------------------------------

 --------------------------------------
 CID_69896554_JID_5692_Energie_neutraal
 --------------------------------------
 Structure from the checkpoint file:  "JID_5692.chk"
 Charge =  0 Multiplicity = 1

 SCF Done:  E(RB3LYP) =  -1012.19247920     A.U. after   16 cycles
 Normal termination of Gaussian 16 at Thu Dec 10 16:53:44 2020.

 ----------------------------------------------------------------------
 # B3LYP/6-311++G(d,p) empiricaldispersion=gd3bj scf=xqc pop=npa geom=c
 heck
 ----------------------------------------------------------------------

 ------------------------------------
 CID_69896554_JID_5692_Energie_kation
 ------------------------------------
 Structure from the checkpoint file:  "JID_5692.chk"
 Charge =  1 Multiplicity = 2

 SCF Done:  E(UB3LYP) =  -1011.90190518     A.U. after   28 cycles
 Normal termination of Gaussian 16 at Thu Dec 10 17:10:36 2020.
 Gaussian 16:  ES64L-G16RevA.03 25-Dec-2016

 ----------------------------------------------------------------------
 # B3LYP/6-311++G(d,p) empiricaldispersion=gd3bj scf=xqc pop=npa geom=c
 heck
 ----------------------------------------------------------------------

 -----------------------------------
 CID_69896554_JID_5692_Energie_anion
 -----------------------------------
 Structure from the checkpoint file:  "JID_5692.chk"
 Charge = -1 Multiplicity = 2

                         Standard orientation:
 ---------------------------------------------------------------------
 Center     Atomic      Atomic             Coordinates (Angstroms)
 Number     Number       Type             X           Y           Z
 ---------------------------------------------------------------------
      1          6           0       -1.981240    2.181304    1.554721
      2          6           0       -1.649566    1.058591    0.603023
      3          6           0       -2.599374    0.162760    0.264915
      4          6           0       -2.509392   -0.963679   -0.683298
      5          8           0       -3.279900   -1.905358   -0.674277
      6          8           0       -1.517956   -0.852982   -1.601408
      7          6           0       -0.240366    1.006235    0.154965
      8          6           0        0.407458    2.061857   -0.416692
      9         16           0        2.078027    1.743307   -0.807010
     10          6           0        1.948858    0.124241   -0.136029
     11          6           0        2.966133   -0.830327   -0.048820
     12          6           0        2.671421   -2.057018    0.533566
     13          6           0        1.382209   -2.325704    1.026615
     14          6           0        0.374353   -1.376605    0.936904
     15          6           0        0.642789   -0.131678    0.343703
     16          1           0       -3.033779    2.167365    1.850431
     17          1           0       -1.764888    3.151690    1.090557
     18          1           0       -1.356385    2.121382    2.453988
     19          1           0       -3.576000    0.227445    0.735060
     20          1           0       -1.560706   -1.670277   -2.131614
     21          1           0       -0.016793    3.023778   -0.672120
     22          1           0        3.962140   -0.616326   -0.424389
     23          1           0        3.446854   -2.813392    0.611210
     24          1           0        1.173105   -3.288401    1.483546
     25          1           0       -0.618816   -1.589325    1.319517
 ---------------------------------------------------------------------

 SCF Done:  E(UB3LYP) =  -1012.20093920     A.U. after   30 cycles

 The electronic state is 2-A.
 Alpha  occ. eigenvalues --  -88.73559 -19.01058 -18.94144 -10.12829 -10.07750
 Alpha  occ. eigenvalues --  -10.06038 -10.05467 -10.05350 -10.05297 -10.04732
 Alpha  occ. eigenvalues --  -10.04586 -10.03761 -10.03685 -10.02567 -10.00603
 Alpha  occ. eigenvalues --   -7.82207  -5.78521  -5.78169  -5.77762  -0.94845
 Alpha  occ. eigenvalues --   -0.85450  -0.76106  -0.70347  -0.67000  -0.63376
 Alpha  occ. eigenvalues --   -0.60021  -0.57570  -0.56880  -0.49030  -0.47827
 Alpha  occ. eigenvalues --   -0.46126  -0.44633  -0.41118  -0.36346  -0.35519
 Alpha  occ. eigenvalues --   -0.34068  -0.33005  -0.31887  -0.31408  -0.29643
 Alpha  occ. eigenvalues --   -0.28867  -0.27616  -0.27239  -0.26402  -0.26212
 Alpha  occ. eigenvalues --   -0.25877  -0.23817  -0.23283  -0.21043  -0.20504
 Alpha  occ. eigenvalues --   -0.20141  -0.17580  -0.15446  -0.12690  -0.11936
 Alpha  occ. eigenvalues --   -0.11441  -0.08449   0.04845
 Alpha virt. eigenvalues --    0.08052   0.08984   0.09240   0.09743   0.10640
 Alpha virt. eigenvalues --    0.10778   0.10931   0.11528   0.12315   0.12934
 Alpha virt. eigenvalues --    0.13760   0.14604   0.15015   0.15282   0.16058

  Beta  occ. eigenvalues --  -88.73529 -19.01000 -18.93897 -10.12641 -10.07752
  Beta  occ. eigenvalues --  -10.06013 -10.05428 -10.05360 -10.05269 -10.04697
  Beta  occ. eigenvalues --  -10.04175 -10.03789 -10.03713 -10.02104 -10.00489
  Beta  occ. eigenvalues --   -7.82179  -5.78502  -5.78160  -5.77661  -0.94603
  Beta  occ. eigenvalues --   -0.85086  -0.75962  -0.70103  -0.66484  -0.63208
  Beta  occ. eigenvalues --   -0.59768  -0.57290  -0.56602  -0.48827  -0.47315
  Beta  occ. eigenvalues --   -0.46033  -0.44233  -0.40818  -0.36083  -0.35399
  Beta  occ. eigenvalues --   -0.33932  -0.32750  -0.31746  -0.31176  -0.29125
  Beta  occ. eigenvalues --   -0.28381  -0.27173  -0.27019  -0.26232  -0.25973
  Beta  occ. eigenvalues --   -0.25751  -0.23702  -0.23055  -0.20895  -0.20094
  Beta  occ. eigenvalues --   -0.19739  -0.16717  -0.14959  -0.12211  -0.10906
  Beta  occ. eigenvalues --   -0.10581  -0.07311
  Beta virt. eigenvalues --    0.07989   0.08934   0.09684   0.09778   0.10654
  Beta virt. eigenvalues --    0.10666   0.10863   0.11488   0.11598   0.12276
  Beta virt. eigenvalues --    0.13208   0.13680   0.14645   0.15059   0.15473

 Mulliken charges and spin densities:
               1          2
     1  C   -0.675094  -0.010647
     2  C    0.526439   0.240835
     3  C   -0.398383   0.119828
     4  C   -0.229061   0.144159
     5  O   -0.357882   0.080089
     6  O   -0.168588   0.008304
     7  C    0.311698  -0.045887
     8  C    0.205651   0.321664
     9  S   -0.771630   0.056183
    10  C    0.154431  -0.040237
    11  C    0.071071   0.064080
    12  C   -0.192876   0.018282
    13  C   -0.476192  -0.023797
    14  C   -0.626515   0.039354
    15  C    0.176463  -0.025170
    16  H    0.117445  -0.001586
    17  H    0.097063   0.025671
    18  H    0.114732   0.018455
    19  H    0.126562  -0.001110
    20  H    0.260233  -0.000638
    21  H    0.204594  -0.019011
    22  H    0.098067   0.026509
    23  H    0.109057   0.003168
    24  H    0.133086   0.004494
    25  H    0.189630  -0.002994
 Sum of Mulliken charges =  -1.00000   1.00000

 Dipole moment (field-independent basis, Debye):
    X=              4.2667    Y=              0.8460    Z=              0.4400  Tot=              4.3720
 Quadrupole moment (field-independent basis, Debye-Ang):
   XX=           -134.9142   YY=           -113.0619   ZZ=           -104.9904
   XY=            -12.0490   XZ=             -3.4281   YZ=             -0.6269

 Summary of Natural Population Analysis:

                                       Natural Population
                Natural  -----------------------------------------------
    Atom  No    Charge         Core      Valence    Rydberg      Total
 -----------------------------------------------------------------------
      C    1   -0.29011      0.99964     2.28623    0.00424     3.29011
      C    2    0.09529      0.99948     1.89628    0.00895     2.90471
      C    3   -0.15258      0.99942     2.14361    0.00955     3.15258
      C    4    0.40797      0.99969     1.56821    0.02414     2.59203
      O    5   -0.31405      0.99987     3.30707    0.00710     4.31405
      O    6   -0.34630      0.99988     3.33765    0.00876     4.34630
      C    7   -0.05710      0.99943     2.04333    0.01433     3.05710
      C    8   -0.08691      0.99945     2.07886    0.00860     3.08691
      S    9    0.17552      4.99946     2.80290    0.02212     7.82448
      C   10   -0.09304      0.99940     2.08202    0.01162     3.09304
      C   11   -0.10935      0.99950     2.10016    0.00969     3.10935
      C   12   -0.10997      0.99958     2.10063    0.00976     3.10997
      C   13   -0.11729      0.99958     2.10842    0.00929     3.11729
      C   14   -0.08439      0.99952     2.07666    0.00821     3.08439
      C   15   -0.02373      0.99942     2.01272    0.01159     3.02373
      H   16    0.09304      0.00000     0.40598    0.00098     0.40696
      H   17    0.09910      0.00000     0.39972    0.00118     0.40090
      H   18    0.09989      0.00000     0.39902    0.00109     0.40011
      H   19    0.09405      0.00000     0.40494    0.00101     0.40595
      H   20    0.23062      0.00000     0.26667    0.00272     0.26938
      H   21    0.09784      0.00000     0.40131    0.00085     0.40216
      H   22    0.09618      0.00000     0.40233    0.00148     0.40382
      H   23    0.09199      0.00000     0.40701    0.00100     0.40801
      H   24    0.09427      0.00000     0.40478    0.00095     0.40573
      H   25    0.10905      0.00000     0.38960    0.00135     0.39095
 =======================================================================
   * Total *   -0.00000     18.99333    37.82610    0.18056    57.00000

 Normal termination of Gaussian 16 at Thu Dec 10 17:25:18 2020.
