 Gaussian 16, Revision A.03,

 -----------------------------------------------------------
 # opt freq B3LYP/6-31G(d) empiricaldispersion=gd3bj scf=xqc
 -----------------------------------------------------------

 ------------------------------
 CID_65982416_JID_2447_neutraal
 ------------------------------
 Symbolic Z-matrix:
 Charge =  0 Multiplicity = 1

 SCF Done:  E(RB3LYP) =  -537.290635357     A.U. after   14 cycles
 SCF Done:  E(RB3LYP) =  -537.304296961     A.U. after   12 cycles
 SCF Done:  E(RB3LYP) =  -537.305346797     A.U. after   12 cycles
 SCF Done:  E(RB3LYP) =  -537.305529914     A.U. after   11 cycles
 SCF Done:  E(RB3LYP) =  -537.305555165     A.U. after   10 cycles
 SCF Done:  E(RB3LYP) =  -537.305558910     A.U. after    8 cycles
 SCF Done:  E(RB3LYP) =  -537.305559713     A.U. after    8 cycles
 SCF Done:  E(RB3LYP) =  -537.305559977     A.U. after    7 cycles
 SCF Done:  E(RB3LYP) =  -537.305560156     A.U. after    7 cycles
 SCF Done:  E(RB3LYP) =  -537.305560188     A.U. after    7 cycles
 Optimization completed.
    -- Stationary point found.
 Normal termination of Gaussian 16 at Wed Dec  9 17:21:11 2020.

 --------------------------------------------------------------------
 #N Geom=AllCheck Guess=TCheck SCRF=Check GenChk RB3LYP/6-31G(d) Freq
 --------------------------------------------------------------------

 Structure from the checkpoint file:  "JID_2447.chk"
 ------------------------------
 CID_65982416_JID_2447_neutraal
 ------------------------------
 Charge =  0 Multiplicity = 1

 SCF Done:  E(RB3LYP) =  -537.305560188     A.U. after    1 cycles

  Exact polarizability: 119.255   0.258  98.438  -7.458   2.202  95.732
 Approx polarizability: 151.579  -4.419 134.009 -17.162   8.478 148.091

                      1                      2                      3
                      A                      A                      A
 Frequencies --     25.9810                39.8456                51.8464
 Red. masses --      6.6570                 3.1952                 3.8570
 Frc consts  --      0.0026                 0.0030                 0.0061
 IR Inten    --      1.7896                 0.4445                 3.3762

                      4                      5                      6
                      A                      A                      A
 Frequencies --     92.9392               119.8463               143.0372
 Red. masses --      3.5543                 4.1141                 3.3623
 Frc consts  --      0.0181                 0.0348                 0.0405
 IR Inten    --      4.0951                 4.1170                 9.7676

                      7                      8                      9
                      A                      A                      A
 Frequencies --    194.3611               219.9497               248.7188
 Red. masses --      3.0993                 1.1990                 2.0943
 Frc consts  --      0.0690                 0.0342                 0.0763
 IR Inten    --      2.0671                27.0946                 1.2500

                     10                     11                     12
                      A                      A                      A
 Frequencies --    266.8632               317.4547               350.4554
 Red. masses --      3.0563                 3.5650                 2.8155
 Frc consts  --      0.1282                 0.2117                 0.2037
 IR Inten    --      9.8373                 0.4646                13.7868

                     13                     14                     15
                      A                      A                      A
 Frequencies --    388.1933               396.3272               457.4307
 Red. masses --      2.9038                 2.7500                 2.2376
 Frc consts  --      0.2578                 0.2545                 0.2759
 IR Inten    --      3.1133                 0.0675                 0.5387

                     16                     17                     18
                      A                      A                      A
 Frequencies --    472.0161               520.3121               611.1941
 Red. masses --      1.7897                 2.8228                 3.2984
 Frc consts  --      0.2349                 0.4503                 0.7260
 IR Inten    --     12.5158                 0.1246                 1.3350

                     19                     20                     21
                      A                      A                      A
 Frequencies --    685.8398               742.2064               813.5682
 Red. masses --      3.4609                 1.3784                 1.5653
 Frc consts  --      0.9591                 0.4474                 0.6104
 IR Inten    --      0.6224                 7.1676                 0.4990

                     22                     23                     24
                      A                      A                      A
 Frequencies --    823.8267               854.0596               889.2679
 Red. masses --      2.7672                 2.2525                 1.5691
 Frc consts  --      1.1065                 0.9681                 0.7311
 IR Inten    --      1.6061                 8.0901                84.6775

                     25                     26                     27
                      A                      A                      A
 Frequencies --    898.4844               919.1657               934.5371
 Red. masses --      2.0640                 2.3906                 1.9195
 Frc consts  --      0.9817                 1.1900                 0.9877
 IR Inten    --     39.3767                31.8733                 3.8921

                     28                     29                     30
                      A                      A                      A
 Frequencies --    943.7050               967.3526               987.4982
 Red. masses --      2.2854                 2.0582                 2.0330
 Frc consts  --      1.1992                 1.1348                 1.1681
 IR Inten    --      1.0676                 4.1722                 0.5806

                     31                     32                     33
                      A                      A                      A
 Frequencies --   1006.0254              1044.7873              1087.6721
 Red. masses --      2.1231                 1.9039                 1.2670
 Frc consts  --      1.2660                 1.2245                 0.8831
 IR Inten    --      1.1642                31.0295                 2.1431

                     34                     35                     36
                      A                      A                      A
 Frequencies --   1108.4022              1124.7674              1131.1290
 Red. masses --      1.7498                 2.2292                 2.7774
 Frc consts  --      1.2666                 1.6616                 2.0937
 IR Inten    --      6.8969                10.5689                30.7076

                     37                     38                     39
                      A                      A                      A
 Frequencies --   1159.2882              1173.3310              1217.7876
 Red. masses --      2.5665                 3.1614                 1.3659
 Frc consts  --      2.0322                 2.5643                 1.1935
 IR Inten    --      2.6060               159.1871                 1.1097

                     40                     41                     42
                      A                      A                      A
 Frequencies --   1222.9091              1241.5167              1248.1989
 Red. masses --      1.3334                 1.3190                 1.2485
 Frc consts  --      1.1749                 1.1979                 1.1461
 IR Inten    --      2.2668                10.5396                 4.6059

                     43                     44                     45
                      A                      A                      A
 Frequencies --   1252.0923              1284.8822              1285.9697
 Red. masses --      1.3251                 1.2225                 1.3920
 Frc consts  --      1.2240                 1.1891                 1.3563
 IR Inten    --      7.4945                 7.7611                 2.7612

                     46                     47                     48
                      A                      A                      A
 Frequencies --   1295.0558              1332.5758              1361.2224
 Red. masses --      1.5116                 1.1590                 1.3613
 Frc consts  --      1.4937                 1.2126                 1.4862
 IR Inten    --      5.4637                 1.1084                 1.5249

                     49                     50                     51
                      A                      A                      A
 Frequencies --   1368.2821              1380.3361              1400.8889
 Red. masses --      1.6614                 1.2625                 1.3699
 Frc consts  --      1.8326                 1.4172                 1.5839
 IR Inten    --      2.6961                76.1628                24.3967

                     52                     53                     54
                      A                      A                      A
 Frequencies --   1413.7828              1417.0012              1455.9730
 Red. masses --      1.4553                 1.4456                 1.4033
 Frc consts  --      1.7139                 1.7102                 1.7527
 IR Inten    --     11.0567                 1.2754                 2.8969

                     55                     56                     57
                      A                      A                      A
 Frequencies --   1485.0916              1502.9730              1510.9426
 Red. masses --      1.0955                 1.0832                 1.1085
 Frc consts  --      1.4235                 1.4417                 1.4911
 IR Inten    --      4.2232                 3.4403                 7.0532

                     58                     59                     60
                      A                      A                      A
 Frequencies --   1514.0646              1519.5446              1560.9814
 Red. masses --      1.1141                 1.1016                 1.0828
 Frc consts  --      1.5048                 1.4987                 1.5545
 IR Inten    --      5.2418                 4.8648                 7.2920

                     61                     62                     63
                      A                      A                      A
 Frequencies --   1689.2065              2367.1227              2974.0895
 Red. masses --      1.0933                12.5867                 1.0840
 Frc consts  --      1.8380                41.5530                 5.6490
 IR Inten    --     22.2818                 9.1906                75.3577

                     64                     65                     66
                      A                      A                      A
 Frequencies --   2996.5576              3023.0315              3025.3617
 Red. masses --      1.0578                 1.0914                 1.0973
 Frc consts  --      5.5964                 5.8767                 5.9172
 IR Inten    --     33.3546               103.4295                 9.1854

                     67                     68                     69
                      A                      A                      A
 Frequencies --   3059.6137              3067.5062              3072.6132
 Red. masses --      1.0620                 1.0597                 1.0643
 Frc consts  --      5.8575                 5.8750                 5.9199
 IR Inten    --     28.3122                 6.1182                23.8523

                     70                     71                     72
                      A                      A                      A
 Frequencies --   3074.4094              3084.7006              3098.7437
 Red. masses --      1.0581                 1.0592                 1.1040
 Frc consts  --      5.8924                 5.9382                 6.2460
 IR Inten    --     35.8030                12.9572                22.2980

                     73                     74                     75
                      A                      A                      A
 Frequencies --   3107.2500              3126.2015              3129.3380
 Red. masses --      1.1005                 1.1029                 1.1082
 Frc consts  --      6.2604                 6.3504                 6.3941
 IR Inten    --     13.6135                24.6613                35.3435

                     76                     77                     78
                      A                      A                      A
 Frequencies --   3143.1970              3447.3695              3531.5889
 Red. masses --      1.1095                 1.0496                 1.0920
 Frc consts  --      6.4582                 7.3493                 8.0244
 IR Inten    --     20.8729                 2.7786                 0.2137

 - Thermochemistry -
 -------------------
 Temperature   298.150 Kelvin.  Pressure   1.00000 Atm.
 Atom     1 has atomic number  6 and mass  12.00000

 Molecular mass:   168.12626 amu.
 Principal axes and moments of inertia in atomic units:
                           1         2         3
     Eigenvalues --  1210.509643821.177274331.45947
           X            0.99965   0.02534   0.00691
           Y           -0.02509   0.99909  -0.03435
           Z           -0.00777   0.03416   0.99939
 This molecule is an asymmetric top.
 Rotational symmetry number  1.
 Warning -- assumption of classical behavior for rotation
           may cause significant error
 Rotational temperatures (Kelvin)      0.07155     0.02267     0.02000
 Rotational constants (GHZ):           1.49089     0.47230     0.41666
 Zero-point vibrational energy     648984.0 (Joules/Mol)
                                  155.11091 (Kcal/Mol)
 Warning -- explicit consideration of  18 degrees of freedom as
           vibrations may cause significant error
 Vibrational temperatures:     37.38    57.33    74.60   133.72   172.43
          (Kelvin)            205.80   279.64   316.46   357.85   383.96
                              456.75   504.23   558.52   570.23   658.14
                              679.13   748.61   879.37   986.77  1067.87
                             1170.54  1185.30  1228.80  1279.46  1292.72
                             1322.47  1344.59  1357.78  1391.80  1420.79
                             1447.45  1503.22  1564.92  1594.74  1618.29
                             1627.44  1667.96  1688.16  1752.12  1759.49
                             1786.27  1795.88  1801.48  1848.66  1850.22
                             1863.30  1917.28  1958.50  1968.65  1986.00
                             2015.57  2034.12  2038.75  2094.82  2136.72
                             2162.44  2173.91  2178.40  2186.29  2245.90
                             2430.39  3405.76  4279.05  4311.38  4349.47
                             4352.82  4402.10  4413.46  4420.81  4423.39
                             4438.20  4458.40  4470.64  4497.91  4502.42
                             4522.36  4960.00  5081.17

 Zero-point correction=                           0.247185 (Hartree/Particle)
 Thermal correction to Energy=                    0.260164
 Thermal correction to Enthalpy=                  0.261108
 Thermal correction to Gibbs Free Energy=         0.206121
 Sum of electronic and zero-point Energies=           -537.058375
 Sum of electronic and thermal Energies=              -537.045396
 Sum of electronic and thermal Enthalpies=            -537.044452
 Sum of electronic and thermal Free Energies=         -537.099439

                     E (Thermal)             CV                S
                      KCal/Mol        Cal/Mol-Kelvin    Cal/Mol-Kelvin
 Total                  163.255             47.480            115.730
 Electronic               0.000              0.000              0.000
 Translational            0.889              2.981             41.267
 Rotational               0.889              2.981             31.372
 Vibrational            161.478             41.519             43.092
 Vibration     1          0.593              1.985              6.115
 Vibration     2          0.594              1.981              5.267
 Vibration     3          0.596              1.977              4.746
 Vibration     4          0.602              1.954              3.597
 Vibration     5          0.609              1.933              3.103
 Vibration     6          0.616              1.910              2.763
 Vibration     7          0.635              1.848              2.186
 Vibration     8          0.647              1.811              1.960
 Vibration     9          0.662              1.765              1.740
 Vibration    10          0.672              1.734              1.616
 Vibration    11          0.704              1.640              1.323
 Vibration    12          0.727              1.574              1.164
 Vibration    13          0.756              1.495              1.007
 Vibration    14          0.763              1.478              0.976
 Vibration    15          0.816              1.344              0.774
 Vibration    16          0.829              1.312              0.732
 Vibration    17          0.875              1.205              0.609
 Vibration    18          0.970              1.008              0.431

 Optimization completed.
    -- Stationary point found.
 Normal termination of Gaussian 16 at Wed Dec  9 17:27:38 2020.

 ----------------------------------------------------------------------
 # B3LYP/6-311++G(d,p) empiricaldispersion=gd3bj scf=xqc pop=npa geom=c
 heck
 ----------------------------------------------------------------------

 --------------------------------------
 CID_65982416_JID_2447_Energie_neutraal
 --------------------------------------
 Structure from the checkpoint file:  "JID_2447.chk"
 Charge =  0 Multiplicity = 1

 SCF Done:  E(RB3LYP) =  -537.466235529     A.U. after   13 cycles
 Normal termination of Gaussian 16 at Wed Dec  9 17:30:12 2020.

 ----------------------------------------------------------------------
 # B3LYP/6-311++G(d,p) empiricaldispersion=gd3bj scf=xqc pop=npa geom=c
 heck
 ----------------------------------------------------------------------

 ------------------------------------
 CID_65982416_JID_2447_Energie_kation
 ------------------------------------
 Structure from the checkpoint file:  "JID_2447.chk"
 Charge =  1 Multiplicity = 2

 SCF Done:  E(UB3LYP) =  -537.142988408     A.U. after   22 cycles
 Normal termination of Gaussian 16 at Wed Dec  9 17:35:40 2020.
 Gaussian 16:  ES64L-G16RevA.03 25-Dec-2016

 ----------------------------------------------------------------------
 # B3LYP/6-311++G(d,p) empiricaldispersion=gd3bj scf=xqc pop=npa geom=c
 heck
 ----------------------------------------------------------------------

 -----------------------------------
 CID_65982416_JID_2447_Energie_anion
 -----------------------------------
 Structure from the checkpoint file:  "JID_2447.chk"
 Charge = -1 Multiplicity = 2

                         Standard orientation:
 ---------------------------------------------------------------------
 Center     Atomic      Atomic             Coordinates (Angstroms)
 Number     Number       Type             X           Y           Z
 ---------------------------------------------------------------------
      1          6           0       -1.744460   -0.498797   -1.003010
      2          6           0       -2.500980   -0.704450    0.333785
      3          6           0       -2.657167    0.834796    0.432018
      4          6           0       -1.531529    0.989727   -0.609496
      5          8           0       -0.309109    1.229854    0.069266
      6          6           0        0.818529    1.263692   -0.790492
      7          6           0        2.065289    1.497553    0.054940
      8          6           0        2.177079    0.547012    1.254799
      9          6           0        2.011009   -0.944993    0.897819
     10          6           0        2.927929   -1.383039   -0.157273
     11          7           0        3.655826   -1.694824   -1.006309
     12          7           0       -3.743750   -1.460321    0.241464
     13          1           0       -0.852491   -1.103844   -1.194373
     14          1           0       -2.436665   -0.595734   -1.845190
     15          1           0       -1.806982   -1.062832    1.111972
     16          1           0       -3.626601    1.142843    0.029500
     17          1           0       -2.477972    1.316724    1.397067
     18          1           0       -1.669050    1.737298   -1.403794
     19          1           0        0.906393    0.318404   -1.347702
     20          1           0        0.705247    2.065561   -1.537673
     21          1           0        2.941903    1.389539   -0.595314
     22          1           0        2.064161    2.527673    0.429355
     23          1           0        3.144718    0.695912    1.746511
     24          1           0        1.396565    0.788025    1.982023
     25          1           0        2.175812   -1.566375    1.785579
     26          1           0        0.983626   -1.130134    0.564976
     27          1           0       -3.533685   -2.441156    0.055189
     28          1           0       -4.220838   -1.443726    1.143119
 ---------------------------------------------------------------------

 SCF Done:  E(UB3LYP) =  -537.455209834     A.U. after   30 cycles

 The electronic state is 2-A.
 Alpha  occ. eigenvalues --  -19.03528 -14.21354 -14.18939 -10.12955 -10.12759
 Alpha  occ. eigenvalues --  -10.11418 -10.11053 -10.09623 -10.08439 -10.08173
 Alpha  occ. eigenvalues --  -10.06894 -10.06672  -0.95026  -0.81161  -0.79171
 Alpha  occ. eigenvalues --   -0.73040  -0.71240  -0.65464  -0.58366  -0.56731
 Alpha  occ. eigenvalues --   -0.53446  -0.49435  -0.45159  -0.42016  -0.41249
 Alpha  occ. eigenvalues --   -0.40031  -0.38611  -0.37776  -0.37044  -0.34953
 Alpha  occ. eigenvalues --   -0.34451  -0.32842  -0.29980  -0.28927  -0.27747
 Alpha  occ. eigenvalues --   -0.27227  -0.26592  -0.25816  -0.24858  -0.24039
 Alpha  occ. eigenvalues --   -0.22881  -0.22714  -0.22400  -0.20945  -0.17066
 Alpha  occ. eigenvalues --   -0.13932   0.04431
 Alpha virt. eigenvalues --    0.06518   0.07155   0.08226   0.08571   0.09343
 Alpha virt. eigenvalues --    0.09808   0.10355   0.10768   0.11654   0.11872
 Alpha virt. eigenvalues --    0.12226   0.12383   0.13099   0.13315   0.13613

  Beta  occ. eigenvalues --  -19.03520 -14.21340 -14.18886 -10.12950 -10.12754
  Beta  occ. eigenvalues --  -10.11416 -10.11007 -10.09599 -10.08413 -10.08164
  Beta  occ. eigenvalues --  -10.06884 -10.06662  -0.95016  -0.81132  -0.79104
  Beta  occ. eigenvalues --   -0.72994  -0.71184  -0.65412  -0.58318  -0.56693
  Beta  occ. eigenvalues --   -0.53391  -0.49389  -0.45108  -0.41979  -0.41191
  Beta  occ. eigenvalues --   -0.39986  -0.38558  -0.37720  -0.36983  -0.34915
  Beta  occ. eigenvalues --   -0.34401  -0.32810  -0.29942  -0.28901  -0.27720
  Beta  occ. eigenvalues --   -0.27189  -0.26553  -0.25790  -0.24832  -0.24014
  Beta  occ. eigenvalues --   -0.22835  -0.22684  -0.22359  -0.20916  -0.17051
  Beta  occ. eigenvalues --   -0.13880
  Beta virt. eigenvalues --    0.06660   0.07534   0.07704   0.08615   0.08973
  Beta virt. eigenvalues --    0.09833   0.10179   0.10719   0.11097   0.11920
  Beta virt. eigenvalues --    0.12343   0.12528   0.12632   0.13348   0.13469

 Mulliken charges and spin densities:
               1          2
     1  C   -0.133110  -0.098130
     2  C    0.602423  -0.863706
     3  C    0.420351  -0.986850
     4  C   -0.372757   0.371013
     5  O   -0.046335   0.037402
     6  C    0.365182  -0.623057
     7  C   -0.651429   0.279928
     8  C    0.113040  -0.469826
     9  C   -0.329063   0.526155
    10  C    1.329903  -1.555105
    11  N   -0.385159   0.056471
    12  N   -0.388311   0.098011
    13  H   -0.079067   0.234037
    14  H    0.084443   0.066531
    15  H   -0.587502   0.776752
    16  H    0.171864  -0.021058
    17  H   -0.122415   0.277462
    18  H    0.131410   0.015032
    19  H    0.073075   0.049063
    20  H    0.158692  -0.041145
    21  H    0.095671   0.066428
    22  H   -0.110472   0.275274
    23  H   -0.227574   0.392581
    24  H   -0.101501   0.307788
    25  H   -1.037110   1.277879
    26  H    0.493112  -0.384925
    27  H   -0.268123   0.505844
    28  H   -0.199239   0.430150
 Sum of Mulliken charges =  -1.00000   1.00000

 Dipole moment (field-independent basis, Debye):
    X=              0.1255    Y=              6.6472    Z=             -5.2404  Tot=              8.4653
 Quadrupole moment (field-independent basis, Debye-Ang):
   XX=           -153.2221   YY=           -115.7327   ZZ=           -113.2845
   XY=             -3.1787   XZ=              4.0534   YZ=              1.7144

 Summary of Natural Population Analysis:

                                       Natural Population
                Natural  -----------------------------------------------
    Atom  No    Charge         Core      Valence    Rydberg      Total
 -----------------------------------------------------------------------
      C    1   -0.20444      0.99960     2.19627    0.00856     3.20444
      C    2   -0.01535      0.99960     2.00119    0.01456     3.01535
      C    3   -0.19490      0.99960     2.18564    0.00965     3.19490
      C    4    0.06833      0.99956     1.91839    0.01371     2.93167
      O    5   -0.30639      0.99987     3.29657    0.00995     4.30639
      C    6   -0.01016      0.99958     2.00057    0.01002     3.01016
      C    7   -0.20070      0.99962     2.19160    0.00949     3.20070
      C    8   -0.18252      0.99962     2.17290    0.00999     3.18252
      C    9   -0.25408      0.99954     2.24360    0.01094     3.25408
      C   10    0.16623      0.99966     1.81754    0.01657     2.83377
      N   11   -0.19504      0.99979     2.68411    0.01114     3.69504
      N   12   -0.42546      0.99976     2.91474    0.01096     3.92546
      H   13    0.09958      0.00000     0.39932    0.00110     0.40042
      H   14    0.10275      0.00000     0.39597    0.00129     0.39725
      H   15    0.08767      0.00000     0.40758    0.00475     0.41233
      H   16    0.10148      0.00000     0.39729    0.00124     0.39852
      H   17    0.10488      0.00000     0.39384    0.00128     0.39512
      H   18    0.07615      0.00000     0.42268    0.00117     0.42385
      H   19    0.08127      0.00000     0.41694    0.00178     0.41873
      H   20    0.07953      0.00000     0.41916    0.00131     0.42047
      H   21    0.10170      0.00000     0.39745    0.00085     0.39830
      H   22    0.10100      0.00000     0.39796    0.00105     0.39900
      H   23    0.10049      0.00000     0.39800    0.00151     0.39951
      H   24    0.11036      0.00000     0.38744    0.00220     0.38964
      H   25    0.12860      0.00000     0.36697    0.00443     0.37140
      H   26    0.12268      0.00000     0.37416    0.00315     0.37732
      H   27    0.17820      0.00000     0.31833    0.00347     0.32180
      H   28    0.17813      0.00000     0.31833    0.00354     0.32187
 =======================================================================
   * Total *   -0.00000     11.99580    33.83453    0.16967    46.00000

 Normal termination of Gaussian 16 at Wed Dec  9 17:43:48 2020.
