 Gaussian 16, Revision A.03,

 -----------------------------------------------------------
 # opt freq B3LYP/6-31G(d) empiricaldispersion=gd3bj scf=xqc
 -----------------------------------------------------------

 ------------------------------
 CID_118978052_JID_387_neutraal
 ------------------------------
 Symbolic Z-matrix:
 Charge =  0 Multiplicity = 1

 SCF Done:  E(RB3LYP) =  -894.309601941     A.U. after   15 cycles
 SCF Done:  E(RB3LYP) =  -894.317694718     A.U. after   13 cycles
 SCF Done:  E(RB3LYP) =  -894.319709617     A.U. after   13 cycles
 SCF Done:  E(RB3LYP) =  -894.321484793     A.U. after   13 cycles
 SCF Done:  E(RB3LYP) =  -894.323207018     A.U. after   14 cycles
 SCF Done:  E(RB3LYP) =  -894.323758109     A.U. after   12 cycles
 SCF Done:  E(RB3LYP) =  -894.323932320     A.U. after   11 cycles
 SCF Done:  E(RB3LYP) =  -894.323983082     A.U. after   11 cycles
 SCF Done:  E(RB3LYP) =  -894.324013800     A.U. after   10 cycles
 SCF Done:  E(RB3LYP) =  -894.324080019     A.U. after   11 cycles
 SCF Done:  E(RB3LYP) =  -894.324260096     A.U. after    8 cycles
 SCF Done:  E(RB3LYP) =  -894.324260933     A.U. after    9 cycles
 SCF Done:  E(RB3LYP) =  -894.324261516     A.U. after    9 cycles
 SCF Done:  E(RB3LYP) =  -894.324261758     A.U. after    8 cycles
 SCF Done:  E(RB3LYP) =  -894.324261798     A.U. after    7 cycles
 Optimization completed.
    -- Stationary point found.
 Normal termination of Gaussian 16 at Tue Dec  8 10:37:42 2020.

 --------------------------------------------------------------------
 #N Geom=AllCheck Guess=TCheck SCRF=Check GenChk RB3LYP/6-31G(d) Freq
 --------------------------------------------------------------------

 Structure from the checkpoint file:  "JID_387.chk"
 ------------------------------
 CID_118978052_JID_387_neutraal
 ------------------------------
 Charge =  0 Multiplicity = 1

 SCF Done:  E(RB3LYP) =  -894.324261798     A.U. after    1 cycles

  Exact polarizability:  95.101 -10.411  81.921  -0.077  -1.883  59.838
 Approx polarizability: 121.151 -21.461 144.990   1.385  -0.679  92.371

                      1                      2                      3
                      A                      A                      A
 Frequencies --     31.6913                56.3337                92.2014
 Red. masses --      5.5302                 4.4036                 2.7883
 Frc consts  --      0.0033                 0.0082                 0.0140
 IR Inten    --      0.0786                 2.7183                 0.3742

                      4                      5                      6
                      A                      A                      A
 Frequencies --    115.2047               155.2271               211.8568
 Red. masses --      2.9060                 2.5381                 3.8639
 Frc consts  --      0.0227                 0.0360                 0.1022
 IR Inten    --      8.0541                24.5852                18.6850

                      7                      8                      9
                      A                      A                      A
 Frequencies --    224.6013               282.5775               321.9882
 Red. masses --      2.0578                 3.6565                 4.1953
 Frc consts  --      0.0612                 0.1720                 0.2563
 IR Inten    --     52.7831                11.0569                 3.8043

                     10                     11                     12
                      A                      A                      A
 Frequencies --    356.5504               367.3154               428.3476
 Red. masses --      2.2990                 4.2884                 5.6950
 Frc consts  --      0.1722                 0.3409                 0.6157
 IR Inten    --      2.1285                22.2540                11.0480

                     13                     14                     15
                      A                      A                      A
 Frequencies --    455.3708               482.2563               571.3046
 Red. masses --      3.6209                 4.1717                 3.9517
 Frc consts  --      0.4424                 0.5716                 0.7599
 IR Inten    --      6.1723                25.9497                87.7525

                     16                     17                     18
                      A                      A                      A
 Frequencies --    605.1869               657.2640               714.7258
 Red. masses --      6.1231                 2.0035                 2.7288
 Frc consts  --      1.3213                 0.5099                 0.8213
 IR Inten    --     10.9030                17.7222                13.3520

                     19                     20                     21
                      A                      A                      A
 Frequencies --    733.7918               808.0776               878.0111
 Red. masses --      1.2820                10.7941                 1.3137
 Frc consts  --      0.4067                 4.1528                 0.5967
 IR Inten    --     11.7134               218.3281                58.5245

                     22                     23                     24
                      A                      A                      A
 Frequencies --    909.8684               941.5672               962.6765
 Red. masses --      2.4379                 1.5873                 1.3543
 Frc consts  --      1.1891                 0.8291                 0.7395
 IR Inten    --     31.4986                14.7350                37.2928

                     25                     26                     27
                      A                      A                      A
 Frequencies --   1007.0597              1038.7393              1064.2898
 Red. masses --      1.7137                 1.2521                 3.2157
 Frc consts  --      1.0240                 0.7960                 2.1461
 IR Inten    --      7.1049                24.2234                92.8057

                     28                     29                     30
                      A                      A                      A
 Frequencies --   1148.3030              1171.4420              1184.2738
 Red. masses --      8.9080                 1.2821                 2.0337
 Frc consts  --      6.9206                 1.0366                 1.6805
 IR Inten    --    222.6562               117.7870                 6.9021

                     31                     32                     33
                      A                      A                      A
 Frequencies --   1264.3919              1303.9325              1329.0893
 Red. masses --      3.7750                 1.1628                 1.2686
 Frc consts  --      3.5557                 1.1648                 1.3204
 IR Inten    --    108.0380                12.3823                 3.2606

                     34                     35                     36
                      A                      A                      A
 Frequencies --   1385.8511              1394.9620              1452.7692
 Red. masses --      6.1261                 1.2862                 1.2215
 Frc consts  --      6.9321                 1.4747                 1.5189
 IR Inten    --    189.2342                19.3073                16.3556

                     37                     38                     39
                      A                      A                      A
 Frequencies --   1479.2059              1518.0580              1722.3399
 Red. masses --      1.2059                 1.0992                 6.2240
 Frc consts  --      1.5547                 1.4925                10.8782
 IR Inten    --      7.8119                11.4679                96.5401

                     40                     41                     42
                      A                      A                      A
 Frequencies --   1735.0354              3057.2959              3113.7749
 Red. masses --      4.5185                 1.0607                 1.1047
 Frc consts  --      8.0142                 5.8417                 6.3104
 IR Inten    --      0.3158                26.0836                10.9693

                     43                     44                     45
                      A                      A                      A
 Frequencies --   3159.2381              3177.3113              3218.3024
 Red. masses --      1.0602                 1.0929                 1.0585
 Frc consts  --      6.2345                 6.5007                 6.4592
 IR Inten    --      6.9813                 4.8362                 5.0305

                     46                     47                     48
                      A                      A                      A
 Frequencies --   3245.6288              3309.2800              3702.2915
 Red. masses --      1.1148                 1.1181                 1.0657
 Frc consts  --      6.9190                 7.2145                 8.6064
 IR Inten    --     11.6999                 0.7216                97.4159

 - Thermochemistry -
 -------------------
 Temperature   298.150 Kelvin.  Pressure   1.00000 Atm.
 Atom     1 has atomic number  6 and mass  12.00000

 Molecular mass:   164.01433 amu.
 Principal axes and moments of inertia in atomic units:
                           1         2         3
     Eigenvalues --   695.771992844.676453029.04401
           X            0.99996  -0.00907   0.00209
           Y            0.00915   0.99885  -0.04697
           Z           -0.00166   0.04699   0.99889
 This molecule is an asymmetric top.
 Rotational symmetry number  1.
 Warning -- assumption of classical behavior for rotation
           may cause significant error
 Rotational temperatures (Kelvin)      0.12449     0.03045     0.02859
 Rotational constants (GHZ):           2.59387     0.63443     0.59581
 Zero-point vibrational energy     350188.0 (Joules/Mol)
                                   83.69694 (Kcal/Mol)
 Warning -- explicit consideration of  16 degrees of freedom as
           vibrations may cause significant error
 Vibrational temperatures:     45.60    81.05   132.66   165.75   223.34
          (Kelvin)            304.81   323.15   406.57   463.27   513.00
                              528.48   616.30   655.18   693.86   821.98
                              870.73   945.66  1028.33  1055.76  1162.64
                             1263.26  1309.10  1354.71  1385.08  1448.93
                             1494.51  1531.28  1652.15  1685.44  1703.91
                             1819.18  1876.07  1912.26  1993.93  2007.04
                             2090.21  2128.25  2184.15  2478.06  2496.33
                             4398.77  4480.03  4545.44  4571.44  4630.42
                             4669.74  4761.32  5326.77

 Zero-point correction=                           0.133380 (Hartree/Particle)
 Thermal correction to Energy=                    0.144544
 Thermal correction to Enthalpy=                  0.145488
 Thermal correction to Gibbs Free Energy=         0.095344
 Sum of electronic and zero-point Energies=           -894.190882
 Sum of electronic and thermal Energies=              -894.179717
 Sum of electronic and thermal Enthalpies=            -894.178773
 Sum of electronic and thermal Free Energies=         -894.228918

                     E (Thermal)             CV                S
                      KCal/Mol        Cal/Mol-Kelvin    Cal/Mol-Kelvin
 Total                   90.703             39.606            105.538
 Electronic               0.000              0.000              0.000
 Translational            0.889              2.981             41.193
 Rotational               0.889              2.981             30.173
 Vibrational             88.925             33.644             34.172
 Vibration     1          0.594              1.983              5.721
 Vibration     2          0.596              1.975              4.582
 Vibration     3          0.602              1.955              3.613
 Vibration     4          0.608              1.937              3.179
 Vibration     5          0.620              1.897              2.607
 Vibration     6          0.643              1.823              2.028
 Vibration     7          0.649              1.804              1.922
 Vibration     8          0.682              1.706              1.518
 Vibration     9          0.707              1.631              1.300
 Vibration    10          0.732              1.562              1.137
 Vibration    11          0.740              1.539              1.091
 Vibration    12          0.790              1.409              0.864
 Vibration    13          0.814              1.349              0.780
 Vibration    14          0.838              1.289              0.704
 Vibration    15          0.927              1.093              0.502
 Vibration    16          0.964              1.021              0.441

                           ! Non-Optimized Parameters !
 Normal termination of Gaussian 16 at Tue Dec  8 10:41:42 2020.

 ----------------------------------------------------------------------
 # B3LYP/6-311++G(d,p) empiricaldispersion=gd3bj scf=xqc pop=npa geom=c
 heck
 ----------------------------------------------------------------------

 --------------------------------------
 CID_118978052_JID_387_Energie_neutraal
 --------------------------------------
 Structure from the checkpoint file:  "JID_387.chk"
 Charge =  0 Multiplicity = 1

 SCF Done:  E(RB3LYP) =  -894.508139288     A.U. after   14 cycles
 Normal termination of Gaussian 16 at Tue Dec  8 10:44:24 2020.

 ----------------------------------------------------------------------
 # B3LYP/6-311++G(d,p) empiricaldispersion=gd3bj scf=xqc pop=npa geom=c
 heck
 ----------------------------------------------------------------------

 ------------------------------------
 CID_118978052_JID_387_Energie_kation
 ------------------------------------
 Structure from the checkpoint file:  "JID_387.chk"
 Charge =  1 Multiplicity = 2

 SCF Done:  E(UB3LYP) =  -894.153730138     A.U. after   22 cycles
 Normal termination of Gaussian 16 at Tue Dec  8 10:47:58 2020.
 Gaussian 16:  ES64L-G16RevA.03 25-Dec-2016

 ----------------------------------------------------------------------
 # B3LYP/6-311++G(d,p) empiricaldispersion=gd3bj scf=xqc pop=npa geom=c
 heck
 ----------------------------------------------------------------------

 -----------------------------------
 CID_118978052_JID_387_Energie_anion
 -----------------------------------
 Structure from the checkpoint file:  "JID_387.chk"
 Charge = -1 Multiplicity = 2

                         Standard orientation:
 ---------------------------------------------------------------------
 Center     Atomic      Atomic             Coordinates (Angstroms)
 Number     Number       Type             X           Y           Z
 ---------------------------------------------------------------------
      1          6           0       -3.963096    0.479496    0.342202
      2          6           0       -2.947947   -0.369925    0.490266
      3          6           0       -2.066933   -0.823282   -0.637224
      4          8           0       -0.671530   -0.832251   -0.280908
      5          6           0       -0.032046    0.355023   -0.224548
      6          6           0       -0.478771    1.604787   -0.338420
      7         16           0        1.729532    0.045265   -0.015341
      8          8           0        2.174093   -0.854114   -1.075281
      9          8           0        2.397596    1.301511    0.273079
     10          8           0        1.723334   -0.802702    1.389464
     11          1           0       -4.192106    0.934534   -0.619658
     12          1           0       -4.611017    0.745982    1.171736
     13          1           0       -2.730760   -0.814812    1.460085
     14          1           0       -2.268878   -1.868051   -0.892444
     15          1           0       -2.210793   -0.210434   -1.535589
     16          1           0        0.227976    2.421320   -0.273168
     17          1           0       -1.528881    1.831590   -0.466815
     18          1           0        1.586761   -1.740523    1.156834
 ---------------------------------------------------------------------

 SCF Done:  E(UB3LYP) =  -894.497930963     A.U. after   33 cycles
 SCF Done:  E(UB3LYP) =  -894.497930963     a.u. after    2 cycles

 The electronic state is 2-A.
 Alpha  occ. eigenvalues --  -88.97848 -19.07083 -19.06805 -19.02927 -19.02632
 Alpha  occ. eigenvalues --  -10.16761 -10.13429 -10.07978 -10.07608 -10.06938
 Alpha  occ. eigenvalues --   -8.03954  -6.00332  -6.00156  -6.00005  -1.05133
 Alpha  occ. eigenvalues --   -0.98652  -0.93853  -0.92258  -0.71287  -0.68397
 Alpha  occ. eigenvalues --   -0.61277  -0.57855  -0.49935  -0.47569  -0.45364
 Alpha  occ. eigenvalues --   -0.41868  -0.40977  -0.37737  -0.36969  -0.35953
 Alpha  occ. eigenvalues --   -0.34515  -0.33761  -0.32314  -0.29963  -0.26748
 Alpha  occ. eigenvalues --   -0.26203  -0.25537  -0.24248  -0.23216  -0.22282
 Alpha  occ. eigenvalues --   -0.21434  -0.17508  -0.15873   0.04752
 Alpha virt. eigenvalues --    0.06961   0.07397   0.07831   0.08487   0.09334
 Alpha virt. eigenvalues --    0.10155   0.11246   0.11828   0.12842   0.14710
 Alpha virt. eigenvalues --    0.14990   0.15377   0.16151   0.16778   0.17240

  Beta  occ. eigenvalues --  -88.97832 -19.07044 -19.06709 -19.02903 -19.02607
  Beta  occ. eigenvalues --  -10.16735 -10.13402 -10.07952 -10.07509 -10.06883
  Beta  occ. eigenvalues --   -8.03937  -6.00298  -6.00144  -5.99993  -1.05034
  Beta  occ. eigenvalues --   -0.98587  -0.93667  -0.92200  -0.71168  -0.68258
  Beta  occ. eigenvalues --   -0.61191  -0.57733  -0.49783  -0.47390  -0.45258
  Beta  occ. eigenvalues --   -0.41810  -0.40908  -0.37685  -0.36849  -0.35829
  Beta  occ. eigenvalues --   -0.34439  -0.33683  -0.32260  -0.29847  -0.26662
  Beta  occ. eigenvalues --   -0.26120  -0.25442  -0.24150  -0.23149  -0.22196
  Beta  occ. eigenvalues --   -0.21373  -0.17079  -0.15702
  Beta virt. eigenvalues --    0.07353   0.07601   0.08085   0.08877   0.09070
  Beta virt. eigenvalues --    0.09897   0.10919   0.11930   0.12204   0.12997
  Beta virt. eigenvalues --    0.14735   0.15072   0.15674   0.16171   0.16791

 Mulliken charges and spin densities:
               1          2
     1  C    0.620545  -1.104373
     2  C   -1.438244   1.791907
     3  C    1.979609  -2.488707
     4  O   -0.111070   0.093872
     5  C   -1.334611   0.749909
     6  C    0.379176  -0.430007
     7  S    1.380640  -0.891954
     8  O   -0.217529   0.017335
     9  O   -0.184080   0.005117
    10  O   -0.137250  -0.084605
    11  H   -0.457343   0.572757
    12  H   -0.065684   0.179239
    13  H   -0.517167   0.701435
    14  H   -0.710857   0.912125
    15  H   -0.146113   0.317468
    16  H    0.050187   0.141319
    17  H    0.296415  -0.173336
    18  H   -0.386624   0.690499
 Sum of Mulliken charges =  -1.00000   1.00000

 Dipole moment (field-independent basis, Debye):
    X=              2.0417    Y=              4.5101    Z=             -0.5404  Tot=              4.9801
 Quadrupole moment (field-independent basis, Debye-Ang):
   XX=           -131.1969   YY=            -98.2309   ZZ=            -93.5705
   XY=             -5.3168   XZ=             -2.4389   YZ=             -0.3007

 Summary of Natural Population Analysis:

                                       Natural Population
                Natural  -----------------------------------------------
    Atom  No    Charge         Core      Valence    Rydberg      Total
 -----------------------------------------------------------------------
      C    1   -0.18252      0.99956     2.17511    0.00785     3.18252
      C    2   -0.08965      0.99956     2.07864    0.01146     3.08965
      C    3   -0.02705      0.99952     2.01340    0.01412     3.02705
      O    4   -0.27613      0.99985     3.26066    0.01562     4.27613
      C    5    0.05936      0.99934     1.91967    0.02164     2.94064
      C    6   -0.23374      0.99949     2.22572    0.00853     3.23374
      S    7    1.11851      4.99926     1.77698    0.10525     6.88149
      O    8   -0.44789      0.99990     3.44211    0.00588     4.44789
      O    9   -0.44976      0.99990     3.44420    0.00567     4.44976
      O   10   -0.43083      0.99991     3.42411    0.00681     4.43083
      H   11    0.08947      0.00000     0.40916    0.00137     0.41053
      H   12    0.09595      0.00000     0.40301    0.00104     0.40405
      H   13    0.09856      0.00000     0.40008    0.00136     0.40144
      H   14    0.10881      0.00000     0.38460    0.00659     0.39119
      H   15    0.08768      0.00000     0.41035    0.00196     0.41232
      H   16    0.11507      0.00000     0.38406    0.00087     0.38493
      H   17    0.10826      0.00000     0.39069    0.00105     0.39174
      H   18    0.25590      0.00000     0.22708    0.01702     0.24410
 =======================================================================
   * Total *    0.00000     13.99629    28.76962    0.23409    43.00000

 Normal termination of Gaussian 16 at Tue Dec  8 10:56:14 2020.
