 Gaussian 16, Revision A.03,

 -----------------------------------------------------------
 # opt freq B3LYP/6-31G(d) empiricaldispersion=gd3bj scf=xqc
 -----------------------------------------------------------

 -------------------------------
 CID_113875301_JID_8507_neutraal
 -------------------------------
 Symbolic Z-matrix:
 Charge =  0 Multiplicity = 1

 SCF Done:  E(RB3LYP) =  -1180.64106892     A.U. after   15 cycles
 SCF Done:  E(RB3LYP) =  -1180.65023868     A.U. after   13 cycles
 SCF Done:  E(RB3LYP) =  -1180.64990499     A.U. after   13 cycles
 SCF Done:  E(RB3LYP) =  -1180.65252187     A.U. after   13 cycles
 SCF Done:  E(RB3LYP) =  -1180.65399661     A.U. after   14 cycles
 SCF Done:  E(RB3LYP) =  -1180.64364319     A.U. after   16 cycles
 SCF Done:  E(RB3LYP) =  -1180.65127949     A.U. after   13 cycles
 SCF Done:  E(RB3LYP) =  -1180.65498717     A.U. after   11 cycles
 SCF Done:  E(RB3LYP) =  -1180.65595830     A.U. after   15 cycles
 SCF Done:  E(RB3LYP) =  -1180.65122238     A.U. after   13 cycles
 SCF Done:  E(RB3LYP) =  -1180.65780601     A.U. after   10 cycles
 SCF Done:  E(RB3LYP) =  -1180.65780621     A.U. after    9 cycles
 SCF Done:  E(RB3LYP) =  -1180.65780624     A.U. after    8 cycles
 SCF Done:  E(RB3LYP) =  -1180.65780555     A.U. after    9 cycles
 SCF Done:  E(RB3LYP) =  -1180.65780616     A.U. after    8 cycles
 SCF Done:  E(RB3LYP) =  -1180.65780626     A.U. after    8 cycles
 Optimization completed.
    -- Stationary point found.
 Normal termination of Gaussian 16 at Fri Dec 11 21:10:23 2020.

 --------------------------------------------------------------------
 #N Geom=AllCheck Guess=TCheck SCRF=Check GenChk RB3LYP/6-31G(d) Freq
 --------------------------------------------------------------------

 Structure from the checkpoint file:  "JID_8507.chk"
 -------------------------------
 CID_113875301_JID_8507_neutraal
 -------------------------------
 Charge =  0 Multiplicity = 1

 SCF Done:  E(RB3LYP) =  -1180.65780626     A.U. after    1 cycles

  Exact polarizability: 242.030  -1.293 198.408  -0.004  -0.004  79.970
 Approx polarizability: 367.803   0.213 354.310  -0.006  -0.024 124.871

                      1                      2                      3
                      A                      A                      A
 Frequencies --      7.1761                25.3839                62.1520
 Red. masses --      9.8922                 7.3482                 9.2319
 Frc consts  --      0.0003                 0.0028                 0.0210
 IR Inten    --      1.1077                 0.2894                 1.3459

                      4                      5                      6
                      A                      A                      A
 Frequencies --     62.5461                93.7721               139.9656
 Red. masses --      5.0096                 4.0443                 5.3058
 Frc consts  --      0.0115                 0.0210                 0.0612
 IR Inten    --      0.1808                 0.0280                 6.2701

                      7                      8                      9
                      A                      A                      A
 Frequencies --    141.1002               186.3982               213.8772
 Red. masses --      3.6823                 4.9461                 4.3793
 Frc consts  --      0.0432                 0.1012                 0.1180
 IR Inten    --      0.9205                 0.7112                 4.2293

                     10                     11                     12
                      A                      A                      A
 Frequencies --    228.3079               302.8969               309.2320
 Red. masses --      5.4451                 3.7885                 5.3806
 Frc consts  --      0.1672                 0.2048                 0.3031
 IR Inten    --      2.2122                 3.3482                 0.4249

                     13                     14                     15
                      A                      A                      A
 Frequencies --    311.3837               360.6903               416.0879
 Red. masses --      7.5935                 7.9048                 4.5570
 Frc consts  --      0.4338                 0.6059                 0.4648
 IR Inten    --      1.9415                 2.0202                 3.1313

                     16                     17                     18
                      A                      A                      A
 Frequencies --    416.7529               442.1182               475.3484
 Red. masses --      3.2812                 7.7298                 3.7559
 Frc consts  --      0.3358                 0.8902                 0.5000
 IR Inten    --      2.5810                 3.8617                 2.4231

                     19                     20                     21
                      A                      A                      A
 Frequencies --    549.4863               550.2587               552.3568
 Red. masses --      6.3468                 8.4230                 2.5673
 Frc consts  --      1.1291                 1.5026                 0.4615
 IR Inten    --      7.2787                11.2180                 4.1859

                     22                     23                     24
                      A                      A                      A
 Frequencies --    576.1106               615.0138               637.5278
 Red. masses --      3.7928                 7.5074                 1.4083
 Frc consts  --      0.7417                 1.6730                 0.3372
 IR Inten    --     19.7350                13.8341               104.4879

                     25                     26                     27
                      A                      A                      A
 Frequencies --    665.4847               682.9171               723.5562
 Red. masses --      5.0146                 5.4279                 4.8930
 Frc consts  --      1.3085                 1.4915                 1.5093
 IR Inten    --      2.4247                 5.7976                44.2744

                     28                     29                     30
                      A                      A                      A
 Frequencies --    758.2022               787.2404               801.2937
 Red. masses --      2.4683                 2.0534                 3.7349
 Frc consts  --      0.8360                 0.7498                 1.4129
 IR Inten    --      2.3952                68.6293                 4.6646

                     31                     32                     33
                      A                      A                      A
 Frequencies --    810.5346               840.6127               885.0408
 Red. masses --      5.9653                 4.9151                 1.6066
 Frc consts  --      2.3090                 2.0463                 0.7415
 IR Inten    --      3.7769                38.9724                 0.8801

                     34                     35                     36
                      A                      A                      A
 Frequencies --    909.5415               932.4116               964.1698
 Red. masses --      1.1881                 3.4373                 1.3346
 Frc consts  --      0.5791                 1.7607                 0.7310
 IR Inten    --      0.0023                 8.6154                 0.1485

                     37                     38                     39
                      A                      A                      A
 Frequencies --    974.2069               985.8564              1004.5370
 Red. masses --      7.2502                 1.4321                 1.2943
 Frc consts  --      4.0542                 0.8201                 0.7695
 IR Inten    --     66.8424                 4.1304                 0.0955

                     40                     41                     42
                      A                      A                      A
 Frequencies --   1027.2163              1034.8112              1044.5810
 Red. masses --      5.0518                 7.3005                 6.2002
 Frc consts  --      3.1406                 4.6060                 3.9860
 IR Inten    --     17.8866                26.3216                71.3942

                     43                     44                     45
                      A                      A                      A
 Frequencies --   1065.6421              1073.7944              1118.0398
 Red. masses --      2.3322                 2.4154                 2.4142
 Frc consts  --      1.5604                 1.6409                 1.7780
 IR Inten    --     16.5255                 8.6063                 0.5032

                     46                     47                     48
                      A                      A                      A
 Frequencies --   1158.7640              1166.8462              1170.0465
 Red. masses --      3.4896                 1.0812                 1.2090
 Frc consts  --      2.7607                 0.8673                 0.9752
 IR Inten    --    257.6178                 0.0633                 5.3174

                     49                     50                     51
                      A                      A                      A
 Frequencies --   1192.6218              1207.2998              1220.6474
 Red. masses --      1.5693                 1.4665                 2.0887
 Frc consts  --      1.3152                 1.2594                 1.8336
 IR Inten    --      7.2815               130.6508               167.1219

                     52                     53                     54
                      A                      A                      A
 Frequencies --   1262.9791              1270.6196              1300.2189
 Red. masses --      1.2761                 1.7900                 1.7610
 Frc consts  --      1.1993                 1.7027                 1.7540
 IR Inten    --      4.1739                15.4401                18.3617

                     55                     56                     57
                      A                      A                      A
 Frequencies --   1316.8134              1322.7207              1342.7725
 Red. masses --      1.6586                 1.2582                 2.0144
 Frc consts  --      1.6945                 1.2970                 2.1399
 IR Inten    --     13.9054                 1.3566                29.4071

                     58                     59                     60
                      A                      A                      A
 Frequencies --   1381.1367              1389.6295              1396.2213
 Red. masses --      2.7341                 7.5454                 1.4256
 Frc consts  --      3.0729                 8.5848                 1.6374
 IR Inten    --    196.4992                18.8524                 0.6692

                     61                     62                     63
                      A                      A                      A
 Frequencies --   1416.6447              1450.6799              1494.8166
 Red. masses --      4.0964                 2.3336                 2.2200
 Frc consts  --      4.8437                 2.8934                 2.9227
 IR Inten    --     10.4943                 4.8388                 2.2820

                     64                     65                     66
                      A                      A                      A
 Frequencies --   1526.8073              1552.2718              1558.6977
 Red. masses --      1.0807                 1.2108                 2.6168
 Frc consts  --      1.4843                 1.7189                 3.7459
 IR Inten    --      0.3324                27.2757               132.1560

                     67                     68                     69
                      A                      A                      A
 Frequencies --   1598.8941              1622.1276              1676.3484
 Red. masses --      5.7523                 6.2685                 5.4607
 Frc consts  --      8.6642                 9.7181                 9.0413
 IR Inten    --     13.0202               136.9180                11.5901

                     70                     71                     72
                      A                      A                      A
 Frequencies --   1805.9089              3051.5336              3057.3601
 Red. masses --      9.3072                 1.0613                 1.0693
 Frc consts  --     17.8838                 5.8225                 5.8891
 IR Inten    --    335.3873               111.8893                52.9016

                     73                     74                     75
                      A                      A                      A
 Frequencies --   3099.5457              3130.6553              3136.2241
 Red. masses --      1.0853                 1.1019                 1.1025
 Frc consts  --      6.1434                 6.3632                 6.3893
 IR Inten    --      5.9766                 4.0031                57.3218

                     76                     77                     78
                      A                      A                      A
 Frequencies --   3194.0538              3207.6341              3221.6543
 Red. masses --      1.0873                 1.0906                 1.0956
 Frc consts  --      6.5357                 6.6114                 6.6998
 IR Inten    --      6.3334                19.9126                 8.9706

                     79                     80                     81
                      A                      A                      A
 Frequencies --   3228.4650              3287.9494              3683.6687
 Red. masses --      1.0913                 1.0908                 1.0639
 Frc consts  --      6.7018                 6.9478                 8.5056
 IR Inten    --      1.2857                 4.6423                83.2680

 - Thermochemistry -
 -------------------
 Temperature   298.150 Kelvin.  Pressure   1.00000 Atm.
 Atom     1 has atomic number  6 and mass  12.00000

 Molecular mass:   261.04597 amu.
 Principal axes and moments of inertia in atomic units:
                           1         2         3
     Eigenvalues --  3077.671816545.445979356.87509
           X            0.99986  -0.01645   0.00000
           Y            0.01645   0.99986   0.00001
           Z           -0.00000  -0.00001   1.00000
 This molecule is an asymmetric top.
 Rotational symmetry number  1.
 Warning -- assumption of classical behavior for rotation
           may cause significant error
 Rotational temperatures (Kelvin)      0.02814     0.01323     0.00926
 Rotational constants (GHZ):           0.58640     0.27572     0.19288
 Zero-point vibrational energy     579392.8 (Joules/Mol)
                                  138.47820 (Kcal/Mol)
 Warning -- explicit consideration of  23 degrees of freedom as
           vibrations may cause significant error
 Vibrational temperatures:     10.32    36.52    89.42    89.99   134.92
          (Kelvin)            201.38   203.01   268.19   307.72   328.48
                              435.80   444.92   448.01   518.95   598.66
                              599.61   636.11   683.92   790.59   791.70
                              794.72   828.89   884.87   917.26   957.48
                              982.57  1041.04  1090.88  1132.66  1152.88
                             1166.18  1209.45  1273.38  1308.63  1341.53
                             1387.23  1401.67  1418.43  1445.30  1477.94
                             1488.86  1502.92  1533.22  1544.95  1608.61
                             1667.20  1678.83  1683.44  1715.92  1737.04
                             1756.24  1817.15  1828.14  1870.73  1894.60
                             1903.10  1931.95  1987.15  1999.37  2008.85
                             2038.24  2087.20  2150.71  2196.74  2233.37
                             2242.62  2300.45  2333.88  2411.89  2598.30
                             4390.48  4398.86  4459.55  4504.31  4512.33
                             4595.53  4615.07  4635.24  4645.04  4730.63
                             5299.98

 Zero-point correction=                           0.220679 (Hartree/Particle)
 Thermal correction to Energy=                    0.235840
 Thermal correction to Enthalpy=                  0.236784
 Thermal correction to Gibbs Free Energy=         0.174795
 Sum of electronic and zero-point Energies=          -1180.437127
 Sum of electronic and thermal Energies=             -1180.421966
 Sum of electronic and thermal Enthalpies=           -1180.421022
 Sum of electronic and thermal Free Energies=        -1180.483011

                     E (Thermal)             CV                S
                      KCal/Mol        Cal/Mol-Kelvin    Cal/Mol-Kelvin
 Total                  147.992             57.551            130.467
 Electronic               0.000              0.000              0.000
 Translational            0.889              2.981             42.578
 Rotational               0.889              2.981             33.599
 Vibrational            146.214             51.589             54.290
 Vibration     1          0.593              1.987              8.670
 Vibration     2          0.593              1.985              6.161
 Vibration     3          0.597              1.972              4.388
 Vibration     4          0.597              1.972              4.375
 Vibration     5          0.603              1.954              3.580
 Vibration     6          0.615              1.913              2.804
 Vibration     7          0.615              1.912              2.789
 Vibration     8          0.632              1.858              2.263
 Vibration     9          0.644              1.820              2.010
 Vibration    10          0.651              1.798              1.892
 Vibration    11          0.694              1.668              1.401
 Vibration    12          0.699              1.656              1.366
 Vibration    13          0.700              1.652              1.355
 Vibration    14          0.735              1.553              1.119
 Vibration    15          0.779              1.435              0.905
 Vibration    16          0.780              1.434              0.903
 Vibration    17          0.802              1.378              0.820
 Vibration    18          0.832              1.305              0.723
 Vibration    19          0.905              1.141              0.545
 Vibration    20          0.906              1.139              0.544
 Vibration    21          0.908              1.135              0.539
 Vibration    22          0.933              1.083              0.493
 Vibration    23          0.975              1.000              0.425

                           ! Non-Optimized Parameters !
 Normal termination of Gaussian 16 at Fri Dec 11 21:20:57 2020.

 ----------------------------------------------------------------------
 # B3LYP/6-311++G(d,p) empiricaldispersion=gd3bj scf=xqc pop=npa geom=c
 heck
 ----------------------------------------------------------------------

 ---------------------------------------
 CID_113875301_JID_8507_Energie_neutraal
 ---------------------------------------
 Structure from the checkpoint file:  "JID_8507.chk"
 Charge =  0 Multiplicity = 1

 SCF Done:  E(RB3LYP) =  -1180.90087602     A.U. after   15 cycles
 Normal termination of Gaussian 16 at Fri Dec 11 21:26:05 2020.

 ----------------------------------------------------------------------
 # B3LYP/6-311++G(d,p) empiricaldispersion=gd3bj scf=xqc pop=npa geom=c
 heck
 ----------------------------------------------------------------------

 -------------------------------------
 CID_113875301_JID_8507_Energie_kation
 -------------------------------------
 Structure from the checkpoint file:  "JID_8507.chk"
 Charge =  1 Multiplicity = 2

 SCF Done:  E(UB3LYP) =  -1180.60508569     A.U. after   24 cycles
 Normal termination of Gaussian 16 at Fri Dec 11 21:37:26 2020.
 Gaussian 16:  ES64L-G16RevA.03 25-Dec-2016

 ----------------------------------------------------------------------
 # B3LYP/6-311++G(d,p) empiricaldispersion=gd3bj scf=xqc pop=npa geom=c
 heck
 ----------------------------------------------------------------------

 ------------------------------------
 CID_113875301_JID_8507_Energie_anion
 ------------------------------------
 Structure from the checkpoint file:  "JID_8507.chk"
 Charge = -1 Multiplicity = 2

                         Standard orientation:
 ---------------------------------------------------------------------
 Center     Atomic      Atomic             Coordinates (Angstroms)
 Number     Number       Type             X           Y           Z
 ---------------------------------------------------------------------
      1          6           0        3.677867   -0.731639    1.042919
      2          6           0        3.520403    0.393972   -0.000124
      3          6           0        3.678019   -0.731905   -1.042850
      4          8           0        4.003807   -1.676782    0.000177
      5         16           0        2.117239    1.555444   -0.000369
      6          6           0        0.664142    0.528294   -0.000103
      7          7           0        0.823817   -0.778296   -0.000024
      8          6           0       -0.276979   -1.557184    0.000089
      9          6           0       -1.579202   -1.089805    0.000072
     10          6           0       -1.789554    0.334079    0.000086
     11          6           0       -3.057515    0.974550    0.000333
     12          6           0       -3.158315    2.348950    0.000420
     13          6           0       -2.007076    3.162709    0.000291
     14          6           0       -0.762008    2.578187    0.000109
     15          6           0       -0.622315    1.168296    0.000014
     16          6           0       -2.609634   -2.160821    0.000047
     17          8           0       -2.354866   -3.350188    0.001299
     18          8           0       -3.899243   -1.731660   -0.001715
     19          1           0        2.760349   -1.001319    1.570310
     20          1           0        4.502362   -0.600937    1.754581
     21          1           0        4.373199    1.078371   -0.000146
     22          1           0        4.502613   -0.601393   -1.754435
     23          1           0        2.760572   -1.001710   -1.570302
     24          1           0       -0.100691   -2.627540    0.000201
     25          1           0       -3.951353    0.369937    0.000448
     26          1           0       -4.141881    2.810118    0.000615
     27          1           0       -2.103007    4.244112    0.000370
     28          1           0        0.125279    3.201863    0.000080
     29          1           0       -4.434562   -2.547579   -0.001551
 ---------------------------------------------------------------------

 SCF Done:  E(UB3LYP) =  -1180.93714508     A.U. after   20 cycles

 The electronic state is 2-A.
 Alpha  occ. eigenvalues --  -88.73232 -19.04053 -19.01549 -18.96490 -14.16389
 Alpha  occ. eigenvalues --  -10.15754 -10.11342 -10.11340 -10.10672 -10.08402
 Alpha  occ. eigenvalues --  -10.06170 -10.05772 -10.05665 -10.04693 -10.04365
 Alpha  occ. eigenvalues --  -10.04151 -10.03493 -10.03308  -7.81879  -5.78272
 Alpha  occ. eigenvalues --   -5.77822  -5.77340  -0.97721  -0.94034  -0.87975
 Alpha  occ. eigenvalues --   -0.81030  -0.72679  -0.69252  -0.65804  -0.63773
 Alpha  occ. eigenvalues --   -0.60778  -0.59115  -0.58124  -0.52474  -0.50204
 Alpha  occ. eigenvalues --   -0.49254  -0.46447  -0.44115  -0.40983  -0.40170
 Alpha  occ. eigenvalues --   -0.38855  -0.36654  -0.35865  -0.35013  -0.34773
 Alpha  occ. eigenvalues --   -0.32238  -0.32204  -0.31841  -0.30550  -0.29905
 Alpha  occ. eigenvalues --   -0.28735  -0.27902  -0.27445  -0.25618  -0.25119
 Alpha  occ. eigenvalues --   -0.24852  -0.23406  -0.22741  -0.21122  -0.19999
 Alpha  occ. eigenvalues --   -0.18534  -0.17672  -0.15410  -0.14940  -0.13974
 Alpha  occ. eigenvalues --   -0.12637  -0.12111  -0.09308   0.01902
 Alpha virt. eigenvalues --    0.07425   0.08386   0.09016   0.09542   0.10004
 Alpha virt. eigenvalues --    0.10212   0.10690   0.11059   0.11658   0.12701
 Alpha virt. eigenvalues --    0.12749   0.13876   0.14293   0.15092   0.15384

  Beta  occ. eigenvalues --  -88.73225 -19.04020 -19.01548 -18.96303 -14.16408
  Beta  occ. eigenvalues --  -10.15604 -10.11333 -10.11332 -10.10675 -10.07849
  Beta  occ. eigenvalues --  -10.06142 -10.05779 -10.05598 -10.04717 -10.04227
  Beta  occ. eigenvalues --  -10.03933 -10.03312 -10.03211  -7.81873  -5.78277
  Beta  occ. eigenvalues --   -5.77831  -5.77295  -0.97549  -0.94030  -0.87701
  Beta  occ. eigenvalues --   -0.80623  -0.72454  -0.69041  -0.65484  -0.63485
  Beta  occ. eigenvalues --   -0.60412  -0.59104  -0.57925  -0.52074  -0.49779
  Beta  occ. eigenvalues --   -0.49105  -0.46343  -0.43936  -0.40885  -0.40075
  Beta  occ. eigenvalues --   -0.38580  -0.36583  -0.35677  -0.34807  -0.34742
  Beta  occ. eigenvalues --   -0.32108  -0.31665  -0.31384  -0.30463  -0.29767
  Beta  occ. eigenvalues --   -0.28575  -0.27259  -0.26956  -0.25555  -0.24996
  Beta  occ. eigenvalues --   -0.24775  -0.23265  -0.21803  -0.21051  -0.19209
  Beta  occ. eigenvalues --   -0.18439  -0.16565  -0.15377  -0.14783  -0.13314
  Beta  occ. eigenvalues --   -0.12032  -0.11979  -0.07971
  Beta virt. eigenvalues --    0.07390   0.07446   0.08371   0.09006   0.09563
  Beta virt. eigenvalues --    0.09980   0.10540   0.10659   0.11640   0.12422
  Beta virt. eigenvalues --    0.12655   0.12740   0.13875   0.14282   0.15095

 Mulliken charges and spin densities:
               1          2
     1  C   -0.328913  -0.022698
     2  C    0.325859   0.043205
     3  C   -0.328896  -0.022745
     4  O   -0.210533   0.001288
     5  S   -0.823341   0.030554
     6  C   -0.016878   0.299758
     7  N    0.164959  -0.002617
     8  C   -0.398919   0.156838
     9  C    0.288469   0.111011
    10  C    0.709473   0.028315
    11  C   -0.538962   0.044768
    12  C   -0.399644   0.121700
    13  C   -0.606942  -0.025672
    14  C   -0.650680   0.156639
    15  C    0.614902  -0.066836
    16  C    0.080828   0.086564
    17  O   -0.400345   0.068273
    18  O   -0.238055   0.008486
    19  H    0.190883   0.010600
    20  H    0.103450   0.000974
    21  H    0.230018  -0.000350
    22  H    0.103449   0.000972
    23  H    0.190888   0.010603
    24  H    0.196886  -0.011182
    25  H    0.155264  -0.005814
    26  H    0.116509  -0.008023
    27  H    0.115919   0.000948
    28  H    0.067482  -0.014299
    29  H    0.286870  -0.001259
 Sum of Mulliken charges =  -1.00000   1.00000

 Dipole moment (field-independent basis, Debye):
    X=              1.8125    Y=              3.0235    Z=             -0.0017  Tot=              3.5251
 Quadrupole moment (field-independent basis, Debye-Ang):
   XX=           -137.7770   YY=           -148.1087   ZZ=           -118.9990
   XY=              5.1878   XZ=              0.0029   YZ=              0.0125

 Summary of Natural Population Analysis:

                                       Natural Population
                Natural  -----------------------------------------------
    Atom  No    Charge         Core      Valence    Rydberg      Total
 -----------------------------------------------------------------------
      C    1   -0.00440      0.99960     1.99388    0.01092     3.00440
      C    2   -0.19745      0.99955     2.18414    0.01375     3.19745
      C    3   -0.00441      0.99960     1.99388    0.01092     3.00441
      O    4   -0.30695      0.99991     3.29594    0.01110     4.30695
      S    5    0.12212      4.99953     2.86319    0.01516     7.87788
      C    6    0.19356      0.99946     1.79461    0.01237     2.80644
      N    7   -0.29799      0.99967     2.77345    0.02487     3.79799
      C    8    0.08879      0.99955     1.89776    0.01390     2.91121
      C    9   -0.08173      0.99942     2.07287    0.00945     3.08173
      C   10    0.00201      0.99950     1.98906    0.00942     2.99799
      C   11   -0.08957      0.99954     2.08111    0.00892     3.08957
      C   12   -0.07297      0.99957     2.06404    0.00936     3.07297
      C   13   -0.12555      0.99959     2.11537    0.01059     3.12555
      C   14   -0.04699      0.99944     2.03677    0.01078     3.04699
      C   15   -0.08663      0.99941     2.07434    0.01288     3.08663
      C   16    0.41558      0.99967     1.56069    0.02406     2.58442
      O   17   -0.31472      0.99987     3.30786    0.00698     4.31472
      O   18   -0.35634      0.99988     3.34823    0.00823     4.35634
      H   19    0.09875      0.00000     0.39980    0.00145     0.40125
      H   20    0.07409      0.00000     0.42440    0.00151     0.42591
      H   21    0.10145      0.00000     0.39678    0.00177     0.39855
      H   22    0.07409      0.00000     0.42440    0.00151     0.42591
      H   23    0.09875      0.00000     0.39980    0.00145     0.40125
      H   24    0.09533      0.00000     0.40352    0.00115     0.40467
      H   25    0.10931      0.00000     0.38956    0.00113     0.39069
      H   26    0.08891      0.00000     0.41005    0.00104     0.41109
      H   27    0.09122      0.00000     0.40759    0.00118     0.40878
      H   28    0.09885      0.00000     0.40031    0.00085     0.40115
      H   29    0.23320      0.00000     0.26387    0.00293     0.26680
 =======================================================================
   * Total *    0.00032     21.99278    45.76728    0.23963    67.99968

 Normal termination of Gaussian 16 at Fri Dec 11 21:46:56 2020.
