 Gaussian 16, Revision A.03,

 -----------------------------------------------------------
 # opt freq B3LYP/6-31G(d) empiricaldispersion=gd3bj scf=xqc
 -----------------------------------------------------------

 ------------------------------
 CID_80701622_JID_9790_neutraal
 ------------------------------
 Symbolic Z-matrix:
 Charge =  0 Multiplicity = 1

 SCF Done:  E(RB3LYP) =  -1146.95021379     A.U. after   15 cycles
 SCF Done:  E(RB3LYP) =  -1146.95483185     A.U. after   13 cycles
 SCF Done:  E(RB3LYP) =  -1146.95486679     A.U. after   13 cycles
 SCF Done:  E(RB3LYP) =  -1146.95492960     A.U. after   12 cycles
 SCF Done:  E(RB3LYP) =  -1146.95644339     A.U. after   12 cycles
 SCF Done:  E(RB3LYP) =  -1146.95665703     A.U. after   12 cycles
 SCF Done:  E(RB3LYP) =  -1146.95683969     A.U. after   12 cycles
 SCF Done:  E(RB3LYP) =  -1146.95691591     A.U. after   11 cycles
 SCF Done:  E(RB3LYP) =  -1146.95693335     A.U. after   11 cycles
 SCF Done:  E(RB3LYP) =  -1146.95694766     A.U. after   10 cycles
 SCF Done:  E(RB3LYP) =  -1146.95695057     A.U. after    9 cycles
 SCF Done:  E(RB3LYP) =  -1146.95695311     A.U. after    9 cycles
 SCF Done:  E(RB3LYP) =  -1146.95695370     A.U. after    8 cycles
 SCF Done:  E(RB3LYP) =  -1146.95695379     A.U. after    7 cycles
 Optimization completed.
    -- Stationary point found.
 Normal termination of Gaussian 16 at Sun Dec 13 20:45:07 2020.

 --------------------------------------------------------------------
 #N Geom=AllCheck Guess=TCheck SCRF=Check GenChk RB3LYP/6-31G(d) Freq
 --------------------------------------------------------------------

 Structure from the checkpoint file:  "JID_9790.chk"
 ------------------------------
 CID_80701622_JID_9790_neutraal
 ------------------------------
 Charge =  0 Multiplicity = 1

 SCF Done:  E(RB3LYP) =  -1146.95695379     A.U. after    1 cycles

  Exact polarizability: 206.180  36.824 202.304  33.272 -19.269 128.802
 Approx polarizability: 326.552  65.643 331.257  84.723 -42.714 240.285

                      1                      2                      3
                      A                      A                      A
 Frequencies --     23.0658                35.8122                51.3522
 Red. masses --      6.2918                 4.5063                 4.0198
 Frc consts  --      0.0020                 0.0034                 0.0062
 IR Inten    --      0.1758                 4.4447                 0.9140

                      4                      5                      6
                      A                      A                      A
 Frequencies --     67.4935                80.5849               100.7198
 Red. masses --      4.1204                 5.0190                 4.3572
 Frc consts  --      0.0111                 0.0192                 0.0260
 IR Inten    --      0.2301                 0.1071                 2.0552

                      7                      8                      9
                      A                      A                      A
 Frequencies --    150.6304               196.3402               201.1625
 Red. masses --      4.0442                 3.7955                 1.2164
 Frc consts  --      0.0541                 0.0862                 0.0290
 IR Inten    --      0.3652                 1.1825                 0.1227

                     10                     11                     12
                      A                      A                      A
 Frequencies --    220.9962               233.5655               250.2932
 Red. masses --      3.0239                 4.2328                 3.1677
 Frc consts  --      0.0870                 0.1360                 0.1169
 IR Inten    --      1.4126                 1.7115                 0.9653

                     13                     14                     15
                      A                      A                      A
 Frequencies --    299.1141               377.8430               385.6162
 Red. masses --      4.9472                 5.3563                 6.7393
 Frc consts  --      0.2608                 0.4505                 0.5904
 IR Inten    --      0.4700                 0.4582                 1.9972

                     16                     17                     18
                      A                      A                      A
 Frequencies --    404.1764               427.2862               434.3842
 Red. masses --      3.6007                 3.3912                 3.0785
 Frc consts  --      0.3466                 0.3648                 0.3422
 IR Inten    --      1.1245                 1.3749                 7.9011

                     19                     20                     21
                      A                      A                      A
 Frequencies --    465.0677               471.5604               540.0448
 Red. masses --      3.8758                 4.2293                 3.9116
 Frc consts  --      0.4939                 0.5541                 0.6721
 IR Inten    --      5.5179                 3.5138                13.6990

                     22                     23                     24
                      A                      A                      A
 Frequencies --    564.2935               581.4601               583.2539
 Red. masses --      3.5327                 4.5951                 4.1639
 Frc consts  --      0.6628                 0.9153                 0.8346
 IR Inten    --      2.7107                 3.3174                 0.2072

                     25                     26                     27
                      A                      A                      A
 Frequencies --    633.2805               648.7677               657.7476
 Red. masses --      5.4646                 4.8739                 4.2985
 Frc consts  --      1.2912                 1.2087                 1.0957
 IR Inten    --     12.4365                 1.4187                 7.8075

                     28                     29                     30
                      A                      A                      A
 Frequencies --    714.5847               719.5964               734.0563
 Red. masses --      5.6694                 4.1106                 3.4113
 Frc consts  --      1.7057                 1.2541                 1.0830
 IR Inten    --      0.8296                19.4054                 1.1738

                     31                     32                     33
                      A                      A                      A
 Frequencies --    763.2559               769.7562               787.8255
 Red. masses --      1.2930                 4.1723                 4.6505
 Frc consts  --      0.4438                 1.4566                 1.7006
 IR Inten    --     72.2621                 2.9786                 9.6803

                     34                     35                     36
                      A                      A                      A
 Frequencies --    802.6630               817.9148               832.9614
 Red. masses --      2.0671                 2.6519                 1.3817
 Frc consts  --      0.7846                 1.0453                 0.5648
 IR Inten    --     25.3636                 3.5053                26.4403

                     37                     38                     39
                      A                      A                      A
 Frequencies --    841.0209               866.7028               871.9044
 Red. masses --      1.4030                 1.7526                 3.3010
 Frc consts  --      0.5847                 0.7756                 1.4786
 IR Inten    --     31.3471                 4.0184                 8.7781

                     40                     41                     42
                      A                      A                      A
 Frequencies --    932.2202               938.0001               946.7162
 Red. masses --      1.8299                 1.4489                 1.4237
 Frc consts  --      0.9369                 0.7511                 0.7518
 IR Inten    --     20.4070                14.7404                 4.6283

                     43                     44                     45
                      A                      A                      A
 Frequencies --    967.1878               975.8028               994.2966
 Red. masses --      1.3767                 1.2345                 1.1821
 Frc consts  --      0.7588                 0.6926                 0.6885
 IR Inten    --      1.5442                 0.1245                 5.3614

                     46                     47                     48
                      A                      A                      A
 Frequencies --    999.5624              1008.8511              1032.3888
 Red. masses --      2.3725                 1.2994                 2.4164
 Frc consts  --      1.3966                 0.7792                 1.5174
 IR Inten    --     12.2511                13.8234                12.0140

                     49                     50                     51
                      A                      A                      A
 Frequencies --   1038.5619              1042.5553              1102.0697
 Red. masses --      2.8143                 2.0718                 3.7262
 Frc consts  --      1.7885                 1.3268                 2.6664
 IR Inten    --      5.3161                 6.5374                 1.8700

                     52                     53                     54
                      A                      A                      A
 Frequencies --   1119.7741              1141.4834              1143.5705
 Red. masses --      3.5034                 1.3565                 3.0311
 Frc consts  --      2.5882                 1.0414                 2.3355
 IR Inten    --     16.7826                 7.8146                51.7528

                     55                     56                     57
                      A                      A                      A
 Frequencies --   1154.7046              1187.8872              1210.6137
 Red. masses --      1.6085                 1.2296                 1.1611
 Frc consts  --      1.2636                 1.0222                 1.0026
 IR Inten    --      2.4680                 2.5429                 3.2736

                     58                     59                     60
                      A                      A                      A
 Frequencies --   1220.6450              1252.9260              1273.2154
 Red. masses --      2.1500                 1.5366                 2.5775
 Frc consts  --      1.8875                 1.4212                 2.4618
 IR Inten    --     18.2863                15.9522                64.8121

                     61                     62                     63
                      A                      A                      A
 Frequencies --   1303.5698              1311.6637              1319.1370
 Red. masses --      1.9808                 1.6451                 1.9464
 Frc consts  --      1.9832                 1.6676                 1.9955
 IR Inten    --     20.2085                 4.4531                15.1077

                     64                     65                     66
                      A                      A                      A
 Frequencies --   1332.0829              1380.8036              1387.4416
 Red. masses --      1.7573                 1.7616                 1.6557
 Frc consts  --      1.8372                 1.9788                 1.8778
 IR Inten    --      1.8531                13.8305                 1.9282

                     67                     68                     69
                      A                      A                      A
 Frequencies --   1393.8953              1405.1632              1448.9800
 Red. masses --      1.5137                 4.2307                 2.4638
 Frc consts  --      1.7328                 4.9217                 3.0478
 IR Inten    --      6.2965                 1.8739                 1.1741

                     70                     71                     72
                      A                      A                      A
 Frequencies --   1497.5812              1498.7409              1503.7048
 Red. masses --      1.8996                 1.1948                 1.4993
 Frc consts  --      2.5102                 1.5813                 1.9974
 IR Inten    --     17.9389                14.4955                 8.9762

                     73                     74                     75
                      A                      A                      A
 Frequencies --   1520.7595              1525.8620              1531.5500
 Red. masses --      1.0827                 2.2823                 1.2707
 Frc consts  --      1.4754                 3.1308                 1.7561
 IR Inten    --     19.7461                 4.0981                 5.5674

                     76                     77                     78
                      A                      A                      A
 Frequencies --   1547.0023              1626.9494              1636.2361
 Red. masses --      2.1238                 5.2660                 5.8663
 Frc consts  --      2.9946                 8.2126                 9.2536
 IR Inten    --     63.4847                 1.7024                18.0383

                     79                     80                     81
                      A                      A                      A
 Frequencies --   1644.9396              1660.8537              1677.0542
 Red. masses --      6.8071                 5.7822                 7.0246
 Frc consts  --     10.8520                 9.3974                11.6404
 IR Inten    --      2.5864                 2.0548                 2.1908

                     82                     83                     84
                      A                      A                      A
 Frequencies --   2972.3956              3066.2200              3085.0721
 Red. masses --      1.0722                 1.0294                 1.0903
 Frc consts  --      5.5815                 5.7023                 6.1141
 IR Inten    --     58.5160                20.3753                43.2692

                     85                     86                     87
                      A                      A                      A
 Frequencies --   3150.1921              3161.9299              3170.7531
 Red. masses --      1.1068                 1.1062                 1.0883
 Frc consts  --      6.4711                 6.5161                 6.4463
 IR Inten    --      8.0925                 3.5358                16.2710

                     88                     89                     90
                      A                      A                      A
 Frequencies --   3188.6155              3199.4012              3203.9168
 Red. masses --      1.0863                 1.0931                 1.0910
 Frc consts  --      6.5075                 6.5923                 6.5982
 IR Inten    --      3.6958                10.5275                14.1490

                     91                     92                     93
                      A                      A                      A
 Frequencies --   3210.0467              3221.9799              3225.0927
 Red. masses --      1.0872                 1.0930                 1.0951
 Frc consts  --      6.6007                 6.6851                 6.7113
 IR Inten    --      4.9620                10.5795                 5.9551

                     94                     95                     96
                      A                      A                      A
 Frequencies --   3226.4080              3287.2424              3486.6505
 Red. masses --      1.0944                 1.0986                 1.0735
 Frc consts  --      6.7125                 6.9945                 7.6888
 IR Inten    --      9.0443                 0.4423                 0.4683

 - Thermochemistry -
 -------------------
 Temperature   298.150 Kelvin.  Pressure   1.00000 Atm.
 Atom     1 has atomic number  6 and mass  12.00000

 Molecular mass:   269.08744 amu.
 Principal axes and moments of inertia in atomic units:
                           1         2         3
     Eigenvalues --  3516.459485997.904708334.42379
           X            0.99929   0.03764  -0.00121
           Y           -0.03766   0.99916  -0.01630
           Z            0.00060   0.01633   0.99987
 This molecule is an asymmetric top.
 Rotational symmetry number  1.
 Warning -- assumption of classical behavior for rotation
           may cause significant error
 Rotational temperatures (Kelvin)      0.02463     0.01444     0.01039
 Rotational constants (GHZ):           0.51323     0.30090     0.21654
 Zero-point vibrational energy     719560.2 (Joules/Mol)
                                  171.97902 (Kcal/Mol)
 Warning -- explicit consideration of  24 degrees of freedom as
           vibrations may cause significant error
 Vibrational temperatures:     33.19    51.53    73.88    97.11   115.94
          (Kelvin)            144.91   216.72   282.49   289.43   317.96
                              336.05   360.12   430.36   543.63   554.82
                              581.52   614.77   624.98   669.13   678.47
                              777.00   811.89   836.59   839.17   911.15
                              933.43   946.35  1028.13  1035.34  1056.14
                             1098.16  1107.51  1133.51  1154.85  1176.80
                             1198.45  1210.04  1246.99  1254.48  1341.26
                             1349.57  1362.11  1391.57  1403.96  1430.57
                             1438.15  1451.51  1485.38  1494.26  1500.00
                             1585.63  1611.11  1642.34  1645.34  1661.36
                             1709.10  1741.80  1756.24  1802.68  1831.87
                             1875.55  1887.19  1897.94  1916.57  1986.67
                             1996.22  2005.50  2021.72  2084.76  2154.69
                             2156.35  2163.50  2188.03  2195.38  2203.56
                             2225.79  2340.82  2354.18  2366.70  2389.60
                             2412.91  4276.61  4411.61  4438.73  4532.42
                             4549.31  4562.01  4587.71  4603.22  4609.72
                             4618.54  4635.71  4640.19  4642.08  4729.61
                             5016.51

 Zero-point correction=                           0.274066 (Hartree/Particle)
 Thermal correction to Energy=                    0.290367
 Thermal correction to Enthalpy=                  0.291311
 Thermal correction to Gibbs Free Energy=         0.228559
 Sum of electronic and zero-point Energies=          -1146.682888
 Sum of electronic and thermal Energies=             -1146.666587
 Sum of electronic and thermal Enthalpies=           -1146.665643
 Sum of electronic and thermal Free Energies=        -1146.728394

                     E (Thermal)             CV                S
                      KCal/Mol        Cal/Mol-Kelvin    Cal/Mol-Kelvin
 Total                  182.208             63.847            132.072
 Electronic               0.000              0.000              0.000
 Translational            0.889              2.981             42.669
 Rotational               0.889              2.981             33.530
 Vibrational            180.430             57.885             55.873
 Vibration     1          0.593              1.985              6.351
 Vibration     2          0.594              1.982              5.478
 Vibration     3          0.596              1.977              4.765
 Vibration     4          0.598              1.970              4.225
 Vibration     5          0.600              1.962              3.877
 Vibration     6          0.604              1.949              3.440
 Vibration     7          0.618              1.902              2.664
 Vibration     8          0.636              1.845              2.167
 Vibration     9          0.638              1.838              2.122
 Vibration    10          0.648              1.809              1.951
 Vibration    11          0.654              1.790              1.851
 Vibration    12          0.663              1.762              1.729
 Vibration    13          0.692              1.675              1.422
 Vibration    14          0.748              1.517              1.048
 Vibration    15          0.754              1.501              1.017
 Vibration    16          0.769              1.461              0.947
 Vibration    17          0.789              1.411              0.868
 Vibration    18          0.795              1.395              0.844
 Vibration    19          0.823              1.328              0.751
 Vibration    20          0.829              1.313              0.733
 Vibration    21          0.895              1.162              0.565
 Vibration    22          0.920              1.109              0.515
 Vibration    23          0.938              1.071              0.483
 Vibration    24          0.940              1.068              0.479

 Optimization completed.
    -- Stationary point found.
 Normal termination of Gaussian 16 at Sun Dec 13 21:04:28 2020.

 ----------------------------------------------------------------------
 # B3LYP/6-311++G(d,p) empiricaldispersion=gd3bj scf=xqc pop=npa geom=c
 heck
 ----------------------------------------------------------------------

 --------------------------------------
 CID_80701622_JID_9790_Energie_neutraal
 --------------------------------------
 Structure from the checkpoint file:  "JID_9790.chk"
 Charge =  0 Multiplicity = 1

 SCF Done:  E(RB3LYP) =  -1147.17838316     A.U. after   16 cycles
 Normal termination of Gaussian 16 at Sun Dec 13 21:12:54 2020.

 ----------------------------------------------------------------------
 # B3LYP/6-311++G(d,p) empiricaldispersion=gd3bj scf=xqc pop=npa geom=c
 heck
 ----------------------------------------------------------------------

 ------------------------------------
 CID_80701622_JID_9790_Energie_kation
 ------------------------------------
 Structure from the checkpoint file:  "JID_9790.chk"
 Charge =  1 Multiplicity = 2

 SCF Done:  E(UB3LYP) =  -1146.90817718     A.U. after   26 cycles
 Normal termination of Gaussian 16 at Sun Dec 13 21:33:00 2020.
 Gaussian 16:  ES64L-G16RevA.03 25-Dec-2016

 ----------------------------------------------------------------------
 # B3LYP/6-311++G(d,p) empiricaldispersion=gd3bj scf=xqc pop=npa geom=c
 heck
 ----------------------------------------------------------------------

 -----------------------------------
 CID_80701622_JID_9790_Energie_anion
 -----------------------------------
 Structure from the checkpoint file:  "JID_9790.chk"
 Charge = -1 Multiplicity = 2

                         Standard orientation:
 ---------------------------------------------------------------------
 Center     Atomic      Atomic             Coordinates (Angstroms)
 Number     Number       Type             X           Y           Z
 ---------------------------------------------------------------------
      1          6           0        3.282484    2.004559   -0.680471
      2         16           0        3.911091    0.387634   -0.100849
      3          6           0        2.440656   -0.618334   -0.206576
      4          6           0        1.471590   -0.439215   -1.201634
      5          6           0        0.319774   -1.217496   -1.209007
      6          6           0        0.104541   -2.187737   -0.224720
      7          6           0        1.102952   -2.406974    0.732216
      8          6           0        2.260197   -1.630750    0.744172
      9          7           0       -1.148587   -2.872659   -0.194554
     10          6           0       -2.188193   -2.173974    0.607398
     11          6           0       -2.460175   -0.777079    0.139895
     12          6           0       -3.417167   -0.379527   -0.738270
     13          8           0       -3.391584    0.973543   -0.974815
     14          6           0       -2.362817    1.471742   -0.214542
     15          6           0       -1.952396    2.797663   -0.160618
     16          6           0       -0.865523    3.076608    0.667216
     17          6           0       -0.227500    2.059150    1.402432
     18          6           0       -0.655776    0.737088    1.331762
     19          6           0       -1.746924    0.433220    0.506418
     20          1           0        4.032468    2.747482   -0.397258
     21          1           0        2.332781    2.237386   -0.191941
     22          1           0        3.157667    2.029092   -1.765831
     23          1           0        1.605943    0.316025   -1.968158
     24          1           0       -0.441799   -1.068777   -1.966463
     25          1           0        0.953535   -3.161957    1.501475
     26          1           0        3.007922   -1.782177    1.517387
     27          1           0       -1.019734   -3.794582    0.219377
     28          1           0       -3.101526   -2.773753    0.532204
     29          1           0       -1.910631   -2.131974    1.674655
     30          1           0       -4.180532   -0.925485   -1.272938
     31          1           0       -2.453311    3.567484   -0.737620
     32          1           0       -0.505204    4.098157    0.745060
     33          1           0        0.618880    2.311572    2.034818
     34          1           0       -0.135466   -0.044045    1.875196
 ---------------------------------------------------------------------

 SCF Done:  E(UB3LYP) =  -1147.17139388     A.U. after   33 cycles
 SCF Done:  E(UB3LYP) =  -1147.17139388     a.u. after    1 cycles

 The electronic state is 2-A.
 Alpha  occ. eigenvalues --  -88.74933 -19.07665 -14.20354 -10.12041 -10.11200
 Alpha  occ. eigenvalues --  -10.10198 -10.10029 -10.09858 -10.09854 -10.07794
 Alpha  occ. eigenvalues --  -10.07290 -10.07136 -10.06965 -10.06861 -10.06833
 Alpha  occ. eigenvalues --  -10.06815 -10.06801 -10.06538 -10.06231  -7.83526
 Alpha  occ. eigenvalues --   -5.79930  -5.79546  -5.78908  -1.00074  -0.81900
 Alpha  occ. eigenvalues --   -0.75567  -0.74948  -0.70188  -0.69005  -0.64973
 Alpha  occ. eigenvalues --   -0.64257  -0.63516  -0.62146  -0.57636  -0.54292
 Alpha  occ. eigenvalues --   -0.52604  -0.51230  -0.48963  -0.48022  -0.46085
 Alpha  occ. eigenvalues --   -0.42182  -0.39996  -0.38572  -0.38383  -0.37397
 Alpha  occ. eigenvalues --   -0.36070  -0.35714  -0.34588  -0.33875  -0.33773
 Alpha  occ. eigenvalues --   -0.33427  -0.32394  -0.32232  -0.31357  -0.30614
 Alpha  occ. eigenvalues --   -0.28487  -0.27902  -0.27042  -0.26405  -0.25867
 Alpha  occ. eigenvalues --   -0.24868  -0.24723  -0.23036  -0.22415  -0.18791
 Alpha  occ. eigenvalues --   -0.18180  -0.15554  -0.14152  -0.13673  -0.11908
 Alpha  occ. eigenvalues --   -0.10713   0.04221
 Alpha virt. eigenvalues --    0.06032   0.06748   0.07756   0.07818   0.08177
 Alpha virt. eigenvalues --    0.08774   0.08832   0.09202   0.09857   0.10130
 Alpha virt. eigenvalues --    0.10617   0.10629   0.11032   0.11965   0.12299

  Beta  occ. eigenvalues --  -88.74928 -19.07619 -14.20337 -10.12069 -10.11020
  Beta  occ. eigenvalues --  -10.10178 -10.10005 -10.09838 -10.09813 -10.07800
  Beta  occ. eigenvalues --  -10.07242 -10.07081 -10.06880 -10.06839 -10.06835
  Beta  occ. eigenvalues --  -10.06799 -10.06757 -10.06555 -10.06129  -7.83521
  Beta  occ. eigenvalues --   -5.79922  -5.79537  -5.78903  -0.99970  -0.81838
  Beta  occ. eigenvalues --   -0.75503  -0.74843  -0.70075  -0.68919  -0.64905
  Beta  occ. eigenvalues --   -0.64142  -0.63411  -0.61986  -0.57533  -0.54211
  Beta  occ. eigenvalues --   -0.52416  -0.51161  -0.48864  -0.47961  -0.46007
  Beta  occ. eigenvalues --   -0.42108  -0.39890  -0.38497  -0.38314  -0.37311
  Beta  occ. eigenvalues --   -0.35994  -0.35562  -0.34477  -0.33751  -0.33706
  Beta  occ. eigenvalues --   -0.33380  -0.32353  -0.32184  -0.31292  -0.30555
  Beta  occ. eigenvalues --   -0.28399  -0.27843  -0.26975  -0.26292  -0.25813
  Beta  occ. eigenvalues --   -0.24822  -0.24398  -0.22985  -0.22342  -0.18508
  Beta  occ. eigenvalues --   -0.17962  -0.15341  -0.14078  -0.13412  -0.11251
  Beta  occ. eigenvalues --   -0.10604
  Beta virt. eigenvalues --    0.06379   0.07213   0.07703   0.07905   0.08023
  Beta virt. eigenvalues --    0.08452   0.08908   0.09076   0.09515   0.10003
  Beta virt. eigenvalues --    0.10316   0.10786   0.10904   0.11167   0.12071

 Mulliken charges and spin densities:
               1          2
     1  C   -0.149857  -0.447214
     2  S   -0.194097  -0.125623
     3  C    0.116919   0.043325
     4  C   -0.391127   0.204761
     5  C    0.213677  -0.257540
     6  C    0.031301  -0.603355
     7  C    0.029778   0.155243
     8  C   -0.067914  -0.023999
     9  N   -0.122550   0.115291
    10  C    1.049423  -1.472639
    11  C   -0.031030   0.460763
    12  C    0.142015  -0.170112
    13  O   -0.084029   0.003979
    14  C   -0.566779   0.012725
    15  C   -0.195974   0.089747
    16  C   -0.248683  -0.103167
    17  C   -0.326373  -0.236212
    18  C   -0.057289   0.179703
    19  C    0.145165   0.308066
    20  H   -0.133554   0.298494
    21  H    0.074457   0.071035
    22  H   -0.045983   0.211743
    23  H    0.156245   0.026658
    24  H    0.203580  -0.009215
    25  H   -0.434127   0.599006
    26  H    0.156149   0.020755
    27  H   -0.083345   0.346202
    28  H   -0.483869   0.656557
    29  H   -0.084026   0.226858
    30  H    0.034777   0.126892
    31  H    0.119960   0.036310
    32  H   -0.004940   0.145372
    33  H    0.069018   0.096090
    34  H    0.163085   0.013501
 Sum of Mulliken charges =  -1.00000   1.00000

 Dipole moment (field-independent basis, Debye):
    X=              1.3382    Y=              3.2343    Z=             -1.2852  Tot=              3.7287
 Quadrupole moment (field-independent basis, Debye-Ang):
   XX=           -178.8252   YY=           -175.0384   ZZ=           -141.1291
   XY=            -11.1284   XZ=              6.8027   YZ=              3.3448

 Summary of Natural Population Analysis:

                                       Natural Population
                Natural  -----------------------------------------------
    Atom  No    Charge         Core      Valence    Rydberg      Total
 -----------------------------------------------------------------------
      C    1   -0.35105      0.99962     2.34436    0.00707     3.35105
      S    2    0.10809      4.99955     2.87191    0.02045     7.89191
      C    3   -0.08934      0.99941     2.07937    0.01057     3.08934
      C    4   -0.09985      0.99949     2.09162    0.00874     3.09985
      C    5   -0.09645      0.99950     2.08762    0.00932     3.09645
      C    6    0.07658      0.99946     1.91135    0.01261     2.92342
      C    7   -0.10601      0.99950     2.09631    0.01020     3.10601
      C    8   -0.10939      0.99950     2.09956    0.01033     3.10939
      N    9   -0.33401      0.99971     2.82145    0.01285     3.83401
      C   10   -0.09068      0.99956     2.07837    0.01275     3.09068
      C   11   -0.06943      0.99948     2.05960    0.01036     3.06943
      C   12    0.11370      0.99941     1.87279    0.01411     2.88630
      O   13   -0.23981      0.99986     3.23299    0.00695     4.23981
      C   14    0.14774      0.99935     1.83906    0.01385     2.85226
      C   15   -0.11238      0.99951     2.10425    0.00861     3.11238
      C   16   -0.10066      0.99959     2.09037    0.01071     3.10066
      C   17   -0.11881      0.99958     2.10893    0.01030     3.11881
      C   18   -0.07452      0.99953     2.06647    0.00852     3.07452
      C   19   -0.04718      0.99944     2.03790    0.00983     3.04718
      H   20    0.10623      0.00000     0.39261    0.00116     0.39377
      H   21    0.11331      0.00000     0.38515    0.00153     0.38669
      H   22    0.09855      0.00000     0.39999    0.00146     0.40145
      H   23    0.10063      0.00000     0.39803    0.00135     0.39937
      H   24    0.10793      0.00000     0.39087    0.00119     0.39207
      H   25    0.10219      0.00000     0.39657    0.00124     0.39781
      H   26    0.10170      0.00000     0.39725    0.00105     0.39830
      H   27    0.17880      0.00000     0.31680    0.00440     0.32120
      H   28    0.10220      0.00000     0.39566    0.00214     0.39780
      H   29    0.08791      0.00000     0.41018    0.00192     0.41209
      H   30    0.09172      0.00000     0.40728    0.00100     0.40828
      H   31    0.10194      0.00000     0.39710    0.00095     0.39806
      H   32    0.09687      0.00000     0.40235    0.00078     0.40313
      H   33    0.09876      0.00000     0.40035    0.00089     0.40124
      H   34    0.10471      0.00000     0.39340    0.00189     0.39529
 =======================================================================
   * Total *    0.00000     22.99104    47.77787    0.23109    71.00000

 Normal termination of Gaussian 16 at Sun Dec 13 21:57:39 2020.
