 Gaussian 16, Revision A.03,

 -----------------------------------------------------------
 # opt freq B3LYP/6-31G(d) empiricaldispersion=gd3bj scf=xqc
 -----------------------------------------------------------

 ------------------------------
 CID_61463319_JID_5330_neutraal
 ------------------------------
 Symbolic Z-matrix:
 Charge =  0 Multiplicity = 1

 SCF Done:  E(RB3LYP) =  -675.134827841     A.U. after   14 cycles
 SCF Done:  E(RB3LYP) =  -675.139357863     A.U. after   12 cycles
 SCF Done:  E(RB3LYP) =  -675.139889812     A.U. after   10 cycles
 SCF Done:  E(RB3LYP) =  -675.139972409     A.U. after   11 cycles
 SCF Done:  E(RB3LYP) =  -675.140024344     A.U. after   10 cycles
 SCF Done:  E(RB3LYP) =  -675.140054661     A.U. after   10 cycles
 SCF Done:  E(RB3LYP) =  -675.140070839     A.U. after   10 cycles
 SCF Done:  E(RB3LYP) =  -675.140074411     A.U. after   10 cycles
 SCF Done:  E(RB3LYP) =  -675.140077398     A.U. after    9 cycles
 SCF Done:  E(RB3LYP) =  -675.140078246     A.U. after    9 cycles
 SCF Done:  E(RB3LYP) =  -675.141187816     A.U. after    9 cycles
 SCF Done:  E(RB3LYP) =  -675.141188661     A.U. after    9 cycles
 SCF Done:  E(RB3LYP) =  -675.141189533     A.U. after    9 cycles
 SCF Done:  E(RB3LYP) =  -675.141189951     A.U. after    9 cycles
 SCF Done:  E(RB3LYP) =  -675.141190068     A.U. after    7 cycles
 Optimization completed.
    -- Stationary point found.
 Normal termination of Gaussian 16 at Thu Dec 10 16:56:31 2020.

 --------------------------------------------------------------------
 #N Geom=AllCheck Guess=TCheck SCRF=Check GenChk RB3LYP/6-31G(d) Freq
 --------------------------------------------------------------------

 Structure from the checkpoint file:  "JID_5330.chk"
 ------------------------------
 CID_61463319_JID_5330_neutraal
 ------------------------------
 Charge =  0 Multiplicity = 1

 SCF Done:  E(RB3LYP) =  -675.141190069     A.U. after    1 cycles

  Exact polarizability: 156.489  10.188 131.361  11.831  -4.949 115.689
 Approx polarizability: 182.538  15.336 198.034  19.996  -9.196 191.427

                      1                      2                      3
                      A                      A                      A
 Frequencies --     16.7420                26.3856                52.6425
 Red. masses --      3.7200                 3.9362                 3.6679
 Frc consts  --      0.0006                 0.0016                 0.0060
 IR Inten    --      0.0340                 0.0331                 0.3663

                      4                      5                      6
                      A                      A                      A
 Frequencies --     61.6584                63.7853                90.5570
 Red. masses --      3.6181                 4.0683                 1.9006
 Frc consts  --      0.0081                 0.0098                 0.0092
 IR Inten    --      0.0752                 0.5280                 0.0677

                      7                      8                      9
                      A                      A                      A
 Frequencies --    115.4081               174.0009               194.2968
 Red. masses --      3.9487                 4.8819                 2.8636
 Frc consts  --      0.0310                 0.0871                 0.0637
 IR Inten    --      0.7347                 1.6543                 1.4772

                     10                     11                     12
                      A                      A                      A
 Frequencies --    221.4439               229.1237               235.9841
 Red. masses --      2.0173                 1.2194                 1.2642
 Frc consts  --      0.0583                 0.0377                 0.0415
 IR Inten    --      2.1547                 0.5263                 1.0415

                     13                     14                     15
                      A                      A                      A
 Frequencies --    263.9884               279.4263               322.5779
 Red. masses --      1.7781                 1.4436                 1.3767
 Frc consts  --      0.0730                 0.0664                 0.0844
 IR Inten    --      7.6917                12.8405                80.8173

                     16                     17                     18
                      A                      A                      A
 Frequencies --    334.8371               346.6228               386.2168
 Red. masses --      2.6451                 1.8233                 2.5106
 Frc consts  --      0.1747                 0.1291                 0.2206
 IR Inten    --     20.9484                 4.2918                11.2284

                     19                     20                     21
                      A                      A                      A
 Frequencies --    409.0469               434.1795               468.6531
 Red. masses --      3.8340                 2.4581                 3.0407
 Frc consts  --      0.3780                 0.2730                 0.3935
 IR Inten    --     11.6006                 4.9964                 6.7007

                     22                     23                     24
                      A                      A                      A
 Frequencies --    486.1814               489.5787               575.0048
 Red. masses --      2.9973                 2.4315                 3.5483
 Frc consts  --      0.4174                 0.3434                 0.6912
 IR Inten    --      8.4743                 3.0423                 0.6548

                     25                     26                     27
                      A                      A                      A
 Frequencies --    612.8179               654.7458               706.7083
 Red. masses --      3.3970                 2.5093                 2.2728
 Frc consts  --      0.7516                 0.6338                 0.6688
 IR Inten    --      5.2496                13.3103                52.8726

                     28                     29                     30
                      A                      A                      A
 Frequencies --    731.6014               748.6986               783.3495
 Red. masses --      1.6540                 2.1468                 1.3819
 Frc consts  --      0.5216                 0.7090                 0.4996
 IR Inten    --     12.7887                72.0288                 1.8906

                     31                     32                     33
                      A                      A                      A
 Frequencies --    820.1260               832.2608               867.1909
 Red. masses --      1.2776                 1.5407                 1.9657
 Frc consts  --      0.5063                 0.6288                 0.8709
 IR Inten    --     18.4474                 1.6145                 3.7539

                     34                     35                     36
                      A                      A                      A
 Frequencies --    869.9550               907.5079               918.0284
 Red. masses --      1.3133                 6.1918                 1.9375
 Frc consts  --      0.5856                 3.0045                 0.9621
 IR Inten    --      0.7498                 6.6144                11.1219

                     37                     38                     39
                      A                      A                      A
 Frequencies --    936.8630               975.7702               985.4361
 Red. masses --      3.5604                 1.3268                 1.4214
 Frc consts  --      1.8412                 0.7443                 0.8132
 IR Inten    --     15.4577                12.1452                10.2713

                     40                     41                     42
                      A                      A                      A
 Frequencies --   1004.6906              1010.6011              1032.5395
 Red. masses --      1.6391                 1.4517                 3.4510
 Frc consts  --      0.9748                 0.8736                 2.1677
 IR Inten    --      6.0889                 9.6387               104.1498

                     43                     44                     45
                      A                      A                      A
 Frequencies --   1042.4129              1050.2658              1066.3742
 Red. masses --      1.4117                 2.6579                 2.9900
 Frc consts  --      0.9038                 1.7274                 2.0033
 IR Inten    --     20.7996                13.9066                18.1027

                     46                     47                     48
                      A                      A                      A
 Frequencies --   1074.3588              1114.1545              1148.0649
 Red. masses --      2.7685                 2.6651                 2.0495
 Frc consts  --      1.8827                 1.9492                 1.5916
 IR Inten    --      2.6217                 7.9514                64.8344

                     49                     50                     51
                      A                      A                      A
 Frequencies --   1163.8400              1170.4626              1186.2420
 Red. masses --      2.6276                 2.2312                 1.8418
 Frc consts  --      2.0970                 1.8009                 1.5270
 IR Inten    --     11.7924                 0.5765                14.8309

                     52                     53                     54
                      A                      A                      A
 Frequencies --   1192.8875              1214.3430              1235.2273
 Red. masses --      1.8158                 2.2556                 1.9206
 Frc consts  --      1.5224                 1.9597                 1.7265
 IR Inten    --      2.1832                26.0746                 6.2305

                     55                     56                     57
                      A                      A                      A
 Frequencies --   1251.8637              1261.2420              1293.1463
 Red. masses --      2.3166                 1.4252                 1.4047
 Frc consts  --      2.1390                 1.3357                 1.3839
 IR Inten    --      5.9859                25.5249                10.1846

                     58                     59                     60
                      A                      A                      A
 Frequencies --   1304.5733              1330.4107              1354.0124
 Red. masses --      1.3373                 1.2486                 1.3436
 Frc consts  --      1.3410                 1.3021                 1.4514
 IR Inten    --      5.6409                 2.0523                 4.1354

                     61                     62                     63
                      A                      A                      A
 Frequencies --   1359.7563              1384.3159              1397.2319
 Red. masses --      1.2608                 1.3224                 1.4235
 Frc consts  --      1.3734                 1.4931                 1.6373
 IR Inten    --     13.9582                 2.7792                 0.7188

                     64                     65                     66
                      A                      A                      A
 Frequencies --   1402.6324              1414.6679              1428.1405
 Red. masses --      1.2859                 1.3085                 1.3013
 Frc consts  --      1.4905                 1.5429                 1.5638
 IR Inten    --      9.4767                 9.1009                10.5619

                     67                     68                     69
                      A                      A                      A
 Frequencies --   1430.1504              1435.6081              1439.8468
 Red. masses --      2.0150                 1.3808                 1.2598
 Frc consts  --      2.4283                 1.6767                 1.5388
 IR Inten    --     16.1926                36.8826                14.3030

                     70                     71                     72
                      A                      A                      A
 Frequencies --   1442.1592              1507.6856              1515.7991
 Red. masses --      1.2558                 1.0909                 1.0674
 Frc consts  --      1.5388                 1.4610                 1.4450
 IR Inten    --     10.1004                 2.6816                 0.3398

                     73                     74                     75
                      A                      A                      A
 Frequencies --   1518.2663              1523.9194              1531.3166
 Red. masses --      1.1879                 1.0785                 1.0514
 Frc consts  --      1.6133                 1.4757                 1.4525
 IR Inten    --     15.8932                 4.0165                 2.4741

                     76                     77                     78
                      A                      A                      A
 Frequencies --   1533.2319              1536.4146              1539.8157
 Red. masses --      1.0672                 1.0470                 1.0665
 Frc consts  --      1.4781                 1.4562                 1.4899
 IR Inten    --      2.2605                 7.3951                 2.6998

                     79                     80                     81
                      A                      A                      A
 Frequencies --   1551.5771              1552.2344              1651.3118
 Red. masses --      3.5090                 1.1100                 6.1266
 Frc consts  --      4.9772                 1.5757                 9.8431
 IR Inten    --     12.7500                 5.6341                 0.5427

                     82                     83                     84
                      A                      A                      A
 Frequencies --   2995.0882              3006.5879              3020.2732
 Red. masses --      1.0805                 1.0817                 1.0701
 Frc consts  --      5.7107                 5.7609                 5.7513
 IR Inten    --      1.5994                10.1170                42.1014

                     85                     86                     87
                      A                      A                      A
 Frequencies --   3038.3191              3044.1823              3044.7382
 Red. masses --      1.0475                 1.0640                 1.0440
 Frc consts  --      5.6973                 5.8093                 5.7025
 IR Inten    --     32.6329                48.8808                12.1167

                     88                     89                     90
                      A                      A                      A
 Frequencies --   3046.1160              3077.2181              3095.5057
 Red. masses --      1.0382                 1.0932                 1.0868
 Frc consts  --      5.6759                 6.0990                 6.1357
 IR Inten    --     31.2424                26.7463                11.7472

                     91                     92                     93
                      A                      A                      A
 Frequencies --   3106.9339              3109.7428              3111.9825
 Red. masses --      1.1014                 1.0976                 1.0936
 Frc consts  --      6.2642                 6.2539                 6.2402
 IR Inten    --     40.8097                35.0588                48.2983

                     94                     95                     96
                      A                      A                      A
 Frequencies --   3116.6218              3125.6320              3140.9543
 Red. masses --      1.0932                 1.0994                 1.1015
 Frc consts  --      6.2563                 6.3284                 6.4025
 IR Inten    --     25.0556                45.5710                30.0716

                     97                     98                     99
                      A                      A                      A
 Frequencies --   3145.7653              3264.7809              3275.9365
 Red. masses --      1.1002                 1.0917                 1.0967
 Frc consts  --      6.4146                 6.8557                 6.9343
 IR Inten    --     20.8369                 4.6727                 0.8714

                    100                    101                    102
                      A                      A                      A
 Frequencies --   3303.2452              3520.2891              3727.4334
 Red. masses --      1.1050                 1.0742                 1.0660
 Frc consts  --      7.1037                 7.8435                 8.7264
 IR Inten    --      1.4057                 0.1320                15.3469

 - Thermochemistry -
 -------------------
 Temperature   298.150 Kelvin.  Pressure   1.00000 Atm.
 Atom     1 has atomic number  6 and mass  12.00000

 Molecular mass:   211.15723 amu.
 Principal axes and moments of inertia in atomic units:
                           1         2         3
     Eigenvalues --  1511.050516709.402127374.41983
           X            1.00000   0.00122   0.00104
           Y           -0.00118   0.99920  -0.04001
           Z           -0.00109   0.04001   0.99920
 This molecule is an asymmetric top.
 Rotational symmetry number  1.
 Warning -- assumption of classical behavior for rotation
           may cause significant error
 Rotational temperatures (Kelvin)      0.05732     0.01291     0.01175
 Rotational constants (GHZ):           1.19436     0.26899     0.24473
 Zero-point vibrational energy     840643.1 (Joules/Mol)
                                  200.91851 (Kcal/Mol)
 Warning -- explicit consideration of  25 degrees of freedom as
           vibrations may cause significant error
 Vibrational temperatures:     24.09    37.96    75.74    88.71    91.77
          (Kelvin)            130.29   166.05   250.35   279.55   318.61
                              329.66   339.53   379.82   402.03   464.12
                              481.76   498.71   555.68   588.53   624.69
                              674.29   699.51   704.39   827.30   881.71
                              942.03  1016.80  1052.61  1077.21  1127.07
                             1179.98  1197.44  1247.69  1251.67  1305.70
                             1320.84  1347.94  1403.92  1417.82  1445.53
                             1454.03  1485.59  1499.80  1511.10  1534.27
                             1545.76  1603.02  1651.81  1674.51  1684.03
                             1706.74  1716.30  1747.17  1777.22  1801.15
                             1814.65  1860.55  1876.99  1914.16  1948.12
                             1956.39  1991.72  2010.31  2018.08  2035.39
                             2054.78  2057.67  2065.52  2071.62  2074.95
                             2169.22  2180.90  2184.45  2192.58  2203.22
                             2205.98  2210.56  2215.45  2232.37  2233.32
                             2375.87  4309.26  4325.81  4345.50  4371.46
                             4379.90  4380.70  4382.68  4427.43  4453.74
                             4470.18  4474.23  4477.45  4484.12  4497.09
                             4519.13  4526.05  4697.29  4713.34  4752.63
                             5064.91  5362.95

 Zero-point correction=                           0.320184 (Hartree/Particle)
 Thermal correction to Energy=                    0.336997
 Thermal correction to Enthalpy=                  0.337942
 Thermal correction to Gibbs Free Energy=         0.273799
 Sum of electronic and zero-point Energies=           -674.821006
 Sum of electronic and thermal Energies=              -674.804193
 Sum of electronic and thermal Enthalpies=            -674.803248
 Sum of electronic and thermal Free Energies=         -674.867391

                     E (Thermal)             CV                S
                      KCal/Mol        Cal/Mol-Kelvin    Cal/Mol-Kelvin
 Total                  211.469             62.628            135.000
 Electronic               0.000              0.000              0.000
 Translational            0.889              2.981             41.946
 Rotational               0.889              2.981             32.680
 Vibrational            209.692             56.666             60.374
 Vibration     1          0.593              1.986              6.987
 Vibration     2          0.593              1.985              6.084
 Vibration     3          0.596              1.977              4.716
 Vibration     4          0.597              1.973              4.403
 Vibration     5          0.597              1.972              4.337
 Vibration     6          0.602              1.956              3.648
 Vibration     7          0.608              1.937              3.176
 Vibration     8          0.627              1.874              2.392
 Vibration     9          0.635              1.848              2.186
 Vibration    10          0.648              1.808              1.947
 Vibration    11          0.652              1.797              1.886
 Vibration    12          0.655              1.786              1.833
 Vibration    13          0.671              1.739              1.635
 Vibration    14          0.680              1.712              1.537
 Vibration    15          0.708              1.630              1.297
 Vibration    16          0.716              1.606              1.237
 Vibration    17          0.725              1.582              1.181
 Vibration    18          0.755              1.500              1.015
 Vibration    19          0.773              1.451              0.930
 Vibration    20          0.795              1.396              0.845
 Vibration    21          0.826              1.320              0.741
 Vibration    22          0.842              1.281              0.694
 Vibration    23          0.845              1.273              0.685
 Vibration    24          0.931              1.085              0.495
 Vibration    25          0.972              1.005              0.428

                           ! Non-Optimized Parameters !
 Normal termination of Gaussian 16 at Thu Dec 10 17:09:16 2020.

 ----------------------------------------------------------------------
 # B3LYP/6-311++G(d,p) empiricaldispersion=gd3bj scf=xqc pop=npa geom=c
 heck
 ----------------------------------------------------------------------

 --------------------------------------
 CID_61463319_JID_5330_Energie_neutraal
 --------------------------------------
 Structure from the checkpoint file:  "JID_5330.chk"
 Charge =  0 Multiplicity = 1

 SCF Done:  E(RB3LYP) =  -675.343978924     A.U. after   15 cycles
 Normal termination of Gaussian 16 at Thu Dec 10 17:20:06 2020.

 ----------------------------------------------------------------------
 # B3LYP/6-311++G(d,p) empiricaldispersion=gd3bj scf=xqc pop=npa geom=c
 heck
 ----------------------------------------------------------------------

 ------------------------------------
 CID_61463319_JID_5330_Energie_kation
 ------------------------------------
 Structure from the checkpoint file:  "JID_5330.chk"
 Charge =  1 Multiplicity = 2

 SCF Done:  E(UB3LYP) =  -675.053403857     A.U. after   25 cycles
 Normal termination of Gaussian 16 at Thu Dec 10 17:43:28 2020.
 Gaussian 16:  ES64L-G16RevA.03 25-Dec-2016

 ----------------------------------------------------------------------
 # B3LYP/6-311++G(d,p) empiricaldispersion=gd3bj scf=xqc pop=npa geom=c
 heck
 ----------------------------------------------------------------------

 -----------------------------------
 CID_61463319_JID_5330_Energie_anion
 -----------------------------------
 Structure from the checkpoint file:  "JID_5330.chk"
 Charge = -1 Multiplicity = 2

                         Standard orientation:
 ---------------------------------------------------------------------
 Center     Atomic      Atomic             Coordinates (Angstroms)
 Number     Number       Type             X           Y           Z
 ---------------------------------------------------------------------
      1          6           0       -5.287693    0.604733   -0.051700
      2          6           0       -3.837388    0.731943   -0.529411
      3          6           0       -2.796082    0.102758    0.415234
      4          6           0       -3.105669   -1.370729    0.703327
      5          6           0       -1.351616    0.244586   -0.131313
      6          6           0       -0.967302    1.695333   -0.449234
      7          7           0       -0.393469   -0.346253    0.823969
      8          6           0        0.439907   -1.427956    0.329460
      9          6           0        1.476509   -1.071513   -0.761964
     10          6           0        2.429521   -0.010384   -0.316858
     11          6           0        2.887615    1.152300   -0.862424
     12          6           0        3.837782    1.701716    0.062823
     13          6           0        3.894800    0.831375    1.106452
     14          8           0        3.042703   -0.216323    0.897997
     15          8           0        2.155811   -2.256512   -1.195009
     16          1           0       -5.626530   -0.435931   -0.039190
     17          1           0       -5.964165    1.164148   -0.707683
     18          1           0       -5.402849    1.004065    0.963750
     19          1           0       -3.740299    0.271705   -1.524691
     20          1           0       -3.613776    1.796629   -0.661283
     21          1           0       -2.824946    0.648912    1.371336
     22          1           0       -3.156987   -1.948391   -0.230217
     23          1           0       -2.323727   -1.800759    1.333835
     24          1           0       -4.062599   -1.490483    1.220146
     25          1           0       -1.303763   -0.334350   -1.066855
     26          1           0       -1.082232    2.324982    0.443299
     27          1           0        0.078716    1.752369   -0.765428
     28          1           0       -1.585533    2.126230   -1.241263
     29          1           0        0.185620    0.377808    1.240031
     30          1           0        0.982789   -1.860088    1.180590
     31          1           0       -0.200817   -2.218794   -0.073806
     32          1           0        0.962779   -0.698293   -1.652921
     33          1           0        2.588934    1.564895   -1.815935
     34          1           0        4.399095    2.619444   -0.041467
     35          1           0        4.452106    0.804965    2.030076
     36          1           0        2.682047   -2.567583   -0.440375
 ---------------------------------------------------------------------

 SCF Done:  E(UB3LYP) =  -675.329543271     A.U. after   33 cycles
 SCF Done:  E(UB3LYP) =  -675.329543271     a.u. after    1 cycles

 The electronic state is 2-A.
 Alpha  occ. eigenvalues --  -19.10284 -19.04221 -14.20606 -10.14529 -10.13626
 Alpha  occ. eigenvalues --  -10.13362 -10.11024 -10.10791 -10.08581 -10.08409
 Alpha  occ. eigenvalues --  -10.07921 -10.07515 -10.07110 -10.06869 -10.06388
 Alpha  occ. eigenvalues --   -1.02550  -0.94280  -0.82149  -0.72160  -0.71539
 Alpha  occ. eigenvalues --   -0.68871  -0.65720  -0.62993  -0.61226  -0.55600
 Alpha  occ. eigenvalues --   -0.54872  -0.51764  -0.51642  -0.47250  -0.46969
 Alpha  occ. eigenvalues --   -0.45662  -0.40404  -0.39711  -0.38648  -0.37701
 Alpha  occ. eigenvalues --   -0.36956  -0.36014  -0.34555  -0.34252  -0.32728
 Alpha  occ. eigenvalues --   -0.32547  -0.32151  -0.31155  -0.30291  -0.29232
 Alpha  occ. eigenvalues --   -0.28944  -0.28233  -0.27770  -0.27580  -0.26353
 Alpha  occ. eigenvalues --   -0.25586  -0.23440  -0.23294  -0.22677  -0.21025
 Alpha  occ. eigenvalues --   -0.19721  -0.14413  -0.13301   0.04096
 Alpha virt. eigenvalues --    0.05461   0.06524   0.06799   0.07554   0.07701
 Alpha virt. eigenvalues --    0.07770   0.08415   0.08936   0.09770   0.10215
 Alpha virt. eigenvalues --    0.10402   0.10768   0.11354   0.11710   0.12468

  Beta  occ. eigenvalues --  -19.10272 -19.04207 -14.20601 -10.14525 -10.13627
  Beta  occ. eigenvalues --  -10.13339 -10.11019 -10.10783 -10.08568 -10.08392
  Beta  occ. eigenvalues --  -10.07918 -10.07501 -10.07086 -10.06851 -10.06380
  Beta  occ. eigenvalues --   -1.02529  -0.94251  -0.82138  -0.72142  -0.71511
  Beta  occ. eigenvalues --   -0.68847  -0.65693  -0.62968  -0.61197  -0.55563
  Beta  occ. eigenvalues --   -0.54839  -0.51731  -0.51606  -0.47209  -0.46930
  Beta  occ. eigenvalues --   -0.45615  -0.40372  -0.39680  -0.38632  -0.37668
  Beta  occ. eigenvalues --   -0.36933  -0.35994  -0.34527  -0.34216  -0.32707
  Beta  occ. eigenvalues --   -0.32523  -0.32117  -0.31126  -0.30267  -0.29209
  Beta  occ. eigenvalues --   -0.28923  -0.28207  -0.27744  -0.27555  -0.26336
  Beta  occ. eigenvalues --   -0.25560  -0.23421  -0.23268  -0.22657  -0.21009
  Beta  occ. eigenvalues --   -0.19699  -0.14392  -0.13293
  Beta virt. eigenvalues --    0.05952   0.06543   0.07107   0.07222   0.07715
  Beta virt. eigenvalues --    0.08166   0.08306   0.08800   0.09465   0.09999
  Beta virt. eigenvalues --    0.10396   0.10587   0.10924   0.11606   0.11877

 Mulliken charges and spin densities:
               1          2
     1  C    0.881047  -1.545904
     2  C   -1.080420   0.828204
     3  C    1.153248  -0.398406
     4  C   -0.237109  -0.474655
     5  C   -1.607607   0.805967
     6  C    0.379852  -0.960415
     7  N    0.293704  -0.024199
     8  C   -0.714738   0.116649
     9  C    2.133920  -2.759494
    10  C    0.642215  -1.008491
    11  C   -2.677229   3.323151
    12  C    2.722908  -3.315911
    13  C   -0.620656   0.775004
    14  O   -0.038092   0.057773
    15  O   -0.163550   0.018581
    16  H    0.004948   0.135000
    17  H   -0.369122   0.511087
    18  H   -0.067458   0.206603
    19  H   -0.153748   0.293446
    20  H    0.084958   0.032128
    21  H    0.103604   0.049636
    22  H    0.021407   0.125391
    23  H    0.113993   0.034380
    24  H    0.064443   0.073765
    25  H    0.214414  -0.076295
    26  H   -0.145225   0.305515
    27  H    0.315497  -0.248571
    28  H   -0.255745   0.416700
    29  H    0.230371   0.018227
    30  H   -0.036906   0.258109
    31  H    0.223158  -0.074746
    32  H    0.019747   0.228910
    33  H   -0.558683   0.756184
    34  H   -0.822383   1.000670
    35  H   -1.165021   1.362891
    36  H    0.110258   0.153114
 Sum of Mulliken charges =  -1.00000   1.00000

 Dipole moment (field-independent basis, Debye):
    X=             -3.1360    Y=             -4.0592    Z=              0.1270  Tot=              5.1311
 Quadrupole moment (field-independent basis, Debye-Ang):
   XX=           -211.3590   YY=           -140.3873   ZZ=           -133.8535
   XY=             -6.4708   XZ=            -10.6337   YZ=             -0.4782

 Summary of Natural Population Analysis:

                                       Natural Population
                Natural  -----------------------------------------------
    Atom  No    Charge         Core      Valence    Rydberg      Total
 -----------------------------------------------------------------------
      C    1   -0.28542      0.99967     2.28053    0.00522     3.28542
      C    2   -0.19110      0.99962     2.18292    0.00856     3.19110
      C    3   -0.10925      0.99958     2.09915    0.01052     3.10925
      C    4   -0.28919      0.99965     2.28455    0.00499     3.28919
      C    5   -0.00764      0.99958     1.99529    0.01278     3.00764
      C    6   -0.29430      0.99964     2.28855    0.00612     3.29430
      N    7   -0.34608      0.99974     2.83500    0.01134     3.84608
      C    8   -0.09253      0.99960     2.08084    0.01209     3.09253
      C    9    0.03163      0.99950     1.95588    0.01299     2.96837
      C   10    0.12999      0.99945     1.85295    0.01761     2.87001
      C   11   -0.13832      0.99949     2.12979    0.00904     3.13832
      C   12   -0.14733      0.99957     2.13796    0.00981     3.14733
      C   13    0.06507      0.99950     1.92085    0.01458     2.93493
      O   14   -0.24423      0.99986     3.23466    0.00971     4.24423
      O   15   -0.36358      0.99990     3.35788    0.00579     4.36358
      H   16    0.09575      0.00000     0.40336    0.00089     0.40425
      H   17    0.10004      0.00000     0.39898    0.00098     0.39996
      H   18    0.09529      0.00000     0.40380    0.00091     0.40471
      H   19    0.09261      0.00000     0.40626    0.00113     0.40739
      H   20    0.09827      0.00000     0.40048    0.00126     0.40173
      H   21    0.09248      0.00000     0.40586    0.00166     0.40752
      H   22    0.09320      0.00000     0.40593    0.00087     0.40680
      H   23    0.10826      0.00000     0.39069    0.00105     0.39174
      H   24    0.09791      0.00000     0.40132    0.00076     0.40209
      H   25    0.08444      0.00000     0.41343    0.00213     0.41556
      H   26    0.09777      0.00000     0.40120    0.00103     0.40223
      H   27    0.10436      0.00000     0.39432    0.00131     0.39564
      H   28    0.10265      0.00000     0.39623    0.00112     0.39735
      H   29    0.17731      0.00000     0.31966    0.00303     0.32269
      H   30    0.09636      0.00000     0.40232    0.00131     0.40364
      H   31    0.09691      0.00000     0.40189    0.00120     0.40309
      H   32    0.09590      0.00000     0.40234    0.00176     0.40410
      H   33    0.11204      0.00000     0.38663    0.00133     0.38796
      H   34    0.11295      0.00000     0.38442    0.00263     0.38705
      H   35    0.09930      0.00000     0.39752    0.00318     0.40070
      H   36    0.22848      0.00000     0.26863    0.00289     0.27152
 =======================================================================
   * Total *   -0.00000     14.99434    42.82210    0.18356    58.00000

 Normal termination of Gaussian 16 at Thu Dec 10 18:05:54 2020.
