 Gaussian 16, Revision A.03,

 -----------------------------------------------------------
 # opt freq B3LYP/6-31G(d) empiricaldispersion=gd3bj scf=xqc
 -----------------------------------------------------------

 ------------------------------
 CID_12740280_JID_4942_neutraal
 ------------------------------
 Symbolic Z-matrix:
 Charge =  0 Multiplicity = 1

 SCF Done:  E(RB3LYP) =  -619.781081088     A.U. after   14 cycles
 SCF Done:  E(RB3LYP) =  -619.783912756     A.U. after   12 cycles
 SCF Done:  E(RB3LYP) =  -619.782216090     A.U. after   13 cycles
 SCF Done:  E(RB3LYP) =  -619.783730088     A.U. after   13 cycles
 SCF Done:  E(RB3LYP) =  -619.784491754     A.U. after    9 cycles
 SCF Done:  E(RB3LYP) =  -619.784684785     A.U. after   13 cycles
 SCF Done:  E(RB3LYP) =  -619.784924202     A.U. after   11 cycles
 SCF Done:  E(RB3LYP) =  -619.784954833     A.U. after   11 cycles
 SCF Done:  E(RB3LYP) =  -619.784970293     A.U. after   11 cycles
 SCF Done:  E(RB3LYP) =  -619.784990775     A.U. after   10 cycles
 SCF Done:  E(RB3LYP) =  -619.784996087     A.U. after   10 cycles
 SCF Done:  E(RB3LYP) =  -619.784997913     A.U. after    9 cycles
 SCF Done:  E(RB3LYP) =  -619.784999103     A.U. after    8 cycles
 SCF Done:  E(RB3LYP) =  -619.784999458     A.U. after    8 cycles
 SCF Done:  E(RB3LYP) =  -619.784999552     A.U. after    7 cycles
 Optimization completed.
    -- Stationary point found.
 Normal termination of Gaussian 16 at Thu Dec 10 11:02:24 2020.

 --------------------------------------------------------------------
 #N Geom=AllCheck Guess=TCheck SCRF=Check GenChk RB3LYP/6-31G(d) Freq
 --------------------------------------------------------------------

 Structure from the checkpoint file:  "JID_4942.chk"
 ------------------------------
 CID_12740280_JID_4942_neutraal
 ------------------------------
 Charge =  0 Multiplicity = 1

 SCF Done:  E(RB3LYP) =  -619.784999552     A.U. after    1 cycles

  Exact polarizability: 129.401   4.034 138.312   5.764   2.363 108.879
 Approx polarizability: 174.374  12.914 207.494   7.483  12.331 163.558

                      1                      2                      3
                      A                      A                      A
 Frequencies --     58.3962                78.7379                92.8099
 Red. masses --      2.9951                 4.2735                 3.4903
 Frc consts  --      0.0060                 0.0156                 0.0177
 IR Inten    --      3.3309                 1.7800                 0.8670

                      4                      5                      6
                      A                      A                      A
 Frequencies --    107.4066               136.5470               158.9288
 Red. masses --      3.2769                 2.2222                 3.7509
 Frc consts  --      0.0223                 0.0244                 0.0558
 IR Inten    --      4.2075                 4.4873                 4.1175

                      7                      8                      9
                      A                      A                      A
 Frequencies --    190.5989               223.5382               247.5735
 Red. masses --      2.1418                 1.3205                 1.4048
 Frc consts  --      0.0458                 0.0389                 0.0507
 IR Inten    --      0.3872                 0.5565                 1.5894

                     10                     11                     12
                      A                      A                      A
 Frequencies --    251.2949               273.4332               277.8348
 Red. masses --      2.5514                 2.1583                 2.3934
 Frc consts  --      0.0949                 0.0951                 0.1089
 IR Inten    --      7.3478                 0.1464                 0.1495

                     13                     14                     15
                      A                      A                      A
 Frequencies --    292.7207               311.9481               319.6020
 Red. masses --      1.3057                 2.4031                 2.5237
 Frc consts  --      0.0659                 0.1378                 0.1519
 IR Inten    --      0.1941                 0.9664                 6.4094

                     16                     17                     18
                      A                      A                      A
 Frequencies --    353.9878               377.0241               395.5920
 Red. masses --      2.5530                 2.6436                 2.9384
 Frc consts  --      0.1885                 0.2214                 0.2709
 IR Inten    --      1.2991                 0.7193                 7.0264

                     19                     20                     21
                      A                      A                      A
 Frequencies --    452.2333               475.6037               497.7546
 Red. masses --      2.5765                 2.4083                 3.0247
 Frc consts  --      0.3105                 0.3210                 0.4415
 IR Inten    --      0.2319                 1.8912                 2.5153

                     22                     23                     24
                      A                      A                      A
 Frequencies --    529.7822               616.0787               650.6305
 Red. masses --      2.8863                 3.8276                 2.1786
 Frc consts  --      0.4773                 0.8560                 0.5434
 IR Inten    --      3.2274                 1.8414                 0.9438

                     25                     26                     27
                      A                      A                      A
 Frequencies --    678.3448               718.3659               735.4420
 Red. masses --      3.6272                 1.9163                 1.2743
 Frc consts  --      0.9834                 0.5827                 0.4061
 IR Inten    --     14.3879                 4.0746                 0.2788

                     28                     29                     30
                      A                      A                      A
 Frequencies --    807.8325               834.4109               848.1525
 Red. masses --      2.0219                 2.6688                 2.2679
 Frc consts  --      0.7774                 1.0948                 0.9612
 IR Inten    --      2.4263                 3.0286                 1.1269

                     31                     32                     33
                      A                      A                      A
 Frequencies --    892.5209               912.4465               927.6497
 Red. masses --      2.5157                 1.4608                 2.0930
 Frc consts  --      1.1807                 0.7165                 1.0612
 IR Inten    --      5.3439                28.3768                15.4591

                     34                     35                     36
                      A                      A                      A
 Frequencies --    939.8838               953.4527               964.0433
 Red. masses --      2.7532                 2.0057                 1.5493
 Frc consts  --      1.4330                 1.0743                 0.8483
 IR Inten    --     19.9341                 3.2080                 2.3753

                     37                     38                     39
                      A                      A                      A
 Frequencies --    976.8635              1005.6799              1040.2112
 Red. masses --      2.0939                 1.6365                 1.5579
 Frc consts  --      1.1773                 0.9752                 0.9932
 IR Inten    --      9.9070                 3.3723                 0.9741

                     40                     41                     42
                      A                      A                      A
 Frequencies --   1052.8742              1073.6282              1094.0996
 Red. masses --      1.8073                 1.8625                 1.8665
 Frc consts  --      1.1804                 1.2649                 1.3164
 IR Inten    --      4.3224                 5.1304                 4.9602

                     43                     44                     45
                      A                      A                      A
 Frequencies --   1117.3888              1139.5998              1178.8895
 Red. masses --      2.9619                 2.9306                 2.1499
 Frc consts  --      2.1788                 2.2424                 1.7604
 IR Inten    --     32.9135                66.7992                15.9218

                     46                     47                     48
                      A                      A                      A
 Frequencies --   1187.4295              1191.3975              1228.9701
 Red. masses --      1.2834                 1.7578                 1.5901
 Frc consts  --      1.0661                 1.4700                 1.4150
 IR Inten    --      1.8027                 8.5527                18.5302

                     49                     50                     51
                      A                      A                      A
 Frequencies --   1236.2535              1243.4112              1253.4853
 Red. masses --      1.4265                 2.4158                 1.4902
 Frc consts  --      1.2845                 2.2006                 1.3795
 IR Inten    --      4.8245                17.5901                 0.8660

                     52                     53                     54
                      A                      A                      A
 Frequencies --   1279.5555              1285.7764              1330.6324
 Red. masses --      1.7240                 1.5413                 1.7438
 Frc consts  --      1.6630                 1.5013                 1.8192
 IR Inten    --     13.3694                 5.1139                25.1407

                     55                     56                     57
                      A                      A                      A
 Frequencies --   1352.4105              1365.8765              1377.7104
 Red. masses --      1.5599                 1.3426                 1.4925
 Frc consts  --      1.6810                 1.4758                 1.6690
 IR Inten    --      1.5841                 2.8796                 1.8850

                     58                     59                     60
                      A                      A                      A
 Frequencies --   1395.9941              1428.5100              1434.1139
 Red. masses --      1.4214                 1.5069                 1.2359
 Frc consts  --      1.6321                 1.8118                 1.4977
 IR Inten    --      2.6351                11.5831                 2.1232

                     61                     62                     63
                      A                      A                      A
 Frequencies --   1437.3750              1443.1803              1455.8515
 Red. masses --      1.1983                 1.1719                 1.2120
 Frc consts  --      1.4587                 1.4381                 1.5135
 IR Inten    --      9.1609                 5.5597                 7.8164

                     64                     65                     66
                      A                      A                      A
 Frequencies --   1479.2597              1484.2564              1504.5040
 Red. masses --      1.1344                 1.1398                 1.1242
 Frc consts  --      1.4625                 1.4795                 1.4992
 IR Inten    --     10.8022                 2.6630                 1.5295

                     67                     68                     69
                      A                      A                      A
 Frequencies --   1508.2857              1513.9096              1523.1218
 Red. masses --      1.0821                 1.0540                 1.0759
 Frc consts  --      1.4504                 1.4232                 1.4706
 IR Inten    --      3.8231                 5.2821                 5.0386

                     70                     71                     72
                      A                      A                      A
 Frequencies --   1525.3144              1533.0517              1539.5364
 Red. masses --      1.0800                 1.0579                 1.0598
 Frc consts  --      1.4804                 1.4649                 1.4800
 IR Inten    --      1.6651                11.9827                 4.8416

                     73                     74                     75
                      A                      A                      A
 Frequencies --   1542.1600              1546.1578              1736.2695
 Red. masses --      1.0524                 1.0517                 5.2498
 Frc consts  --      1.4747                 1.4813                 9.3245
 IR Inten    --      5.8251                 8.1170                21.0183

                     76                     77                     78
                      A                      A                      A
 Frequencies --   1827.1374              2907.5005              3024.1550
 Red. masses --      9.4776                 1.0842                 1.0363
 Frc consts  --     18.6418                 5.3999                 5.5839
 IR Inten    --    108.3712               165.6705                28.1470

                     79                     80                     81
                      A                      A                      A
 Frequencies --   3027.3749              3042.4322              3046.9332
 Red. masses --      1.0692                 1.0634                 1.0720
 Frc consts  --      5.7737                 5.7996                 5.8640
 IR Inten    --     19.9200                34.4339                 0.9381

                     82                     83                     84
                      A                      A                      A
 Frequencies --   3052.6078              3056.5154              3063.5450
 Red. masses --      1.0400                 1.0490                 1.0663
 Frc consts  --      5.7101                 5.7741                 5.8963
 IR Inten    --     14.9165                27.2723                48.3681

                     85                     86                     87
                      A                      A                      A
 Frequencies --   3078.7533              3084.1487              3087.9496
 Red. masses --      1.0920                 1.0919                 1.0980
 Frc consts  --      6.0982                 6.1191                 6.1685
 IR Inten    --     34.5028                42.1329                12.6024

                     88                     89                     90
                      A                      A                      A
 Frequencies --   3095.0955              3098.8666              3108.7576
 Red. masses --      1.0862                 1.1043                 1.1007
 Frc consts  --      6.1305                 6.2480                 6.2675
 IR Inten    --     16.1875                45.4690                 6.5956

                     91                     92                     93
                      A                      A                      A
 Frequencies --   3116.3355              3123.6918              3142.9076
 Red. masses --      1.1002                 1.1002                 1.0996
 Frc consts  --      6.2951                 6.3251                 6.3994
 IR Inten    --     62.6048                40.2654                23.3802

                     94                     95                     96
                      A                      A                      A
 Frequencies --   3163.5242              3169.8331              3236.1949
 Red. masses --      1.0601                 1.0974                 1.1149
 Frc consts  --      6.2507                 6.4967                 6.8795
 IR Inten    --      9.4649                12.3348                20.3542

 - Thermochemistry -
 -------------------
 Temperature   298.150 Kelvin.  Pressure   1.00000 Atm.
 Atom     1 has atomic number  6 and mass  12.00000

 Molecular mass:   196.14633 amu.
 Principal axes and moments of inertia in atomic units:
                           1         2         3
     Eigenvalues --  2268.392372730.581123438.95447
           X            0.99917   0.01922   0.03590
           Y           -0.01943   0.99980   0.00562
           Z           -0.03579  -0.00632   0.99934
 This molecule is an asymmetric top.
 Rotational symmetry number  1.
 Warning -- assumption of classical behavior for rotation
           may cause significant error
 Rotational temperatures (Kelvin)      0.03818     0.03172     0.02519
 Rotational constants (GHZ):           0.79560     0.66094     0.52479
 Zero-point vibrational energy     796592.4 (Joules/Mol)
                                  190.39016 (Kcal/Mol)
 Warning -- explicit consideration of  23 degrees of freedom as
           vibrations may cause significant error
 Vibrational temperatures:     84.02   113.29   133.53   154.53   196.46
          (Kelvin)            228.66   274.23   321.62   356.20   361.56
                              393.41   399.74   421.16   448.82   459.84
                              509.31   542.45   569.17   650.66   684.29
                              716.16   762.24   886.40   936.11   975.99
                             1033.57  1058.14  1162.29  1200.53  1220.30
                             1284.14  1312.81  1334.68  1352.28  1371.81
                             1387.04  1405.49  1446.95  1496.63  1514.85
                             1544.71  1574.17  1607.67  1639.63  1696.16
                             1708.45  1714.16  1768.21  1778.69  1788.99
                             1803.49  1841.00  1849.95  1914.48  1945.82
                             1965.19  1982.22  2008.52  2055.31  2063.37
                             2068.06  2076.41  2094.65  2128.32  2135.51
                             2164.65  2170.09  2178.18  2191.43  2194.59
                             2205.72  2215.05  2218.82  2224.58  2498.10
                             2628.84  4183.24  4351.08  4355.72  4377.38
                             4383.86  4392.02  4397.64  4407.76  4429.64
                             4437.40  4442.87  4453.15  4458.58  4472.81
                             4483.71  4494.30  4521.94  4551.61  4560.68
                             4656.16

 Zero-point correction=                           0.303406 (Hartree/Particle)
 Thermal correction to Energy=                    0.318351
 Thermal correction to Enthalpy=                  0.319295
 Thermal correction to Gibbs Free Energy=         0.262786
 Sum of electronic and zero-point Energies=           -619.481594
 Sum of electronic and thermal Energies=              -619.466649
 Sum of electronic and thermal Enthalpies=            -619.465705
 Sum of electronic and thermal Free Energies=         -619.522213

                     E (Thermal)             CV                S
                      KCal/Mol        Cal/Mol-Kelvin    Cal/Mol-Kelvin
 Total                  199.768             57.887            118.932
 Electronic               0.000              0.000              0.000
 Translational            0.889              2.981             41.726
 Rotational               0.889              2.981             31.433
 Vibrational            197.991             51.925             45.774
 Vibration     1          0.596              1.974              4.511
 Vibration     2          0.600              1.963              3.922
 Vibration     3          0.602              1.954              3.600
 Vibration     4          0.606              1.943              3.315
 Vibration     5          0.614              1.917              2.852
 Vibration     6          0.621              1.893              2.563
 Vibration     7          0.634              1.853              2.222
 Vibration     8          0.649              1.805              1.930
 Vibration     9          0.661              1.767              1.748
 Vibration    10          0.663              1.761              1.721
 Vibration    11          0.676              1.722              1.574
 Vibration    12          0.679              1.714              1.547
 Vibration    13          0.688              1.687              1.458
 Vibration    14          0.700              1.651              1.352
 Vibration    15          0.706              1.636              1.312
 Vibration    16          0.730              1.567              1.148
 Vibration    17          0.748              1.519              1.051
 Vibration    18          0.762              1.480              0.979
 Vibration    19          0.811              1.356              0.789
 Vibration    20          0.832              1.304              0.722
 Vibration    21          0.853              1.255              0.664
 Vibration    22          0.885              1.184              0.588
 Vibration    23          0.976              0.998              0.423

 Optimization completed.
    -- Stationary point found.
 Normal termination of Gaussian 16 at Thu Dec 10 11:14:41 2020.

 ----------------------------------------------------------------------
 # B3LYP/6-311++G(d,p) empiricaldispersion=gd3bj scf=xqc pop=npa geom=c
 heck
 ----------------------------------------------------------------------

 --------------------------------------
 CID_12740280_JID_4942_Energie_neutraal
 --------------------------------------
 Structure from the checkpoint file:  "JID_4942.chk"
 Charge =  0 Multiplicity = 1

 SCF Done:  E(RB3LYP) =  -619.961387766     A.U. after   16 cycles
 Normal termination of Gaussian 16 at Thu Dec 10 11:20:55 2020.

 ----------------------------------------------------------------------
 # B3LYP/6-311++G(d,p) empiricaldispersion=gd3bj scf=xqc pop=npa geom=c
 heck
 ----------------------------------------------------------------------

 ------------------------------------
 CID_12740280_JID_4942_Energie_kation
 ------------------------------------
 Structure from the checkpoint file:  "JID_4942.chk"
 Charge =  1 Multiplicity = 2

 SCF Done:  E(UB3LYP) =  -619.645073177     A.U. after   27 cycles
 Normal termination of Gaussian 16 at Thu Dec 10 11:35:35 2020.
 Gaussian 16:  ES64L-G16RevA.03 25-Dec-2016

 ----------------------------------------------------------------------
 # B3LYP/6-311++G(d,p) empiricaldispersion=gd3bj scf=xqc pop=npa geom=c
 heck
 ----------------------------------------------------------------------

 -----------------------------------
 CID_12740280_JID_4942_Energie_anion
 -----------------------------------
 Structure from the checkpoint file:  "JID_4942.chk"
 Charge = -1 Multiplicity = 2

                         Standard orientation:
 ---------------------------------------------------------------------
 Center     Atomic      Atomic             Coordinates (Angstroms)
 Number     Number       Type             X           Y           Z
 ---------------------------------------------------------------------
      1          6           0       -0.163399    0.715680    2.214052
      2          6           0       -0.107948   -0.231075    0.997540
      3          6           0       -1.578879   -0.591642    0.612413
      4          6           0       -2.337861    0.564052   -0.072456
      5          6           0       -1.542118    1.371914   -1.118270
      6          6           0       -0.163357    1.709356   -0.608585
      7          6           0        0.262706    2.969802   -0.492997
      8          6           0        0.616803    0.474347   -0.207448
      9          6           0        2.116380    0.699059    0.015321
     10          6           0        2.984425   -0.458423   -0.426258
     11          8           0        2.620901   -1.382177   -1.121988
     12          8           0       -1.730860   -1.854602   -0.040684
     13          6           0       -1.362457   -2.008116   -1.398018
     14          6           0        0.617803   -1.517851    1.419720
     15          1           0        0.842590    0.989808    2.549521
     16          1           0       -0.660674    0.220616    3.055550
     17          1           0       -0.696719    1.644148    1.995360
     18          1           0       -2.093196   -0.787288    1.560376
     19          1           0       -2.653280    1.258988    0.714696
     20          1           0       -3.255733    0.158154   -0.512871
     21          1           0       -2.093815    2.283261   -1.374110
     22          1           0       -1.442316    0.791150   -2.044411
     23          1           0       -0.367516    3.803802   -0.790874
     24          1           0        1.241143    3.227551   -0.098739
     25          1           0        0.555530   -0.216867   -1.053509
     26          1           0        2.467595    1.551253   -0.586726
     27          1           0        2.376281    0.957250    1.048818
     28          1           0        4.045109   -0.392377   -0.095678
     29          1           0       -1.859488   -1.281535   -2.054248
     30          1           0       -0.278088   -1.953147   -1.558289
     31          1           0       -1.698252   -3.008866   -1.684982
     32          1           0        1.601326   -1.291482    1.847870
     33          1           0        0.037388   -2.038443    2.189104
     34          1           0        0.759188   -2.204357    0.584436
 ---------------------------------------------------------------------

 SCF Done:  E(UB3LYP) =  -619.947907250     A.U. after   33 cycles
 SCF Done:  E(UB3LYP) =  -619.947907251     a.u. after    1 cycles

 The electronic state is 2-A.
 Alpha  occ. eigenvalues --  -19.02044 -19.00238 -10.13667 -10.11913 -10.11047
 Alpha  occ. eigenvalues --  -10.08480 -10.07572 -10.07362 -10.06931 -10.06901
 Alpha  occ. eigenvalues --  -10.06833 -10.05517 -10.05160 -10.04847  -0.93406
 Alpha  occ. eigenvalues --   -0.93020  -0.75071  -0.68881  -0.67762  -0.63259
 Alpha  occ. eigenvalues --   -0.60887  -0.58253  -0.56969  -0.54774  -0.49784
 Alpha  occ. eigenvalues --   -0.45461  -0.44883  -0.41918  -0.39382  -0.38274
 Alpha  occ. eigenvalues --   -0.37544  -0.36561  -0.35888  -0.33770  -0.32794
 Alpha  occ. eigenvalues --   -0.32527  -0.32044  -0.30916  -0.30615  -0.29702
 Alpha  occ. eigenvalues --   -0.29017  -0.27875  -0.26653  -0.25914  -0.25819
 Alpha  occ. eigenvalues --   -0.24983  -0.24180  -0.23708  -0.21850  -0.20836
 Alpha  occ. eigenvalues --   -0.19191  -0.15358  -0.14688  -0.14530   0.04692
 Alpha virt. eigenvalues --    0.06631   0.07102   0.07539   0.07770   0.08935
 Alpha virt. eigenvalues --    0.09467   0.09707   0.09768   0.10454   0.11181
 Alpha virt. eigenvalues --    0.11765   0.12043   0.12473   0.13088   0.13471

  Beta  occ. eigenvalues --  -19.02042 -19.00088 -10.13480 -10.11908 -10.11036
  Beta  occ. eigenvalues --  -10.08480 -10.07567 -10.07357 -10.06927 -10.06882
  Beta  occ. eigenvalues --  -10.06814 -10.05498 -10.05127 -10.04826  -0.93113
  Beta  occ. eigenvalues --   -0.93008  -0.75050  -0.68857  -0.67705  -0.63161
  Beta  occ. eigenvalues --   -0.60860  -0.58212  -0.56860  -0.54733  -0.49662
  Beta  occ. eigenvalues --   -0.45276  -0.44773  -0.41838  -0.39327  -0.38219
  Beta  occ. eigenvalues --   -0.37458  -0.36521  -0.35818  -0.33654  -0.32695
  Beta  occ. eigenvalues --   -0.32462  -0.31973  -0.30705  -0.30504  -0.29665
  Beta  occ. eigenvalues --   -0.28971  -0.27837  -0.26606  -0.25876  -0.25287
  Beta  occ. eigenvalues --   -0.24945  -0.24135  -0.23665  -0.21748  -0.20806
  Beta  occ. eigenvalues --   -0.19167  -0.15343  -0.14613  -0.14423
  Beta virt. eigenvalues --    0.06923   0.07613   0.08013   0.08285   0.08703
  Beta virt. eigenvalues --    0.09386   0.09932   0.10013   0.10144   0.10717
  Beta virt. eigenvalues --    0.11411   0.12106   0.12487   0.12773   0.13311

 Mulliken charges and spin densities:
               1          2
     1  C    0.608041  -1.320227
     2  C    0.030389   0.462960
     3  C   -1.578956   1.054750
     4  C    0.898714  -1.324186
     5  C    0.186383  -0.693142
     6  C   -1.823545   2.033334
     7  C    1.020217  -1.445254
     8  C    0.671921  -0.263606
     9  C    0.369337  -0.810205
    10  C    0.130846  -0.308011
    11  O   -0.240708   0.035069
    12  O   -0.017173   0.001599
    13  C   -0.050582  -0.274500
    14  C    0.237160  -0.733778
    15  H   -0.130861   0.273885
    16  H    0.011378   0.142883
    17  H    0.107052   0.049152
    18  H   -0.164705   0.366703
    19  H    0.001596   0.143720
    20  H   -0.154610   0.342659
    21  H   -0.407114   0.591753
    22  H    0.086017   0.033483
    23  H   -0.499297   0.634782
    24  H   -0.356178   0.499239
    25  H    0.150754   0.030657
    26  H    0.023577   0.150720
    27  H    0.025280   0.155634
    28  H   -0.445750   0.538177
    29  H   -0.005340   0.134965
    30  H    0.186641  -0.015793
    31  H    0.062771   0.098237
    32  H   -0.310142   0.469518
    33  H    0.135604   0.018580
    34  H    0.241284  -0.073756
 Sum of Mulliken charges =  -1.00000   1.00000

 Dipole moment (field-independent basis, Debye):
    X=             -1.4370    Y=             -2.9637    Z=             -0.1916  Tot=              3.2992
 Quadrupole moment (field-independent basis, Debye-Ang):
   XX=           -143.6983   YY=           -140.4265   ZZ=           -122.2287
   XY=              6.7737   XZ=             -2.9279   YZ=              3.4985

 Summary of Natural Population Analysis:

                                       Natural Population
                Natural  -----------------------------------------------
    Atom  No    Charge         Core      Valence    Rydberg      Total
 -----------------------------------------------------------------------
      C    1   -0.28952      0.99962     2.28229    0.00761     3.28952
      C    2   -0.04136      0.99954     2.02875    0.01308     3.04136
      C    3    0.07679      0.99946     1.90664    0.01711     2.92321
      C    4   -0.20252      0.99960     2.19394    0.00898     3.20252
      C    5   -0.20432      0.99957     2.19415    0.01061     3.20432
      C    6    0.01357      0.99951     1.97447    0.01245     2.98643
      C    7   -0.20070      0.99946     2.19292    0.00832     3.20070
      C    8   -0.13684      0.99949     2.12168    0.01567     3.13684
      C    9   -0.24608      0.99960     2.23581    0.01068     3.24608
      C   10    0.25587      0.99973     1.72459    0.01981     2.74413
      O   11   -0.27580      0.99988     3.26942    0.00651     4.27580
      O   12   -0.30605      0.99988     3.29614    0.01003     4.30605
      C   13   -0.10048      0.99959     2.09293    0.00796     3.10048
      C   14   -0.28589      0.99962     2.27785    0.00841     3.28589
      H   15    0.10092      0.00000     0.39791    0.00117     0.39908
      H   16    0.09902      0.00000     0.40000    0.00098     0.40098
      H   17    0.10550      0.00000     0.39328    0.00122     0.39450
      H   18    0.09277      0.00000     0.40561    0.00162     0.40723
      H   19    0.10320      0.00000     0.39550    0.00130     0.39680
      H   20    0.10418      0.00000     0.39470    0.00112     0.39582
      H   21    0.10401      0.00000     0.39443    0.00156     0.39599
      H   22    0.09799      0.00000     0.40035    0.00166     0.40201
      H   23    0.09575      0.00000     0.40278    0.00146     0.40425
      H   24    0.09477      0.00000     0.40391    0.00132     0.40523
      H   25    0.11443      0.00000     0.38252    0.00305     0.38557
      H   26    0.12052      0.00000     0.37775    0.00173     0.37948
      H   27    0.10869      0.00000     0.38948    0.00183     0.39131
      H   28    0.04341      0.00000     0.45389    0.00271     0.45659
      H   29    0.07771      0.00000     0.42092    0.00137     0.42229
      H   30    0.08602      0.00000     0.41278    0.00120     0.41398
      H   31    0.08630      0.00000     0.41282    0.00087     0.41370
      H   32    0.09932      0.00000     0.39977    0.00091     0.40068
      H   33    0.09942      0.00000     0.39971    0.00087     0.40058
      H   34    0.10942      0.00000     0.38959    0.00099     0.39058
 =======================================================================
   * Total *   -0.00000     13.99454    39.81927    0.18619    54.00000

 Normal termination of Gaussian 16 at Thu Dec 10 11:53:29 2020.
