 Gaussian 16, Revision A.03,

 -----------------------------------------------------------
 # opt freq B3LYP/6-31G(d) empiricaldispersion=gd3bj scf=xqc
 -----------------------------------------------------------

 -------------------------------
 CID_150667439_JID_3797_neutraal
 -------------------------------
 Symbolic Z-matrix:
 Charge =  0 Multiplicity = 1

 SCF Done:  E(RB3LYP) =  -653.515377533     A.U. after   14 cycles
 SCF Done:  E(RB3LYP) =  -653.519514122     A.U. after   12 cycles
 SCF Done:  E(RB3LYP) =  -653.519161266     A.U. after   12 cycles
 SCF Done:  E(RB3LYP) =  -653.520029153     A.U. after   12 cycles
 SCF Done:  E(RB3LYP) =  -653.520477825     A.U. after   11 cycles
 SCF Done:  E(RB3LYP) =  -653.520492260     A.U. after   10 cycles
 SCF Done:  E(RB3LYP) =  -653.520513871     A.U. after   10 cycles
 SCF Done:  E(RB3LYP) =  -653.520522819     A.U. after    9 cycles
 SCF Done:  E(RB3LYP) =  -653.520525000     A.U. after    9 cycles
 SCF Done:  E(RB3LYP) =  -653.520525816     A.U. after    9 cycles
 SCF Done:  E(RB3LYP) =  -653.520526331     A.U. after    9 cycles
 SCF Done:  E(RB3LYP) =  -653.520526445     A.U. after    8 cycles
 SCF Done:  E(RB3LYP) =  -653.520526461     A.U. after    6 cycles
 Optimization completed.
    -- Stationary point found.

 1\1\GINC-NODE309\FOpt\RB3LYP\6-31G(d)\C9H16O4\VSC10255\13-Dec-2020\0\\
 # opt freq B3LYP/6-31G(d) empiricaldispersion=gd3bj scf=xqc\\CID_15066
 7439_JID_3797_neutraal\\0,1\C,1.0209783928,-0.1010618022,-0.1366362658
 \C,0.032758675,0.0197151797,-1.2952242599\C,0.0463327174,-1.2418558433
 ,-2.1596035236\C,-1.3671133512,0.3660133973,-0.7868682744\O,0.58344029
 64,1.1546778699,-2.060562471\C,-0.0173098166,1.5652193871,-3.177465267
 8\O,-1.0271169092,1.1232354749,-3.6859458311\O,0.7171848092,2.58681694
 6,-3.6639093663\C,0.2628497373,3.1845429862,-4.8903730137\C,1.13796658

 Normal termination of Gaussian 16 at Sun Dec 13 15:57:11 2020.

 --------------------------------------------------------------------
 #N Geom=AllCheck Guess=TCheck SCRF=Check GenChk RB3LYP/6-31G(d) Freq
 --------------------------------------------------------------------

 Structure from the checkpoint file:  "JID_3797.chk"
 -------------------------------
 CID_150667439_JID_3797_neutraal
 -------------------------------
 Charge =  0 Multiplicity = 1

 SCF Done:  E(RB3LYP) =  -653.520526461     A.U. after    1 cycles

  Exact polarizability: 131.398   1.584 103.817   5.525   4.602  85.015
 Approx polarizability: 158.983   3.346 145.925  10.091  15.714 133.092

                      1                      2                      3
                      A                      A                      A
 Frequencies --     24.4734                33.8576                52.4132
 Red. masses --      3.7718                 3.7970                 3.7615
 Frc consts  --      0.0013                 0.0026                 0.0061
 IR Inten    --      0.5634                 0.0143                 1.1838

                      4                      5                      6
                      A                      A                      A
 Frequencies --     87.8109               109.1488               122.8174
 Red. masses --      6.3938                 3.1207                 3.3649
 Frc consts  --      0.0290                 0.0219                 0.0299
 IR Inten    --      1.9411                 0.3077                 0.1517

                      7                      8                      9
                      A                      A                      A
 Frequencies --    177.5592               208.4124               224.9420
 Red. masses --      3.2247                 1.1126                 3.5648
 Frc consts  --      0.0599                 0.0285                 0.1063
 IR Inten    --      3.4423                 0.1127                 1.1774

                     10                     11                     12
                      A                      A                      A
 Frequencies --    254.0264               273.2830               280.0593
 Red. masses --      1.1180                 1.0907                 3.0859
 Frc consts  --      0.0425                 0.0480                 0.1426
 IR Inten    --      0.0846                 0.0474                 2.3060

                     13                     14                     15
                      A                      A                      A
 Frequencies --    307.4144               315.2812               351.9973
 Red. masses --      2.8258                 3.4674                 2.5265
 Frc consts  --      0.1573                 0.2031                 0.1844
 IR Inten    --      3.1311                 0.9101                 4.7739

                     16                     17                     18
                      A                      A                      A
 Frequencies --    361.9652               379.6908               409.0048
 Red. masses --      3.8168                 1.4622                 1.5339
 Frc consts  --      0.2946                 0.1242                 0.1512
 IR Inten    --     22.6728                81.4773                16.4656

                     19                     20                     21
                      A                      A                      A
 Frequencies --    424.5112               449.1224               462.3854
 Red. masses --      2.4437                 2.7608                 2.9529
 Frc consts  --      0.2595                 0.3281                 0.3720
 IR Inten    --     10.4559                14.4958                 3.5518

                     22                     23                     24
                      A                      A                      A
 Frequencies --    557.2407               617.7140               681.4638
 Red. masses --      3.1191                 2.7067                 1.8993
 Frc consts  --      0.5706                 0.6085                 0.5197
 IR Inten    --      8.2367                13.0813                10.4085

                     25                     26                     27
                      A                      A                      A
 Frequencies --    726.1915               779.2743               782.6788
 Red. masses --      6.2536                 4.5545                 8.9469
 Frc consts  --      1.9430                 1.6296                 3.2292
 IR Inten    --      1.3009                13.1600                23.2999

                     28                     29                     30
                      A                      A                      A
 Frequencies --    824.1794               883.5980               938.4487
 Red. masses --      2.4623                 3.8686                 1.6295
 Frc consts  --      0.9854                 1.7796                 0.8455
 IR Inten    --      2.5608                64.0545                 0.1173

                     31                     32                     33
                      A                      A                      A
 Frequencies --    940.5768               950.7520               973.0179
 Red. masses --      1.6107                 1.3552                 5.9082
 Frc consts  --      0.8396                 0.7218                 3.2957
 IR Inten    --      0.3499                29.3943                54.6292

                     34                     35                     36
                      A                      A                      A
 Frequencies --    984.5837              1011.7646              1040.2583
 Red. masses --      1.1979                 1.3551                 1.3436
 Frc consts  --      0.6842                 0.8173                 0.8566
 IR Inten    --      0.2176                13.7688                19.2378

                     37                     38                     39
                      A                      A                      A
 Frequencies --   1049.7474              1067.5137              1073.9073
 Red. masses --      1.7610                 1.4055                 1.4728
 Frc consts  --      1.1434                 0.9437                 1.0008
 IR Inten    --     21.8681                 0.4103                 6.8181

                     40                     41                     42
                      A                      A                      A
 Frequencies --   1098.7569              1138.8420              1166.1730
 Red. masses --      3.3497                 3.4869                 2.5809
 Frc consts  --      2.3826                 2.6645                 2.0680
 IR Inten    --      5.2358               221.1927                10.9055

                     43                     44                     45
                      A                      A                      A
 Frequencies --   1219.5523              1277.5380              1288.0836
 Red. masses --      2.4482                 1.4944                 1.8489
 Frc consts  --      2.1454                 1.4371                 1.8074
 IR Inten    --    361.2476                 8.2098                16.4039

                     46                     47                     48
                      A                      A                      A
 Frequencies --   1289.2226              1298.2430              1329.2457
 Red. masses --      1.6709                 2.8521                 2.8655
 Frc consts  --      1.6363                 2.8322                 2.9831
 IR Inten    --     18.3150               149.1671               507.7331

                     49                     50                     51
                      A                      A                      A
 Frequencies --   1338.1635              1369.8740              1422.6943
 Red. masses --      1.2884                 1.3907                 1.3703
 Frc consts  --      1.3593                 1.5376                 1.6342
 IR Inten    --     22.7923                72.3629                14.7836

                     52                     53                     54
                      A                      A                      A
 Frequencies --   1425.5223              1429.4912              1433.8410
 Red. masses --      1.2830                 1.2964                 1.3039
 Frc consts  --      1.5361                 1.5608                 1.5794
 IR Inten    --     16.0332                16.5781                96.1615

                     55                     56                     57
                      A                      A                      A
 Frequencies --   1454.1548              1467.1998              1500.6072
 Red. masses --      1.2360                 1.2457                 1.0465
 Frc consts  --      1.5398                 1.5799                 1.3884
 IR Inten    --     17.8334                10.0834                 0.5038

                     58                     59                     60
                      A                      A                      A
 Frequencies --   1517.9344              1519.8063              1520.7126
 Red. masses --      1.0976                 1.0470                 1.0519
 Frc consts  --      1.4901                 1.4249                 1.4332
 IR Inten    --     18.0015                 1.5018                 0.5173

                     61                     62                     63
                      A                      A                      A
 Frequencies --   1526.3502              1534.8866              1557.0290
 Red. masses --      1.0649                 1.0528                 1.0557
 Frc consts  --      1.4617                 1.4614                 1.5079
 IR Inten    --      9.7372                 1.0086                15.1025

                     64                     65                     66
                      A                      A                      A
 Frequencies --   1728.9555              1811.0108              3055.3319
 Red. masses --      4.6603                10.8637                 1.0842
 Frc consts  --      8.2079                20.9927                 5.9630
 IR Inten    --      2.6862               230.5491                17.9869

                     67                     68                     69
                      A                      A                      A
 Frequencies --   3061.0456              3061.9695              3069.2171
 Red. masses --      1.0361                 1.0374                 1.0378
 Frc consts  --      5.7199                 5.7305                 5.7602
 IR Inten    --      9.5497                20.2460                17.1543

                     70                     71                     72
                      A                      A                      A
 Frequencies --   3098.0429              3124.6109              3126.9439
 Red. masses --      1.0564                 1.1026                 1.1024
 Frc consts  --      5.9740                 6.3424                 6.3509
 IR Inten    --     28.7982                 8.9150                15.1621

                     73                     74                     75
                      A                      A                      A
 Frequencies --   3139.8079              3140.5572              3160.5527
 Red. masses --      1.1033                 1.1027                 1.1113
 Frc consts  --      6.4086                 6.4078                 6.5405
 IR Inten    --     28.4560                39.2326                12.9670

                     76                     77                     78
                      A                      A                      A
 Frequencies --   3169.6125              3170.6587              3174.0863
 Red. masses --      1.0577                 1.1001                 1.0996
 Frc consts  --      6.2609                 6.5161                 6.5273
 IR Inten    --      8.9861                 1.5226                12.9618

                     79                     80                     81
                      A                      A                      A
 Frequencies --   3191.4305              3251.5571              3712.4240
 Red. masses --      1.0918                 1.1162                 1.0655
 Frc consts  --      6.5517                 6.9529                 8.6523
 IR Inten    --      7.6024                11.6931                10.5330

 - Thermochemistry -
 -------------------
 Temperature   298.150 Kelvin.  Pressure   1.00000 Atm.
 Atom     1 has atomic number  6 and mass  12.00000

 Molecular mass:   188.10486 amu.
 Principal axes and moments of inertia in atomic units:
                           1         2         3
     Eigenvalues --  1061.856084924.847315283.69909
           X            0.99999   0.00109   0.00337
           Y           -0.00103   0.99981  -0.01925
           Z           -0.00339   0.01925   0.99981
 This molecule is an asymmetric top.
 Rotational symmetry number  1.
 Warning -- assumption of classical behavior for rotation
           may cause significant error
 Rotational temperatures (Kelvin)      0.08157     0.01759     0.01639
 Rotational constants (GHZ):           1.69961     0.36646     0.34157
 Zero-point vibrational energy     649361.9 (Joules/Mol)
                                  155.20121 (Kcal/Mol)
 Warning -- explicit consideration of  23 degrees of freedom as
           vibrations may cause significant error
 Vibrational temperatures:     35.21    48.71    75.41   126.34   157.04
          (Kelvin)            176.71   255.47   299.86   323.64   365.49
                              393.19   402.94   442.30   453.62   506.45
                              520.79   546.29   588.47   610.78   646.19
                              665.27   801.75   888.75   980.47  1044.83
                             1121.20  1126.10  1185.81  1271.30  1350.22
                             1353.28  1367.92  1399.96  1416.60  1455.70
                             1496.70  1510.35  1535.91  1545.11  1580.87
                             1638.54  1677.86  1754.66  1838.09  1853.27
                             1854.90  1867.88  1912.49  1925.32  1970.94
                             2046.94  2051.01  2056.72  2062.98  2092.20
                             2110.97  2159.04  2183.97  2186.66  2187.97
                             2196.08  2208.36  2240.22  2487.58  2605.64
                             4395.94  4404.16  4405.49  4415.92  4457.39
                             4495.62  4498.97  4517.48  4518.56  4547.33
                             4560.37  4561.87  4566.80  4591.76  4678.27
                             5341.35

 Zero-point correction=                           0.247329 (Hartree/Particle)
 Thermal correction to Energy=                    0.262374
 Thermal correction to Enthalpy=                  0.263319
 Thermal correction to Gibbs Free Energy=         0.204281
 Sum of electronic and zero-point Energies=           -653.273198
 Sum of electronic and thermal Energies=              -653.258152
 Sum of electronic and thermal Enthalpies=            -653.257208
 Sum of electronic and thermal Free Energies=         -653.316245

                     E (Thermal)             CV                S
                      KCal/Mol        Cal/Mol-Kelvin    Cal/Mol-Kelvin
 Total                  164.642             55.006            124.254
 Electronic               0.000              0.000              0.000
 Translational            0.889              2.981             41.601
 Rotational               0.889              2.981             31.691
 Vibrational            162.865             49.045             50.962
 Vibration     1          0.593              1.985              6.233
 Vibration     2          0.594              1.983              5.590
 Vibration     3          0.596              1.977              4.724
 Vibration     4          0.601              1.958              3.708
 Vibration     5          0.606              1.942              3.284
 Vibration     6          0.610              1.930              3.056
 Vibration     7          0.628              1.870              2.354
 Vibration     8          0.642              1.828              2.058
 Vibration     9          0.650              1.803              1.919
 Vibration    10          0.665              1.756              1.702
 Vibration    11          0.676              1.723              1.575
 Vibration    12          0.680              1.710              1.533
 Vibration    13          0.697              1.660              1.376
 Vibration    14          0.703              1.644              1.334
 Vibration    15          0.729              1.571              1.157
 Vibration    16          0.736              1.551              1.114
 Vibration    17          0.750              1.513              1.040
 Vibration    18          0.773              1.451              0.930
 Vibration    19          0.787              1.417              0.877
 Vibration    20          0.808              1.363              0.798
 Vibration    21          0.820              1.333              0.759
 Vibration    22          0.913              1.124              0.529
 Vibration    23          0.977              0.994              0.420

 Optimization completed.
    -- Stationary point found.

 1\1\GINC-NODE309\Freq\RB3LYP\6-31G(d)\C9H16O4\VSC10255\13-Dec-2020\0\\
 #N Geom=AllCheck Guess=TCheck SCRF=Check GenChk RB3LYP/6-31G(d) Freq\\
 CID_150667439_JID_3797_neutraal\\0,1\C,1.0209783928,-0.1010618022,-0.1
 366362658\C,0.032758675,0.0197151797,-1.2952242599\C,0.0463327174,-1.2
 418558433,-2.1596035236\C,-1.3671133512,0.3660133973,-0.7868682744\O,0
 .5834402964,1.1546778699,-2.060562471\C,-0.0173098166,1.5652193871,-3.
 1774652678\O,-1.0271169092,1.1232354749,-3.6859458311\O,0.7171848092,2
 .586816946,-3.6639093663\C,0.2628497373,3.1845429862,-4.8903730137\C,1

 Normal termination of Gaussian 16 at Sun Dec 13 16:03:34 2020.

 ----------------------------------------------------------------------
 # B3LYP/6-311++G(d,p) empiricaldispersion=gd3bj scf=xqc pop=npa geom=c
 heck
 ----------------------------------------------------------------------

 ---------------------------------------
 CID_150667439_JID_3797_Energie_neutraal
 ---------------------------------------
 Structure from the checkpoint file:  "JID_3797.chk"
 Charge =  0 Multiplicity = 1

 SCF Done:  E(RB3LYP) =  -653.723842369     A.U. after   14 cycles
 Normal termination of Gaussian 16 at Sun Dec 13 16:06:04 2020.

 ----------------------------------------------------------------------
 # B3LYP/6-311++G(d,p) empiricaldispersion=gd3bj scf=xqc pop=npa geom=c
 heck
 ----------------------------------------------------------------------

 -------------------------------------
 CID_150667439_JID_3797_Energie_kation
 -------------------------------------
 Structure from the checkpoint file:  "JID_3797.chk"
 Charge =  1 Multiplicity = 2

 SCF Done:  E(UB3LYP) =  -653.381518895     A.U. after   24 cycles
 Normal termination of Gaussian 16 at Sun Dec 13 16:11:43 2020.
 Gaussian 16:  ES64L-G16RevA.03 25-Dec-2016

 ------------------------------------
 CID_150667439_JID_3797_Energie_anion
 ------------------------------------
 Structure from the checkpoint file:  "JID_3797.chk"
 Charge = -1 Multiplicity = 2

                         Standard orientation:
 ---------------------------------------------------------------------
 Center     Atomic      Atomic             Coordinates (Angstroms)
 Number     Number       Type             X           Y           Z
 ---------------------------------------------------------------------
      1          6           0       -3.710482   -0.071855   -1.254889
      2          6           0       -2.745718    0.182883   -0.098242
      3          6           0       -2.457782    1.677039    0.055019
      4          6           0       -3.262032   -0.449433    1.194656
      5          8           0       -1.526381   -0.516640   -0.546592
      6          6           0       -0.431845   -0.511566    0.214251
      7          8           0       -0.283045    0.006353    1.302015
      8          8           0        0.514518   -1.199554   -0.457197
      9          6           0        1.802629   -1.311634    0.172182
     10          6           0        2.822074   -0.371521   -0.493121
     11          6           0        2.468922    1.084254   -0.319821
     12          6           0        3.341108    2.025880    0.037172
     13          8           0        4.117460   -0.696603   -0.007318
     14          1           0       -4.674857    0.402423   -1.047308
     15          1           0       -3.871328   -1.145449   -1.392089
     16          1           0       -3.311631    0.340242   -2.186813
     17          1           0       -3.392474    2.208172    0.263965
     18          1           0       -1.759221    1.862428    0.872067
     19          1           0       -2.038295    2.078643   -0.873652
     20          1           0       -3.404335   -1.526613    1.058396
     21          1           0       -2.567727   -0.283289    2.019296
     22          1           0       -4.229945   -0.007382    1.454021
     23          1           0        1.710752   -1.093270    1.238853
     24          1           0        2.124916   -2.344338    0.025725
     25          1           0        2.843796   -0.613496   -1.563612
     26          1           0        1.429315    1.347087   -0.500177
     27          1           0        3.038618    3.061010    0.162476
     28          1           0        4.391069    1.796562    0.197057
     29          1           0        4.169675   -0.355457    0.901289
 ---------------------------------------------------------------------

 SCF Done:  E(UB3LYP) =  -653.708704737     A.U. after   33 cycles
 SCF Done:  E(UB3LYP) =  -653.708704737     a.u. after    1 cycles

 The electronic state is 2-A.
 Alpha  occ. eigenvalues --  -19.08137 -19.07236 -19.04239 -19.01884 -10.25526
 Alpha  occ. eigenvalues --  -10.15118 -10.14525 -10.14002 -10.08838 -10.07654
 Alpha  occ. eigenvalues --  -10.06535 -10.06369 -10.06176  -1.05172  -0.96459
 Alpha  occ. eigenvalues --   -0.94675  -0.93281  -0.72590  -0.70194  -0.65755
 Alpha  occ. eigenvalues --   -0.60149  -0.60014  -0.57853  -0.52632  -0.48584
 Alpha  occ. eigenvalues --   -0.47136  -0.42233  -0.41814  -0.40922  -0.39833
 Alpha  occ. eigenvalues --   -0.38303  -0.36712  -0.36336  -0.35481  -0.34525
 Alpha  occ. eigenvalues --   -0.32566  -0.31706  -0.30138  -0.29553  -0.28982
 Alpha  occ. eigenvalues --   -0.27543  -0.27472  -0.26931  -0.26196  -0.24863
 Alpha  occ. eigenvalues --   -0.24657  -0.23203  -0.21459  -0.20268  -0.19736
 Alpha  occ. eigenvalues --   -0.17458   0.04453
 Alpha virt. eigenvalues --    0.05869   0.07422   0.07562   0.08360   0.08573
 Alpha virt. eigenvalues --    0.08764   0.09694   0.10000   0.10736   0.11077
 Alpha virt. eigenvalues --    0.11482   0.11888   0.11947   0.12695   0.13206

  Beta  occ. eigenvalues --  -19.08130 -19.07230 -19.04204 -19.01877 -10.25525
  Beta  occ. eigenvalues --  -10.15117 -10.14517 -10.13988 -10.08836 -10.07612
  Beta  occ. eigenvalues --  -10.06496 -10.06335 -10.06139  -1.05162  -0.96446
  Beta  occ. eigenvalues --   -0.94605  -0.93270  -0.72568  -0.70159  -0.65722
  Beta  occ. eigenvalues --   -0.60090  -0.59950  -0.57803  -0.52584  -0.48525
  Beta  occ. eigenvalues --   -0.47107  -0.42191  -0.41773  -0.40896  -0.39806
  Beta  occ. eigenvalues --   -0.38260  -0.36676  -0.36307  -0.35442  -0.34493
  Beta  occ. eigenvalues --   -0.32531  -0.31675  -0.30098  -0.29502  -0.28943
  Beta  occ. eigenvalues --   -0.27509  -0.27439  -0.26900  -0.26162  -0.24835
  Beta  occ. eigenvalues --   -0.24629  -0.23184  -0.21442  -0.20240  -0.19721
  Beta  occ. eigenvalues --   -0.17407
  Beta virt. eigenvalues --    0.06574   0.07062   0.07629   0.08146   0.08890
  Beta virt. eigenvalues --    0.09095   0.09386   0.09862   0.10437   0.11201
  Beta virt. eigenvalues --    0.11376   0.11710   0.12002   0.12265   0.12981

 Mulliken charges and spin densities:
               1          2
     1  C    0.479736  -0.837993
     2  C   -1.985314   1.959977
     3  C    1.180304  -1.639877
     4  C    0.970594  -1.402605
     5  O   -0.008578   0.009076
     6  C   -0.006822  -0.264996
     7  O   -0.207554   0.007628
     8  O   -0.033893   0.003934
     9  C    0.375421  -0.537134
    10  C    0.367902  -0.827058
    11  C   -0.714101   1.035019
    12  C    0.560382  -0.956204
    13  O   -0.232958   0.008433
    14  H   -0.243104   0.402825
    15  H   -0.211769   0.364140
    16  H   -0.137960   0.294456
    17  H   -0.433165   0.608660
    18  H   -0.001186   0.176882
    19  H   -0.152577   0.292840
    20  H   -0.029281   0.170821
    21  H   -0.014331   0.189343
    22  H   -0.367535   0.542646
    23  H    0.086678   0.106236
    24  H    0.014943   0.181285
    25  H    0.049231   0.161557
    26  H    0.225072  -0.076318
    27  H   -0.295419   0.423984
    28  H   -0.160281   0.288317
    29  H   -0.074433   0.314125
 Sum of Mulliken charges =  -1.00000   1.00000

 Dipole moment (field-independent basis, Debye):
    X=              2.9309    Y=             -3.0024    Z=             -0.5672  Tot=              4.2339
 Quadrupole moment (field-independent basis, Debye-Ang):
   XX=           -179.6244   YY=           -118.0479   ZZ=           -110.2577
   XY=              4.2789   XZ=             -1.2337   YZ=             -1.0546

 Summary of Natural Population Analysis:

                                       Natural Population
                Natural  -----------------------------------------------
    Atom  No    Charge         Core      Valence    Rydberg      Total
 -----------------------------------------------------------------------
      C    1   -0.28956      0.99960     2.28245    0.00751     3.28956
      C    2    0.13405      0.99954     1.85200    0.01442     2.86595
      C    3   -0.30276      0.99960     2.29605    0.00711     3.30276
      C    4   -0.30245      0.99960     2.29606    0.00680     3.30245
      O    5   -0.28555      0.99984     3.27614    0.00958     4.28555
      C    6    0.51809      0.99971     1.45390    0.02830     2.48191
      O    7   -0.32587      0.99986     3.32102    0.00499     4.32587
      O    8   -0.27871      0.99985     3.27081    0.00804     4.27871
      C    9   -0.02041      0.99953     2.00989    0.01098     3.02041
      C   10    0.03716      0.99954     1.94880    0.01449     2.96284
      C   11   -0.10445      0.99955     2.09360    0.01130     3.10445
      C   12   -0.18630      0.99956     2.17952    0.00722     3.18630
      O   13   -0.36590      0.99990     3.35858    0.00743     4.36590
      H   14    0.10616      0.00000     0.39207    0.00178     0.39384
      H   15    0.10338      0.00000     0.39544    0.00117     0.39662
      H   16    0.10410      0.00000     0.39473    0.00117     0.39590
      H   17    0.10752      0.00000     0.39079    0.00169     0.39248
      H   18    0.11283      0.00000     0.38572    0.00144     0.38717
      H   19    0.10285      0.00000     0.39576    0.00139     0.39715
      H   20    0.10192      0.00000     0.39702    0.00106     0.39808
      H   21    0.11285      0.00000     0.38613    0.00102     0.38715
      H   22    0.10732      0.00000     0.39124    0.00143     0.39268
      H   23    0.10047      0.00000     0.39780    0.00173     0.39953
      H   24    0.09432      0.00000     0.40429    0.00139     0.40568
      H   25    0.09513      0.00000     0.40333    0.00153     0.40487
      H   26    0.10186      0.00000     0.39655    0.00158     0.39814
      H   27    0.09726      0.00000     0.40140    0.00133     0.40274
      H   28    0.09430      0.00000     0.40406    0.00164     0.40570
      H   29    0.23039      0.00000     0.26492    0.00469     0.26961
 =======================================================================
   * Total *    0.00000     12.99569    37.84008    0.16423    51.00000

 Normal termination of Gaussian 16 at Sun Dec 13 16:19:32 2020.
