 Gaussian 16, Revision A.03,

 -----------------------------------------------------------
 # opt freq B3LYP/6-31G(d) empiricaldispersion=gd3bj scf=xqc
 -----------------------------------------------------------

 -----------------------------
 CID_57101587_JID_690_neutraal
 -----------------------------
 Symbolic Z-matrix:
 Charge =  0 Multiplicity = 1

 SCF Done:  E(RB3LYP) =  -472.316599726     A.U. after   15 cycles
 SCF Done:  E(RB3LYP) =  -472.324480934     A.U. after   14 cycles
 SCF Done:  E(RB3LYP) =  -472.324793516     A.U. after   11 cycles
 SCF Done:  E(RB3LYP) =  -472.324828864     A.U. after   11 cycles
 SCF Done:  E(RB3LYP) =  -472.324829392     A.U. after   11 cycles
 SCF Done:  E(RB3LYP) =  -472.324831483     A.U. after   10 cycles
 SCF Done:  E(RB3LYP) =  -472.324832312     A.U. after    9 cycles
 SCF Done:  E(RB3LYP) =  -472.324832437     A.U. after    8 cycles
 SCF Done:  E(RB3LYP) =  -472.324832674     A.U. after    8 cycles
 SCF Done:  E(RB3LYP) =  -472.265183998     A.U. after   17 cycles
 SCF Done:  E(RB3LYP) =  -472.329786807     A.U. after   10 cycles
 SCF Done:  E(RB3LYP) =  -472.329787787     A.U. after    8 cycles
 SCF Done:  E(RB3LYP) =  -472.329788525     A.U. after    9 cycles
 SCF Done:  E(RB3LYP) =  -472.329788701     A.U. after    8 cycles
 SCF Done:  E(RB3LYP) =  -472.329788840     A.U. after    8 cycles
 SCF Done:  E(RB3LYP) =  -472.329788948     A.U. after    7 cycles
 Optimization completed.
    -- Stationary point found.
 Normal termination of Gaussian 16 at Tue Dec  8 12:44:04 2020.

 --------------------------------------------------------------------
 #N Geom=AllCheck Guess=TCheck SCRF=Check GenChk RB3LYP/6-31G(d) Freq
 --------------------------------------------------------------------

 Structure from the checkpoint file:  "JID_690.chk"
 -----------------------------
 CID_57101587_JID_690_neutraal
 -----------------------------
 Charge =  0 Multiplicity = 1

 SCF Done:  E(RB3LYP) =  -472.329788948     A.U. after    1 cycles

  Exact polarizability: 110.703  -3.081  92.949  -4.307  -2.261  38.763
 Approx polarizability: 163.515 -15.136 171.396 -12.288   2.593  61.263

                      1                      2                      3
                      A                      A                      A
 Frequencies --     74.7830                90.1807               183.5677
 Red. masses --      5.9165                 6.0088                 4.1721
 Frc consts  --      0.0195                 0.0288                 0.0828
 IR Inten    --      1.7023                 1.0493                 4.8583

                      4                      5                      6
                      A                      A                      A
 Frequencies --    250.4322               289.7098               327.1705
 Red. masses --      3.8456                 1.1713                 3.1792
 Frc consts  --      0.1421                 0.0579                 0.2005
 IR Inten    --     20.9479               201.6320                 6.8288

                      7                      8                      9
                      A                      A                      A
 Frequencies --    356.0283               398.6609               468.8823
 Red. masses --      4.7537                 6.0594                 3.6714
 Frc consts  --      0.3550                 0.5674                 0.4756
 IR Inten    --      0.6620                12.8412                41.9627

                     10                     11                     12
                      A                      A                      A
 Frequencies --    481.3387               526.8423               630.1353
 Red. masses --      3.5830                 6.1819                 2.8599
 Frc consts  --      0.4891                 1.0110                 0.6691
 IR Inten    --     28.7601                16.2345                10.4989

                     13                     14                     15
                      A                      A                      A
 Frequencies --    657.7685               694.8718               739.6357
 Red. masses --      1.2984                 3.2520                 1.6491
 Frc consts  --      0.3310                 0.9251                 0.5315
 IR Inten    --      3.3957                17.6515                 2.0427

                     16                     17                     18
                      A                      A                      A
 Frequencies --    777.9111               784.6697               808.1291
 Red. masses --      2.1376                 4.7275                 1.5207
 Frc consts  --      0.7622                 1.7150                 0.5851
 IR Inten    --     59.7913                12.9180                41.3601

                     19                     20                     21
                      A                      A                      A
 Frequencies --    911.4474               930.0560               955.4083
 Red. masses --      5.5507                 1.4194                 3.2460
 Frc consts  --      2.7168                 0.7234                 1.7457
 IR Inten    --      8.4735                 1.7926                 3.5363

                     22                     23                     24
                      A                      A                      A
 Frequencies --    966.7697               996.6533              1042.2122
 Red. masses --      1.3165                 2.2974                 2.6650
 Frc consts  --      0.7250                 1.3445                 1.7055
 IR Inten    --      9.4720                47.4989                 1.9672

                     25                     26                     27
                      A                      A                      A
 Frequencies --   1092.2353              1113.7434              1173.3373
 Red. masses --      2.5240                 1.9383                 3.0899
 Frc consts  --      1.7741                 1.4165                 2.5064
 IR Inten    --     21.1911                 5.2730                85.8316

                     28                     29                     30
                      A                      A                      A
 Frequencies --   1265.4127              1290.8121              1395.2597
 Red. masses --      1.1908                 1.3021                 2.6040
 Frc consts  --      1.1234                 1.2783                 2.9868
 IR Inten    --      5.7500                 5.6180               117.6867

                     31                     32                     33
                      A                      A                      A
 Frequencies --   1406.4825              1474.7804              1504.4528
 Red. masses --      1.4332                 1.5887                 1.5594
 Frc consts  --      1.6704                 2.0359                 2.0796
 IR Inten    --     31.1562                13.9489               109.2185

                     34                     35                     36
                      A                      A                      A
 Frequencies --   1609.9513              1670.4733              1704.0447
 Red. masses --      1.3879                 6.1154                 4.2241
 Frc consts  --      2.1196                10.0544                 7.2269
 IR Inten    --    190.9600                 1.4107                 1.3640

                     37                     38                     39
                      A                      A                      A
 Frequencies --   1757.9615              1795.9697              3168.0754
 Red. masses --      7.6731                 8.9031                 1.0842
 Frc consts  --     13.9714                16.9196                 6.4113
 IR Inten    --     86.9323               241.3455                 3.0134

                     40                     41                     42
                      A                      A                      A
 Frequencies --   3180.0870              3192.3217              3203.4739
 Red. masses --      1.0863                 1.0943                 1.0969
 Frc consts  --      6.4726                 6.5705                 6.6319
 IR Inten    --      3.4631                48.2766                23.2208

                     43                     44                     45
                      A                      A                      A
 Frequencies --   3511.9442              3587.3076              3724.4535
 Red. masses --      1.0741                 1.0444                 1.1061
 Frc consts  --      7.8050                 7.9184                 9.0401
 IR Inten    --     74.6178                46.5448                76.7989

 - Thermochemistry -
 -------------------
 Temperature   298.150 Kelvin.  Pressure   1.00000 Atm.
 Atom     1 has atomic number  6 and mass  12.00000

 Molecular mass:   137.05891 amu.
 Principal axes and moments of inertia in atomic units:
                           1         2         3
     Eigenvalues --   642.282041714.827522251.99445
           X            0.99984   0.01775  -0.00080
           Y           -0.01776   0.99979  -0.01048
           Z            0.00062   0.01049   0.99994
 This molecule is an asymmetric top.
 Rotational symmetry number  1.
 Warning -- assumption of classical behavior for rotation
           may cause significant error
 Rotational temperatures (Kelvin)      0.13485     0.05051     0.03846
 Rotational constants (GHZ):           2.80989     1.05243     0.80140
 Zero-point vibrational energy     347909.0 (Joules/Mol)
                                   83.15225 (Kcal/Mol)
 Warning -- explicit consideration of  11 degrees of freedom as
           vibrations may cause significant error
 Vibrational temperatures:    107.60   129.75   264.11   360.32   416.83
          (Kelvin)            470.73   512.25   573.58   674.62   692.54
                              758.01   906.62   946.38   999.77  1064.17
                             1119.24  1128.96  1162.72  1311.37  1338.14
                             1374.62  1390.97  1433.96  1499.51  1571.48
                             1602.43  1688.17  1820.65  1857.19  2007.47
                             2023.61  2121.88  2164.57  2316.36  2403.44
                             2451.74  2529.31  2584.00  4558.15  4575.44
                             4593.04  4609.08  5052.90  5161.34  5358.66

 Zero-point correction=                           0.132512 (Hartree/Particle)
 Thermal correction to Energy=                    0.141246
 Thermal correction to Enthalpy=                  0.142190
 Thermal correction to Gibbs Free Energy=         0.098716
 Sum of electronic and zero-point Energies=           -472.197277
 Sum of electronic and thermal Energies=              -472.188543
 Sum of electronic and thermal Enthalpies=            -472.187599
 Sum of electronic and thermal Free Energies=         -472.231073

                     E (Thermal)             CV                S
                      KCal/Mol        Cal/Mol-Kelvin    Cal/Mol-Kelvin
 Total                   88.633             33.285             91.498
 Electronic               0.000              0.000              0.000
 Translational            0.889              2.981             40.658
 Rotational               0.889              2.981             29.296
 Vibrational             86.855             27.323             21.544
 Vibration     1          0.599              1.966              4.023
 Vibration     2          0.602              1.956              3.656
 Vibration     3          0.631              1.862              2.292
 Vibration     4          0.663              1.762              1.728
 Vibration     5          0.686              1.693              1.476
 Vibration     6          0.711              1.621              1.274
 Vibration     7          0.732              1.563              1.139
 Vibration     8          0.765              1.473              0.968
 Vibration     9          0.826              1.319              0.741
 Vibration    10          0.838              1.291              0.706
 Vibration    11          0.882              1.191              0.594

 Optimization completed.
    -- Stationary point found.
 Normal termination of Gaussian 16 at Tue Dec  8 13:04:42 2020.

 ----------------------------------------------------------------------
 # B3LYP/6-311++G(d,p) empiricaldispersion=gd3bj scf=xqc pop=npa geom=c
 heck
 ----------------------------------------------------------------------

 -------------------------------------
 CID_57101587_JID_690_Energie_neutraal
 -------------------------------------
 Structure from the checkpoint file:  "JID_690.chk"
 Charge =  0 Multiplicity = 1

 SCF Done:  E(RB3LYP) =  -472.474744856     A.U. after   15 cycles
 Normal termination of Gaussian 16 at Tue Dec  8 13:12:56 2020.

 ----------------------------------------------------------------------
 # B3LYP/6-311++G(d,p) empiricaldispersion=gd3bj scf=xqc pop=npa geom=c
 heck
 ----------------------------------------------------------------------

 -----------------------------------
 CID_57101587_JID_690_Energie_kation
 -----------------------------------
 Structure from the checkpoint file:  "JID_690.chk"
 Charge =  1 Multiplicity = 2

 SCF Done:  E(UB3LYP) =  -472.187662467     A.U. after   20 cycles
 Normal termination of Gaussian 16 at Tue Dec  8 13:24:00 2020.
 Gaussian 16:  ES64L-G16RevA.03 25-Dec-2016

 ----------------------------------------------------------------------
 # B3LYP/6-311++G(d,p) empiricaldispersion=gd3bj scf=xqc pop=npa geom=c
 heck
 ----------------------------------------------------------------------

 ----------------------------------
 CID_57101587_JID_690_Energie_anion
 ----------------------------------
 Structure from the checkpoint file:  "JID_690.chk"
 Charge = -1 Multiplicity = 2

                         Standard orientation:
 ---------------------------------------------------------------------
 Center     Atomic      Atomic             Coordinates (Angstroms)
 Number     Number       Type             X           Y           Z
 ---------------------------------------------------------------------
      1          6           0       -2.363418   -0.705474    0.469152
      2          6           0       -1.317960   -1.497624    0.191150
      3          7           0       -0.212318   -1.091060   -0.609372
      4          6           0        0.423758    0.093085   -0.197421
      5          7           0       -0.097934    1.249879   -0.052363
      6          6           0       -1.459706    1.497993   -0.272785
      7          6           0       -2.489670    0.670996    0.000351
      8          6           0        1.915569   -0.080871    0.044228
      9          8           0        2.440191   -1.183856   -0.089768
     10          7           0        2.557211    1.056260    0.383064
     11          1           0       -3.168558   -1.118621    1.070075
     12          1           0       -1.254814   -2.509230    0.584961
     13          1           0        0.498042   -1.815776   -0.691650
     14          1           0       -1.657405    2.515632   -0.600091
     15          1           0       -3.495459    1.073621   -0.100528
     16          1           0        2.023733    1.911901    0.454365
     17          1           0        3.552781    1.039144    0.543662
 ---------------------------------------------------------------------

 SCF Done:  E(UB3LYP) =  -472.492191711     A.U. after   23 cycles

 The electronic state is 2-A.
 Alpha  occ. eigenvalues --  -18.92869 -14.17840 -14.16206 -14.12067 -10.10147
 Alpha  occ. eigenvalues --  -10.05016 -10.03759 -10.02421 -10.00542  -9.99620
 Alpha  occ. eigenvalues --   -0.88173  -0.79385  -0.75870  -0.71733  -0.63452
 Alpha  occ. eigenvalues --   -0.55102  -0.51772  -0.45030  -0.40369  -0.39693
 Alpha  occ. eigenvalues --   -0.37988  -0.36269  -0.30954  -0.29784  -0.28501
 Alpha  occ. eigenvalues --   -0.27399  -0.25602  -0.24263  -0.21493  -0.20039
 Alpha  occ. eigenvalues --   -0.15393  -0.13806  -0.12889  -0.12009  -0.08779
 Alpha  occ. eigenvalues --   -0.03375   0.04841
 Alpha virt. eigenvalues --    0.09717   0.10192   0.11123   0.12343   0.13274
 Alpha virt. eigenvalues --    0.14801   0.14981   0.15279   0.17136   0.18519
 Alpha virt. eigenvalues --    0.19160   0.19618   0.20013   0.20845   0.21494

  Beta  occ. eigenvalues --  -18.92598 -14.17778 -14.16241 -14.11835 -10.09991
  Beta  occ. eigenvalues --  -10.04563 -10.03457 -10.02354 -10.00588  -9.99374
  Beta  occ. eigenvalues --   -0.87691  -0.78909  -0.75649  -0.71290  -0.63001
  Beta  occ. eigenvalues --   -0.54834  -0.50838  -0.44642  -0.40245  -0.39368
  Beta  occ. eigenvalues --   -0.37651  -0.36033  -0.30659  -0.29497  -0.28045
  Beta  occ. eigenvalues --   -0.26317  -0.25185  -0.23809  -0.20709  -0.19699
  Beta  occ. eigenvalues --   -0.14691  -0.12226  -0.11821  -0.11382  -0.08252
  Beta  occ. eigenvalues --   -0.02721
  Beta virt. eigenvalues --    0.09700   0.10153   0.11015   0.11362   0.12336
  Beta virt. eigenvalues --    0.13234   0.14893   0.15264   0.16359   0.17212
  Beta virt. eigenvalues --    0.18639   0.19195   0.19625   0.20070   0.21245

 Mulliken charges and spin densities:
               1          2
     1  C    0.023558  -0.020137
     2  C   -0.353477   0.189633
     3  N   -0.067341  -0.028235
     4  C   -0.146346   0.267167
     5  N   -0.164039   0.120711
     6  C   -0.247707   0.051259
     7  C   -0.300830   0.178396
     8  C    0.097664   0.125099
     9  O   -0.503770   0.097420
    10  N   -0.431468   0.034778
    11  H    0.102094   0.004648
    12  H    0.077221  -0.017095
    13  H    0.233120   0.004245
    14  H    0.098173  -0.001970
    15  H    0.072664  -0.002560
    16  H    0.250315  -0.001256
    17  H    0.260168  -0.002103
 Sum of Mulliken charges =  -1.00000   1.00000

 Dipole moment (field-independent basis, Debye):
    X=              0.5660    Y=              0.9289    Z=              0.9418  Tot=              1.4389
 Quadrupole moment (field-independent basis, Debye-Ang):
   XX=            -81.0934   YY=            -69.1100   ZZ=            -68.3487
   XY=              8.1719   XZ=              0.3984   YZ=             -0.7108

 Summary of Natural Population Analysis:

                                       Natural Population
                Natural  -----------------------------------------------
    Atom  No    Charge         Core      Valence    Rydberg      Total
 -----------------------------------------------------------------------
      C    1   -0.16843      0.99954     2.15772    0.01116     3.16843
      C    2    0.07274      0.99951     1.91588    0.01187     2.92726
      N    3   -0.34719      0.99967     2.83330    0.01422     3.84719
      C    4    0.27000      0.99954     1.71229    0.01817     2.73000
      N    5   -0.25138      0.99962     2.73791    0.01385     3.75138
      C    6    0.00242      0.99952     1.98280    0.01526     2.99758
      C    7   -0.09583      0.99954     2.08509    0.01120     3.09583
      C    8    0.33294      0.99967     1.64396    0.02343     2.66706
      O    9   -0.32288      0.99988     3.31662    0.00637     4.32288
      N   10   -0.40161      0.99970     2.89418    0.00773     3.90161
      H   11    0.09105      0.00000     0.40781    0.00114     0.40895
      H   12    0.07599      0.00000     0.42272    0.00128     0.42401
      H   13    0.19591      0.00000     0.30155    0.00254     0.30409
      H   14    0.07732      0.00000     0.42134    0.00134     0.42268
      H   15    0.08276      0.00000     0.41512    0.00212     0.41724
      H   16    0.20510      0.00000     0.29347    0.00143     0.29490
      H   17    0.18108      0.00000     0.31574    0.00318     0.31892
 =======================================================================
   * Total *    0.00000      9.99619    25.85751    0.14630    36.00000

 Normal termination of Gaussian 16 at Tue Dec  8 13:35:19 2020.
