 Gaussian 16, Revision A.03,

 -----------------------------------------------------------
 # opt freq B3LYP/6-31G(d) empiricaldispersion=gd3bj scf=xqc
 -----------------------------------------------------------

 ------------------------------
 CID_80155159_JID_7628_neutraal
 ------------------------------
 Symbolic Z-matrix:
 Charge =  0 Multiplicity = 1

 SCF Done:  E(RB3LYP) =  -767.450421372     A.U. after   15 cycles
 SCF Done:  E(RB3LYP) =  -767.454854308     A.U. after   13 cycles
 SCF Done:  E(RB3LYP) =  -767.455014081     A.U. after   12 cycles
 SCF Done:  E(RB3LYP) =  -767.455445109     A.U. after   13 cycles
 SCF Done:  E(RB3LYP) =  -767.455689645     A.U. after   12 cycles
 SCF Done:  E(RB3LYP) =  -767.455718420     A.U. after   11 cycles
 SCF Done:  E(RB3LYP) =  -767.455737266     A.U. after   10 cycles
 SCF Done:  E(RB3LYP) =  -767.455752810     A.U. after   11 cycles
 SCF Done:  E(RB3LYP) =  -767.455772586     A.U. after   11 cycles
 SCF Done:  E(RB3LYP) =  -767.455762617     A.U. after   11 cycles
 SCF Done:  E(RB3LYP) =  -767.456034820     A.U. after   11 cycles
 SCF Done:  E(RB3LYP) =  -767.456037574     A.U. after   10 cycles
 SCF Done:  E(RB3LYP) =  -767.456035938     A.U. after    9 cycles
 SCF Done:  E(RB3LYP) =  -767.456036454     A.U. after    7 cycles
 SCF Done:  E(RB3LYP) =  -767.456037866     A.U. after    9 cycles
 SCF Done:  E(RB3LYP) =  -767.456036893     A.U. after    9 cycles
 Optimization completed.
    -- Stationary point found.
 Normal termination of Gaussian 16 at Mon Dec 14 13:37:41 2020.

 --------------------------------------------------------------------
 #N Geom=AllCheck Guess=TCheck SCRF=Check GenChk RB3LYP/6-31G(d) Freq
 --------------------------------------------------------------------

 Structure from the checkpoint file:  "JID_7628.chk"
 ------------------------------
 CID_80155159_JID_7628_neutraal
 ------------------------------
 Charge =  0 Multiplicity = 1

 SCF Done:  E(RB3LYP) =  -767.456036893     A.U. after    1 cycles

  Exact polarizability: 208.080 -15.095 130.058  -9.631 -15.289 129.365
 Approx polarizability: 260.970 -29.325 201.992 -20.037 -41.915 214.088

                      1                      2                      3
                      A                      A                      A
 Frequencies --     18.5945                25.4564                39.9570
 Red. masses --      4.4034                 3.5723                 3.9413
 Frc consts  --      0.0009                 0.0014                 0.0037
 IR Inten    --      1.5272                 0.6240                 1.1786

                      4                      5                      6
                      A                      A                      A
 Frequencies --     58.2675                64.0381                88.6133
 Red. masses --      4.2129                 2.8290                 3.7346
 Frc consts  --      0.0084                 0.0068                 0.0173
 IR Inten    --      0.0583                 0.2747                 0.7212

                      7                      8                      9
                      A                      A                      A
 Frequencies --    116.3424               132.9683               154.4715
 Red. masses --      3.5776                 1.2886                 3.0845
 Frc consts  --      0.0285                 0.0134                 0.0434
 IR Inten    --      0.5407                 0.2736                 1.5714

                     10                     11                     12
                      A                      A                      A
 Frequencies --    163.8749               208.5642               233.8891
 Red. masses --      3.9431                 1.2468                 1.1240
 Frc consts  --      0.0624                 0.0320                 0.0362
 IR Inten    --      1.5384                 0.4955                 0.2069

                     13                     14                     15
                      A                      A                      A
 Frequencies --    253.4078               283.5432               289.6590
 Red. masses --      2.7215                 1.3957                 2.1577
 Frc consts  --      0.1030                 0.0661                 0.1067
 IR Inten    --      1.9476                 1.9040                 5.4966

                     16                     17                     18
                      A                      A                      A
 Frequencies --    309.0406               319.7485               342.2621
 Red. masses --      2.7946                 2.9487                 4.1072
 Frc consts  --      0.1573                 0.1776                 0.2835
 IR Inten    --      4.8356                 2.5792                 7.0186

                     19                     20                     21
                      A                      A                      A
 Frequencies --    365.1862               377.7603               409.7936
 Red. masses --      3.0405                 1.9807                 2.6194
 Frc consts  --      0.2389                 0.1665                 0.2592
 IR Inten    --      4.6436                 1.1435                 1.6071

                     22                     23                     24
                      A                      A                      A
 Frequencies --    420.1599               450.3622               467.3202
 Red. masses --      3.1374                 3.1381                 2.6236
 Frc consts  --      0.3263                 0.3750                 0.3376
 IR Inten    --      3.3491                 1.2996                11.9277

                     25                     26                     27
                      A                      A                      A
 Frequencies --    488.9301               503.8215               560.8706
 Red. masses --      4.1548                 3.2474                 3.6320
 Frc consts  --      0.5852                 0.4857                 0.6732
 IR Inten    --      6.9583                 3.4917                 2.4010

                     28                     29                     30
                      A                      A                      A
 Frequencies --    653.1645               657.1563               735.6744
 Red. masses --      5.8682                 4.6007                 4.3301
 Frc consts  --      1.4750                 1.1706                 1.3807
 IR Inten    --      5.3070                 5.3997                16.0791

                     31                     32                     33
                      A                      A                      A
 Frequencies --    763.2074               776.3642               802.0569
 Red. masses --      2.2793                 3.8215                 2.0198
 Frc consts  --      0.7822                 1.3571                 0.7655
 IR Inten    --     69.4660                20.5351                 1.1111

                     34                     35                     36
                      A                      A                      A
 Frequencies --    829.1218               858.2097               866.4120
 Red. masses --      3.9551                 1.7957                 3.3385
 Frc consts  --      1.6019                 0.7792                 1.4766
 IR Inten    --     36.5132                 5.8219                 0.6665

                     37                     38                     39
                      A                      A                      A
 Frequencies --    904.9880               938.1964               947.9496
 Red. masses --      2.1569                 1.2130                 1.7697
 Frc consts  --      1.0408                 0.6291                 0.9370
 IR Inten    --     25.1344                 3.8006                12.7774

                     40                     41                     42
                      A                      A                      A
 Frequencies --    975.8163               984.0273               994.3561
 Red. masses --      1.4093                 1.4257                 1.3847
 Frc consts  --      0.7907                 0.8134                 0.8067
 IR Inten    --      1.5782                 3.4925                 7.5488

                     43                     44                     45
                      A                      A                      A
 Frequencies --    997.7146              1002.2717              1029.9914
 Red. masses --      1.3454                 5.0844                 1.5576
 Frc consts  --      0.7891                 3.0093                 0.9736
 IR Inten    --      0.2765                 7.1108                 7.0095

                     46                     47                     48
                      A                      A                      A
 Frequencies --   1051.5892              1061.2744              1140.5018
 Red. masses --      3.2309                 3.1790                 3.6829
 Frc consts  --      2.1051                 2.1096                 2.8225
 IR Inten    --     35.7007                 0.3931                64.0171

                     49                     50                     51
                      A                      A                      A
 Frequencies --   1150.2908              1161.3458              1167.2470
 Red. masses --      2.2192                 2.3943                 1.8854
 Frc consts  --      1.7301                 1.9026                 1.5135
 IR Inten    --     64.2514                21.5808               120.6682

                     52                     53                     54
                      A                      A                      A
 Frequencies --   1178.3874              1186.3035              1203.4482
 Red. masses --      1.4720                 1.2729                 1.7909
 Frc consts  --      1.2043                 1.0555                 1.5282
 IR Inten    --      1.2627                 0.8789                 5.0699

                     55                     56                     57
                      A                      A                      A
 Frequencies --   1222.2358              1225.0818              1244.7551
 Red. masses --      2.0839                 1.6568                 2.9364
 Frc consts  --      1.8341                 1.4651                 2.6806
 IR Inten    --     12.9297                62.6235                19.8573

                     58                     59                     60
                      A                      A                      A
 Frequencies --   1286.7146              1313.3427              1322.2222
 Red. masses --      1.6847                 3.3057                 2.6544
 Frc consts  --      1.6433                 3.3595                 2.7342
 IR Inten    --     13.4170               450.3259                46.1717

                     61                     62                     63
                      A                      A                      A
 Frequencies --   1326.2418              1339.4901              1359.9459
 Red. masses --      1.3758                 1.5561                 1.3338
 Frc consts  --      1.4258                 1.6450                 1.4534
 IR Inten    --      8.4121                29.2117                 3.2574

                     64                     65                     66
                      A                      A                      A
 Frequencies --   1380.8199              1395.2101              1411.3424
 Red. masses --      1.3892                 1.4698                 1.3010
 Frc consts  --      1.5606                 1.6857                 1.5268
 IR Inten    --      2.1844                 1.7645                 6.9769

                     67                     68                     69
                      A                      A                      A
 Frequencies --   1422.5753              1434.2963              1434.7459
 Red. masses --      1.2901                 2.5852                 1.3664
 Frc consts  --      1.5383                 3.1335                 1.6572
 IR Inten    --      4.5486                12.4308                21.8741

                     70                     71                     72
                      A                      A                      A
 Frequencies --   1445.7123              1492.9717              1499.9316
 Red. masses --      1.2253                 1.2254                 1.1088
 Frc consts  --      1.5088                 1.6093                 1.4697
 IR Inten    --      6.4350                20.6958                 3.2902

                     73                     74                     75
                      A                      A                      A
 Frequencies --   1512.0022              1519.2854              1524.6839
 Red. masses --      1.0478                 1.0637                 1.0583
 Frc consts  --      1.4113                 1.4466                 1.4494
 IR Inten    --      6.1690                 0.3480                 7.9091

                     76                     77                     78
                      A                      A                      A
 Frequencies --   1525.0690              1529.1609              1530.3207
 Red. masses --      1.0452                 1.0782                 1.6600
 Frc consts  --      1.4323                 1.4855                 2.2905
 IR Inten    --      3.2665                 6.0537                 4.2401

                     79                     80                     81
                      A                      A                      A
 Frequencies --   1531.3575              1538.8264              1544.0231
 Red. masses --      1.3010                 1.1329                 1.0791
 Frc consts  --      1.7976                 1.5806                 1.5157
 IR Inten    --      2.7961                15.3189                16.1594

                     82                     83                     84
                      A                      A                      A
 Frequencies --   1552.9041              1618.9691              1655.4957
 Red. masses --      1.0601                 6.3196                 5.8333
 Frc consts  --      1.5062                 9.7592                 9.4194
 IR Inten    --      8.1155                12.5623               123.3016

                     85                     86                     87
                      A                      A                      A
 Frequencies --   1806.7638              2966.0491              3021.6792
 Red. masses --     11.6860                 1.0818                 1.0814
 Frc consts  --     22.4760                 5.6074                 5.8172
 IR Inten    --    233.2302                22.5108                11.3806

                     88                     89                     90
                      A                      A                      A
 Frequencies --   3032.7991              3040.1481              3041.3379
 Red. masses --      1.0431                 1.0625                 1.0458
 Frc consts  --      5.6530                 5.7857                 5.6993
 IR Inten    --     20.5924                45.3635                32.5358

                     91                     92                     93
                      A                      A                      A
 Frequencies --   3047.3931              3077.2704              3094.3129
 Red. masses --      1.0411                 1.0294                 1.0975
 Frc consts  --      5.6964                 5.7435                 6.1912
 IR Inten    --     19.9178                38.0373                15.5499

                     94                     95                     96
                      A                      A                      A
 Frequencies --   3102.9837              3108.2650              3115.5746
 Red. masses --      1.0978                 1.0961                 1.0978
 Frc consts  --      6.2278                 6.2395                 6.2783
 IR Inten    --     82.4928                16.2589                26.6035

                     97                     98                     99
                      A                      A                      A
 Frequencies --   3122.2703              3140.1257              3143.2772
 Red. masses --      1.1008                 1.0987                 1.1000
 Frc consts  --      6.3226                 6.3827                 6.4034
 IR Inten    --     38.0602                18.1496                33.1658

                    100                    101                    102
                      A                      A                      A
 Frequencies --   3152.3680              3184.7065              3200.1173
 Red. masses --      1.1076                 1.1073                 1.0900
 Frc consts  --      6.4848                 6.6168                 6.5769
 IR Inten    --     19.7324                16.5979                12.0628

                    103                    104                    105
                      A                      A                      A
 Frequencies --   3204.4613              3232.6547              3511.4597
 Red. masses --      1.0911                 1.0934                 1.0738
 Frc consts  --      6.6009                 6.7320                 7.8008
 IR Inten    --      1.9462                 3.3197                 1.9956

 - Thermochemistry -
 -------------------
 Temperature   298.150 Kelvin.  Pressure   1.00000 Atm.
 Atom     1 has atomic number  6 and mass  12.00000

 Molecular mass:   236.15248 amu.
 Principal axes and moments of inertia in atomic units:
                           1         2         3
     Eigenvalues --  1705.19583********************
           X            0.99999   0.00377   0.00200
           Y           -0.00371   0.99946  -0.03272
           Z           -0.00213   0.03271   0.99946
 This molecule is an asymmetric top.
 Rotational symmetry number  1.
 Warning -- assumption of classical behavior for rotation
           may cause significant error
 Rotational temperatures (Kelvin)      0.05079     0.00865     0.00856
 Rotational constants (GHZ):           1.05838     0.18014     0.17835
 Zero-point vibrational energy     841272.2 (Joules/Mol)
                                  201.06887 (Kcal/Mol)
 Warning -- explicit consideration of  27 degrees of freedom as
           vibrations may cause significant error
 Vibrational temperatures:     26.75    36.63    57.49    83.83    92.14
          (Kelvin)            127.49   167.39   191.31   222.25   235.78
                              300.08   336.51   364.60   407.96   416.75
                              444.64   460.05   492.44   525.42   543.51
                              589.60   604.52   647.97   672.37   703.46
                              724.89   806.97   939.76   945.50  1058.47
                             1098.09  1117.01  1153.98  1192.92  1234.77
                             1246.57  1302.08  1349.86  1363.89  1403.98
                             1415.80  1430.66  1435.49  1442.05  1481.93
                             1513.00  1526.94  1640.93  1655.01  1670.92
                             1679.41  1695.44  1706.83  1731.49  1758.52
                             1762.62  1790.92  1851.30  1889.61  1902.38
                             1908.17  1927.23  1956.66  1986.69  2007.40
                             2030.61  2046.77  2063.63  2064.28  2080.06
                             2148.05  2158.07  2175.43  2185.91  2193.68
                             2194.23  2200.12  2201.79  2203.28  2214.03
                             2221.50  2234.28  2329.34  2381.89  2599.53
                             4267.48  4347.52  4363.52  4374.10  4375.81
                             4384.52  4427.51  4452.03  4464.50  4472.10
                             4482.62  4492.25  4517.94  4522.47  4535.55
                             4582.08  4604.26  4610.51  4651.07  5052.21

 Zero-point correction=                           0.320424 (Hartree/Particle)
 Thermal correction to Energy=                    0.338504
 Thermal correction to Enthalpy=                  0.339449
 Thermal correction to Gibbs Free Energy=         0.272140
 Sum of electronic and zero-point Energies=           -767.135613
 Sum of electronic and thermal Energies=              -767.117532
 Sum of electronic and thermal Enthalpies=            -767.116588
 Sum of electronic and thermal Free Energies=         -767.183897

                     E (Thermal)             CV                S
                      KCal/Mol        Cal/Mol-Kelvin    Cal/Mol-Kelvin
 Total                  212.415             66.627            141.664
 Electronic               0.000              0.000              0.000
 Translational            0.889              2.981             42.279
 Rotational               0.889              2.981             33.513
 Vibrational            210.637             60.665             65.871
 Vibration     1          0.593              1.986              6.779
 Vibration     2          0.593              1.985              6.155
 Vibration     3          0.594              1.981              5.261
 Vibration     4          0.596              1.974              4.515
 Vibration     5          0.597              1.971              4.329
 Vibration     6          0.601              1.957              3.690
 Vibration     7          0.608              1.936              3.160
 Vibration     8          0.613              1.920              2.903
 Vibration     9          0.620              1.898              2.616
 Vibration    10          0.623              1.887              2.505
 Vibration    11          0.642              1.828              2.056
 Vibration    12          0.654              1.789              1.849
 Vibration    13          0.665              1.757              1.707
 Vibration    14          0.682              1.704              1.512
 Vibration    15          0.686              1.693              1.476
 Vibration    16          0.698              1.657              1.367
 Vibration    17          0.706              1.636              1.311
 Vibration    18          0.721              1.591              1.202
 Vibration    19          0.738              1.544              1.100
 Vibration    20          0.748              1.518              1.048
 Vibration    21          0.774              1.449              0.927
 Vibration    22          0.783              1.426              0.891
 Vibration    23          0.809              1.360              0.795
 Vibration    24          0.825              1.323              0.745
 Vibration    25          0.845              1.275              0.686
 Vibration    26          0.859              1.242              0.649
 Vibration    27          0.917              1.116              0.522

 Optimization completed.
    -- Stationary point found.
 Normal termination of Gaussian 16 at Mon Dec 14 13:50:07 2020.

 ----------------------------------------------------------------------
 # B3LYP/6-311++G(d,p) empiricaldispersion=gd3bj scf=xqc pop=npa geom=c
 heck
 ----------------------------------------------------------------------

 --------------------------------------
 CID_80155159_JID_7628_Energie_neutraal
 --------------------------------------
 Structure from the checkpoint file:  "JID_7628.chk"
 Charge =  0 Multiplicity = 1

 SCF Done:  E(RB3LYP) =  -767.671337683     A.U. after   15 cycles
 Normal termination of Gaussian 16 at Mon Dec 14 13:56:34 2020.

 ----------------------------------------------------------------------
 # B3LYP/6-311++G(d,p) empiricaldispersion=gd3bj scf=xqc pop=npa geom=c
 heck
 ----------------------------------------------------------------------

 ------------------------------------
 CID_80155159_JID_7628_Energie_kation
 ------------------------------------
 Structure from the checkpoint file:  "JID_7628.chk"
 Charge =  1 Multiplicity = 2

 SCF Done:  E(UB3LYP) =  -767.369812459     A.U. after   25 cycles
 Normal termination of Gaussian 16 at Mon Dec 14 14:12:41 2020.
 Gaussian 16:  ES64L-G16RevA.03 25-Dec-2016

 ----------------------------------------------------------------------
 # B3LYP/6-311++G(d,p) empiricaldispersion=gd3bj scf=xqc pop=npa geom=c
 heck
 ----------------------------------------------------------------------

 -----------------------------------
 CID_80155159_JID_7628_Energie_anion
 -----------------------------------
 Structure from the checkpoint file:  "JID_7628.chk"
 Charge = -1 Multiplicity = 2

                         Standard orientation:
 ---------------------------------------------------------------------
 Center     Atomic      Atomic             Coordinates (Angstroms)
 Number     Number       Type             X           Y           Z
 ---------------------------------------------------------------------
      1          6           0        4.468126    1.260302    1.688915
      2          6           0        4.214508    0.372022    0.463114
      3          6           0        4.507643   -1.093340    0.804650
      4          6           0        2.782434    0.547151   -0.094543
      5          6           0        2.495135    1.983236   -0.543012
      6          7           0        2.557015   -0.374847   -1.231567
      7          6           0        1.638922   -1.470886   -0.950622
      8          6           0        0.213906   -1.036668   -0.640000
      9          7           0       -0.300241   -0.099592   -1.457961
     10          6           0       -1.545567    0.317161   -1.233505
     11          6           0       -2.349238   -0.163403   -0.190516
     12          6           0       -1.810797   -1.134324    0.658806
     13          6           0       -0.511843   -1.573987    0.428312
     14          6           0       -3.720521    0.385282   -0.041038
     15          8           0       -4.206538    1.231523   -0.764720
     16          8           0       -4.379206   -0.167504    1.002783
     17          6           0       -5.714715    0.319218    1.204867
     18          1           0        3.732398    1.054245    2.478064
     19          1           0        4.414873    2.327231    1.451890
     20          1           0        5.461810    1.065667    2.108119
     21          1           0        4.903786    0.672511   -0.339683
     22          1           0        3.838950   -1.453262    1.599052
     23          1           0        4.378200   -1.730200   -0.074197
     24          1           0        5.536220   -1.210697    1.164807
     25          1           0        2.079154    0.303746    0.720742
     26          1           0        3.182498    2.274857   -1.347821
     27          1           0        1.470993    2.060302   -0.922095
     28          1           0        2.610783    2.700407    0.273704
     29          1           0        2.160876    0.150343   -2.007564
     30          1           0        1.614363   -2.127103   -1.831383
     31          1           0        2.027945   -2.070123   -0.121727
     32          1           0       -1.945341    1.072922   -1.904502
     33          1           0       -2.400124   -1.524115    1.481254
     34          1           0       -0.056700   -2.322554    1.070022
     35          1           0       -5.704545    1.395535    1.394813
     36          1           0       -6.331191    0.120433    0.324483
     37          1           0       -6.094374   -0.221811    2.071661
 ---------------------------------------------------------------------

 SCF Done:  E(UB3LYP) =  -767.681790472     A.U. after   29 cycles

 The electronic state is 2-A.
 Alpha  occ. eigenvalues --  -19.01891 -18.93667 -14.17075 -14.14836 -10.12084
 Alpha  occ. eigenvalues --  -10.10588 -10.08528 -10.07252 -10.06963 -10.06227
 Alpha  occ. eigenvalues --  -10.06021 -10.05260 -10.04797 -10.03348 -10.02569
 Alpha  occ. eigenvalues --  -10.01893 -10.01063  -0.95532  -0.85925  -0.79784
 Alpha  occ. eigenvalues --   -0.77469  -0.69933  -0.65315  -0.63600  -0.61645
 Alpha  occ. eigenvalues --   -0.59584  -0.58865  -0.54184  -0.51696  -0.48197
 Alpha  occ. eigenvalues --   -0.46509  -0.45415  -0.43100  -0.38380  -0.37062
 Alpha  occ. eigenvalues --   -0.35832  -0.35606  -0.35192  -0.34270  -0.33596
 Alpha  occ. eigenvalues --   -0.32700  -0.31179  -0.30621  -0.29802  -0.29368
 Alpha  occ. eigenvalues --   -0.28823  -0.27710  -0.27338  -0.26712  -0.26251
 Alpha  occ. eigenvalues --   -0.25053  -0.24602  -0.24108  -0.23231  -0.22449
 Alpha  occ. eigenvalues --   -0.22210  -0.21285  -0.20827  -0.16791  -0.13921
 Alpha  occ. eigenvalues --   -0.12638  -0.11283  -0.10747  -0.10253   0.04999
 Alpha virt. eigenvalues --    0.06702   0.08205   0.08480   0.09044   0.09352
 Alpha virt. eigenvalues --    0.10790   0.10808   0.11469   0.11819   0.11847
 Alpha virt. eigenvalues --    0.12151   0.12225   0.12564   0.13648   0.13886

  Beta  occ. eigenvalues --  -19.01816 -18.93314 -14.17045 -14.14816 -10.11827
  Beta  occ. eigenvalues --  -10.10593 -10.08523 -10.07252 -10.06962 -10.06265
  Beta  occ. eigenvalues --  -10.06021 -10.05260 -10.04749 -10.02845 -10.02695
  Beta  occ. eigenvalues --  -10.01571 -10.00850  -0.95239  -0.85385  -0.79569
  Beta  occ. eigenvalues --   -0.77272  -0.69908  -0.64770  -0.63433  -0.61352
  Beta  occ. eigenvalues --   -0.59438  -0.58798  -0.54015  -0.51576  -0.47943
  Beta  occ. eigenvalues --   -0.46104  -0.45230  -0.42849  -0.38213  -0.37036
  Beta  occ. eigenvalues --   -0.35698  -0.35528  -0.34838  -0.34130  -0.33507
  Beta  occ. eigenvalues --   -0.32336  -0.30998  -0.30572  -0.29544  -0.29358
  Beta  occ. eigenvalues --   -0.28735  -0.27579  -0.27039  -0.26276  -0.25519
  Beta  occ. eigenvalues --   -0.24944  -0.24434  -0.23902  -0.22923  -0.22294
  Beta  occ. eigenvalues --   -0.21943  -0.21063  -0.20642  -0.15619  -0.12688
  Beta  occ. eigenvalues --   -0.12329  -0.10883  -0.10142  -0.09202
  Beta virt. eigenvalues --    0.06649   0.08190   0.08402   0.08953   0.09283
  Beta virt. eigenvalues --    0.10621   0.10737   0.11418   0.11647   0.11900
  Beta virt. eigenvalues --    0.11987   0.12141   0.12324   0.12663   0.13589

 Mulliken charges and spin densities:
               1          2
     1  C   -0.635607  -0.025058
     2  C    0.625171   0.025514
     3  C   -0.637977  -0.016338
     4  C   -0.458602  -0.044461
     5  C   -0.733582   0.001373
     6  N    0.172557   0.002595
     7  C   -0.961124  -0.013966
     8  C    0.561397   0.255787
     9  N   -0.099324   0.013041
    10  C   -0.542438   0.079355
    11  C    0.369010   0.101624
    12  C   -0.290702   0.312754
    13  C   -0.233352  -0.082509
    14  C   -0.158505   0.118199
    15  O   -0.388842   0.119494
    16  O   -0.128471   0.014156
    17  C   -0.218364  -0.003305
    18  H    0.137196   0.008121
    19  H    0.119995   0.002348
    20  H    0.118062   0.009984
    21  H    0.139742   0.000106
    22  H    0.133951  -0.000025
    23  H    0.146907   0.006784
    24  H    0.114390   0.002578
    25  H    0.162375   0.004350
    26  H    0.132084   0.000563
    27  H    0.170013   0.002495
    28  H    0.106767   0.000329
    29  H    0.228406   0.005391
    30  H    0.063275   0.115852
    31  H    0.125327  -0.008907
    32  H    0.171997  -0.001686
    33  H    0.169142  -0.017698
    34  H    0.094745   0.007391
    35  H    0.155108   0.002176
    36  H    0.154918   0.002148
    37  H    0.114355  -0.000556
 Sum of Mulliken charges =  -1.00000   1.00000

 Dipole moment (field-independent basis, Debye):
    X=              5.0345    Y=             -0.0983    Z=              3.6752  Tot=              6.2340
 Quadrupole moment (field-independent basis, Debye-Ang):
   XX=           -156.9360   YY=           -118.1949   ZZ=           -119.6620
   XY=              8.2471   XZ=             -5.1793   YZ=              0.3613

 Summary of Natural Population Analysis:

                                       Natural Population
                Natural  -----------------------------------------------
    Atom  No    Charge         Core      Valence    Rydberg      Total
 -----------------------------------------------------------------------
      C    1   -0.28642      0.99966     2.28206    0.00470     3.28642
      C    2   -0.11121      0.99959     2.10369    0.00793     3.11121
      C    3   -0.28651      0.99965     2.28189    0.00496     3.28651
      C    4   -0.01061      0.99958     1.99867    0.01236     3.01061
      C    5   -0.29322      0.99965     2.28907    0.00450     3.29322
      N    6   -0.34781      0.99974     2.83456    0.01350     3.84781
      C    7   -0.10026      0.99960     2.08832    0.01234     3.10026
      C    8    0.17619      0.99954     1.80904    0.01524     2.82381
      N    9   -0.26884      0.99968     2.75590    0.01327     3.76884
      C   10    0.06171      0.99957     1.92570    0.01303     2.93829
      C   11   -0.07025      0.99945     2.06192    0.00888     3.07025
      C   12   -0.00670      0.99955     1.99867    0.00848     3.00670
      C   13   -0.15873      0.99952     2.15188    0.00732     3.15873
      C   14    0.42829      0.99965     1.54847    0.02359     2.57171
      O   15   -0.29771      0.99987     3.29194    0.00590     4.29771
      O   16   -0.28265      0.99986     3.27395    0.00884     4.28265
      C   17   -0.10499      0.99961     2.09662    0.00876     3.10499
      H   18    0.09653      0.00000     0.40258    0.00090     0.40347
      H   19    0.09725      0.00000     0.40201    0.00074     0.40275
      H   20    0.09365      0.00000     0.40544    0.00092     0.40635
      H   21    0.08926      0.00000     0.40892    0.00182     0.41074
      H   22    0.09409      0.00000     0.40506    0.00085     0.40591
      H   23    0.10944      0.00000     0.38977    0.00080     0.39056
      H   24    0.09076      0.00000     0.40838    0.00087     0.40924
      H   25    0.08963      0.00000     0.40863    0.00174     0.41037
      H   26    0.09162      0.00000     0.40745    0.00093     0.40838
      H   27    0.11453      0.00000     0.38450    0.00097     0.38547
      H   28    0.09510      0.00000     0.40412    0.00079     0.40490
      H   29    0.18152      0.00000     0.31626    0.00222     0.31848
      H   30    0.09787      0.00000     0.40062    0.00151     0.40213
      H   31    0.08713      0.00000     0.41191    0.00096     0.41287
      H   32    0.09084      0.00000     0.40797    0.00120     0.40916
      H   33    0.09585      0.00000     0.40317    0.00098     0.40415
      H   34    0.09139      0.00000     0.40760    0.00101     0.40861
      H   35    0.08630      0.00000     0.41237    0.00133     0.41370
      H   36    0.08629      0.00000     0.41238    0.00133     0.41371
      H   37    0.08071      0.00000     0.41840    0.00089     0.41929
 =======================================================================
   * Total *   -0.00000     16.99377    46.80988    0.19636    64.00000

 Normal termination of Gaussian 16 at Mon Dec 14 14:30:46 2020.
