 Gaussian 16, Revision A.03,

 -----------------------------------------------------------
 # opt freq B3LYP/6-31G(d) empiricaldispersion=gd3bj scf=xqc
 -----------------------------------------------------------

 ------------------------------
 CID_65903023_JID_8635_neutraal
 ------------------------------
 Symbolic Z-matrix:
 Charge =  0 Multiplicity = 1

 SCF Done:  E(RB3LYP) =  -826.654767259     A.U. after   14 cycles
 SCF Done:  E(RB3LYP) =  -826.662277753     A.U. after   13 cycles
 SCF Done:  E(RB3LYP) =  -826.661318342     A.U. after   13 cycles
 SCF Done:  E(RB3LYP) =  -826.662894045     A.U. after   12 cycles
 SCF Done:  E(RB3LYP) =  -826.663178530     A.U. after   11 cycles
 SCF Done:  E(RB3LYP) =  -826.663085444     A.U. after   12 cycles
 SCF Done:  E(RB3LYP) =  -826.663216658     A.U. after   12 cycles
 SCF Done:  E(RB3LYP) =  -826.663227914     A.U. after   10 cycles
 SCF Done:  E(RB3LYP) =  -826.663233163     A.U. after   10 cycles
 SCF Done:  E(RB3LYP) =  -826.663235431     A.U. after    8 cycles
 SCF Done:  E(RB3LYP) =  -826.663238695     A.U. after    7 cycles
 SCF Done:  E(RB3LYP) =  -826.663239833     A.U. after    8 cycles
 SCF Done:  E(RB3LYP) =  -826.663241083     A.U. after    8 cycles
 SCF Done:  E(RB3LYP) =  -826.663242190     A.U. after    8 cycles
 SCF Done:  E(RB3LYP) =  -826.663242595     A.U. after    7 cycles
 SCF Done:  E(RB3LYP) =  -826.663242651     A.U. after    6 cycles
 Optimization completed.
    -- Stationary point found.
 Normal termination of Gaussian 16 at Sun Dec 13 20:22:04 2020.

 --------------------------------------------------------------------
 #N Geom=AllCheck Guess=TCheck SCRF=Check GenChk RB3LYP/6-31G(d) Freq
 --------------------------------------------------------------------

 Structure from the checkpoint file:  "JID_8635.chk"
 ------------------------------
 CID_65903023_JID_8635_neutraal
 ------------------------------
 Charge =  0 Multiplicity = 1

 SCF Done:  E(RB3LYP) =  -826.663242651     A.U. after    1 cycles

  Exact polarizability: 167.357 -11.004 162.571  -4.984 -13.624 131.326
 Approx polarizability: 219.705 -27.754 280.005  -1.339 -43.870 198.911

                      1                      2                      3
                      A                      A                      A
 Frequencies --     34.6163                48.2736                64.7533
 Red. masses --      4.5504                 4.1073                 1.0320
 Frc consts  --      0.0032                 0.0056                 0.0025
 IR Inten    --      0.1375                 1.2236                 1.1078

                      4                      5                      6
                      A                      A                      A
 Frequencies --     79.8980                93.1011               104.2069
 Red. masses --      3.9291                 2.3797                 1.4747
 Frc consts  --      0.0148                 0.0122                 0.0094
 IR Inten    --      0.3154                 1.0122                 0.5635

                      7                      8                      9
                      A                      A                      A
 Frequencies --    127.1847               137.0068               145.3618
 Red. masses --      4.3204                 3.5626                 4.8563
 Frc consts  --      0.0412                 0.0394                 0.0605
 IR Inten    --      1.7921                 0.8735                 4.1378

                     10                     11                     12
                      A                      A                      A
 Frequencies --    174.5029               195.3965               220.1976
 Red. masses --      3.4311                 4.1362                 3.5236
 Frc consts  --      0.0616                 0.0930                 0.1007
 IR Inten    --      5.9081                 9.7633                 3.0935

                     13                     14                     15
                      A                      A                      A
 Frequencies --    230.9999               254.2198               272.6208
 Red. masses --      2.3374                 2.6045                 3.6208
 Frc consts  --      0.0735                 0.0992                 0.1586
 IR Inten    --      2.4417                 2.1966                 0.9041

                     16                     17                     18
                      A                      A                      A
 Frequencies --    280.4858               285.4568               328.2146
 Red. masses --      2.8442                 1.2506                 1.8713
 Frc consts  --      0.1318                 0.0600                 0.1188
 IR Inten    --     27.3413                92.7761                 0.8287

                     19                     20                     21
                      A                      A                      A
 Frequencies --    352.5956               370.5999               384.7388
 Red. masses --      3.5935                 4.1553                 2.1906
 Frc consts  --      0.2632                 0.3363                 0.1910
 IR Inten    --     13.3126                 3.0470                 5.7935

                     22                     23                     24
                      A                      A                      A
 Frequencies --    427.0077               447.3118               461.2857
 Red. masses --      3.8183                 3.9244                 2.3507
 Frc consts  --      0.4102                 0.4626                 0.2947
 IR Inten    --      4.4189                 0.1304                 1.0667

                     25                     26                     27
                      A                      A                      A
 Frequencies --    481.1473               524.5233               543.6831
 Red. masses --      3.1103                 5.6992                 2.7766
 Frc consts  --      0.4242                 0.9238                 0.4836
 IR Inten    --      7.7221                 9.1021                 7.3075

                     28                     29                     30
                      A                      A                      A
 Frequencies --    568.0595               658.4149               690.7497
 Red. masses --      2.5958                 9.9946                 3.1338
 Frc consts  --      0.4935                 2.5528                 0.8810
 IR Inten    --      2.4955                 1.4266                 7.9062

                     31                     32                     33
                      A                      A                      A
 Frequencies --    706.5181               728.4693               756.4443
 Red. masses --      3.3398                 4.7434                 3.2917
 Frc consts  --      0.9822                 1.4831                 1.1098
 IR Inten    --      0.4739                25.4547                11.3233

                     34                     35                     36
                      A                      A                      A
 Frequencies --    763.0504               810.8474               849.3740
 Red. masses --      7.7204                 1.7710                 2.6155
 Frc consts  --      2.6485                 0.6860                 1.1117
 IR Inten    --      0.3741                 4.4320                 2.0586

                     37                     38                     39
                      A                      A                      A
 Frequencies --    877.8415               887.6177               913.5404
 Red. masses --      1.9977                 2.4169                 2.0141
 Frc consts  --      0.9070                 1.1219                 0.9904
 IR Inten    --      7.4723                 4.5411                 2.5198

                     40                     41                     42
                      A                      A                      A
 Frequencies --    920.1524               942.7799               972.4274
 Red. masses --      1.6308                 2.3181                 2.5512
 Frc consts  --      0.8135                 1.2139                 1.4214
 IR Inten    --      4.5750                 3.5846                13.5389

                     43                     44                     45
                      A                      A                      A
 Frequencies --   1010.5963              1021.5871              1052.8804
 Red. masses --      2.2308                 1.5361                 1.4605
 Frc consts  --      1.3424                 0.9445                 0.9539
 IR Inten    --      3.4074                 6.6978                 1.2388

                     46                     47                     48
                      A                      A                      A
 Frequencies --   1053.8683              1057.2491              1069.9844
 Red. masses --      2.2562                 2.3890                 2.9513
 Frc consts  --      1.4764                 1.5733                 1.9908
 IR Inten    --     23.6618                 4.7794                30.5716

                     49                     50                     51
                      A                      A                      A
 Frequencies --   1077.3929              1098.6711              1104.0816
 Red. masses --      1.5520                 1.9840                 2.6319
 Frc consts  --      1.0614                 1.4110                 1.8903
 IR Inten    --      0.1250                25.4679                18.1293

                     52                     53                     54
                      A                      A                      A
 Frequencies --   1115.7045              1132.2001              1144.0394
 Red. masses --      2.2684                 1.4478                 1.8053
 Frc consts  --      1.6637                 1.0935                 1.3922
 IR Inten    --     12.0000                17.0137                 6.0744

                     55                     56                     57
                      A                      A                      A
 Frequencies --   1160.8355              1201.2458              1209.7745
 Red. masses --      1.7006                 2.0039                 2.7467
 Frc consts  --      1.3502                 1.7037                 2.3685
 IR Inten    --      2.5663                 1.2958                 3.0300

                     58                     59                     60
                      A                      A                      A
 Frequencies --   1223.4539              1273.2340              1285.8867
 Red. masses --      1.6085                 1.1663                 1.2559
 Frc consts  --      1.4185                 1.1140                 1.2235
 IR Inten    --     21.7283                 4.2063                 4.9721

                     61                     62                     63
                      A                      A                      A
 Frequencies --   1293.1954              1310.8189              1328.9428
 Red. masses --      1.4699                 1.2086                 1.3684
 Frc consts  --      1.4484                 1.2235                 1.4238
 IR Inten    --     18.4842                 6.7560                12.9510

                     64                     65                     66
                      A                      A                      A
 Frequencies --   1349.1145              1350.0775              1375.8491
 Red. masses --      3.2906                 1.2419                 1.4536
 Frc consts  --      3.5287                 1.3337                 1.6212
 IR Inten    --      7.8031                 7.3903                30.1140

                     67                     68                     69
                      A                      A                      A
 Frequencies --   1384.3562              1395.3794              1401.4628
 Red. masses --      1.3648                 1.4374                 1.4069
 Frc consts  --      1.5410                 1.6489                 1.6281
 IR Inten    --      3.6919                14.9866                 3.3913

                     70                     71                     72
                      A                      A                      A
 Frequencies --   1403.4543              1409.2714              1426.7389
 Red. masses --      1.5456                 1.6454                 2.1498
 Frc consts  --      1.7937                 1.9253                 2.5783
 IR Inten    --      4.6716                66.6680               143.5889

                     73                     74                     75
                      A                      A                      A
 Frequencies --   1429.9044              1444.3497              1445.2972
 Red. masses --      1.3897                 1.4789                 1.2769
 Frc consts  --      1.6741                 1.8178                 1.5716
 IR Inten    --     13.3461                12.8399                 0.9903

                     76                     77                     78
                      A                      A                      A
 Frequencies --   1450.6357              1481.6058              1500.9675
 Red. masses --      1.7096                 1.4384                 1.0434
 Frc consts  --      2.1197                 1.8603                 1.3850
 IR Inten    --     88.6563                 3.9088                 0.0668

                     79                     80                     81
                      A                      A                      A
 Frequencies --   1501.6396              1505.5650              1508.3699
 Red. masses --      1.0441                 1.1066                 1.0455
 Frc consts  --      1.3871                 1.4779                 1.4014
 IR Inten    --     13.8330                10.6043                 6.6712

                     82                     83                     84
                      A                      A                      A
 Frequencies --   1512.2358              1515.5543              1517.9362
 Red. masses --      1.0771                 1.0968                 1.0929
 Frc consts  --      1.4513                 1.4843                 1.4837
 IR Inten    --      7.7244                15.5626                 5.6563

                     85                     86                     87
                      A                      A                      A
 Frequencies --   1524.8288              1536.6193              1569.8392
 Red. masses --      1.0896                 1.0994                 1.0777
 Frc consts  --      1.4926                 1.5294                 1.5648
 IR Inten    --     14.1517                 2.1990                12.0877

                     88                     89                     90
                      A                      A                      A
 Frequencies --   1747.9455              1785.0703              1851.5642
 Red. masses --      8.5349                12.4460                12.0342
 Frc consts  --     15.3640                23.3663                24.3077
 IR Inten    --     13.9949               497.4112                16.8441

                     91                     92                     93
                      A                      A                      A
 Frequencies --   2991.6801              3003.3723              3022.3323
 Red. masses --      1.0724                 1.0789                 1.0652
 Frc consts  --      5.6550                 5.7338                 5.7330
 IR Inten    --     51.3804                32.0213                22.8336

                     94                     95                     96
                      A                      A                      A
 Frequencies --   3028.2679              3042.9438              3051.6241
 Red. masses --      1.0703                 1.0676                 1.0665
 Frc consts  --      5.7828                 5.8245                 5.8513
 IR Inten    --     31.4747                52.7496                26.6305

                     97                     98                     99
                      A                      A                      A
 Frequencies --   3054.8484              3055.9217              3058.6716
 Red. masses --      1.0373                 1.0375                 1.0829
 Frc consts  --      5.7032                 5.7088                 5.9690
 IR Inten    --      9.6116                13.0375                21.4520

                    100                    101                    102
                      A                      A                      A
 Frequencies --   3068.3153              3073.9398              3090.6289
 Red. masses --      1.0943                 1.0946                 1.0880
 Frc consts  --      6.0700                 6.0941                 6.1231
 IR Inten    --     53.9246                15.2197                19.0710

                    103                    104                    105
                      A                      A                      A
 Frequencies --   3092.8493              3097.6125              3102.2218
 Red. masses --      1.0739                 1.0933                 1.0969
 Frc consts  --      6.0523                 6.1808                 6.2198
 IR Inten    --     21.5004                14.7140               107.1500

                    106                    107                    108
                      A                      A                      A
 Frequencies --   3107.4708              3108.1016              3144.8203
 Red. masses --      1.0993                 1.0993                 1.1025
 Frc consts  --      6.2544                 6.2567                 6.4240
 IR Inten    --      3.2835                10.4330                 4.2140

                    109                    110                    111
                      A                      A                      A
 Frequencies --   3148.8284              3151.3903              3758.2013
 Red. masses --      1.1013                 1.1013                 1.0665
 Frc consts  --      6.4336                 6.4438                 8.8750
 IR Inten    --     24.0261                 4.8837                15.1713

 - Thermochemistry -
 -------------------
 Temperature   298.150 Kelvin.  Pressure   1.00000 Atm.
 Atom     1 has atomic number  6 and mass  12.00000

 Molecular mass:   251.15214 amu.
 Principal axes and moments of inertia in atomic units:
                           1         2         3
     Eigenvalues --  2863.762715611.750606342.99096
           X            0.99995   0.00755  -0.00576
           Y           -0.00748   0.99990   0.01181
           Z            0.00585  -0.01176   0.99991
 This molecule is an asymmetric top.
 Rotational symmetry number  1.
 Warning -- assumption of classical behavior for rotation
           may cause significant error
 Rotational temperatures (Kelvin)      0.03024     0.01543     0.01366
 Rotational constants (GHZ):           0.63020     0.32160     0.28453
 Zero-point vibrational energy     890745.4 (Joules/Mol)
                                  212.89325 (Kcal/Mol)
 Warning -- explicit consideration of  28 degrees of freedom as
           vibrations may cause significant error
 Vibrational temperatures:     49.81    69.45    93.17   114.96   133.95
          (Kelvin)            149.93   182.99   197.12   209.14   251.07
                              281.13   316.82   332.36   365.77   392.24
                              403.56   410.71   472.23   507.31   533.21
                              553.55   614.37   643.58   663.69   692.26
                              754.67   782.24   817.31   947.31   993.83
                             1016.52  1048.10  1088.35  1097.86  1166.63
                             1222.06  1263.02  1277.08  1314.38  1323.89
                             1356.45  1399.11  1454.02  1469.84  1514.86
                             1516.28  1521.15  1539.47  1550.13  1580.74
                             1588.53  1605.25  1628.98  1646.02  1670.18
                             1728.32  1740.60  1760.28  1831.90  1850.10
                             1860.62  1885.98  1912.05  1941.07  1942.46
                             1979.54  1991.78  2007.64  2016.39  2019.26
                             2027.63  2052.76  2057.31  2078.10  2079.46
                             2087.14  2131.70  2159.56  2160.52  2166.17
                             2170.21  2175.77  2180.54  2183.97  2193.89
                             2210.85  2258.65  2514.90  2568.32  2663.99
                             4304.36  4321.18  4348.46  4357.00  4378.12
                             4390.61  4395.25  4396.79  4400.75  4414.62
                             4422.71  4446.73  4449.92  4456.77  4463.41
                             4470.96  4471.86  4524.70  4530.46  4534.15
                             5407.21

 Zero-point correction=                           0.339267 (Hartree/Particle)
 Thermal correction to Energy=                    0.357612
 Thermal correction to Enthalpy=                  0.358556
 Thermal correction to Gibbs Free Energy=         0.292973
 Sum of electronic and zero-point Energies=           -826.323976
 Sum of electronic and thermal Energies=              -826.305631
 Sum of electronic and thermal Enthalpies=            -826.304687
 Sum of electronic and thermal Free Energies=         -826.370269

                     E (Thermal)             CV                S
                      KCal/Mol        Cal/Mol-Kelvin    Cal/Mol-Kelvin
 Total                  224.405             69.056            138.031
 Electronic               0.000              0.000              0.000
 Translational            0.889              2.981             42.463
 Rotational               0.889              2.981             32.988
 Vibrational            222.627             63.094             62.579
 Vibration     1          0.594              1.983              5.546
 Vibration     2          0.595              1.978              4.887
 Vibration     3          0.597              1.971              4.307
 Vibration     4          0.600              1.963              3.893
 Vibration     5          0.602              1.954              3.594
 Vibration     6          0.605              1.946              3.374
 Vibration     7          0.611              1.926              2.988
 Vibration     8          0.614              1.916              2.845
 Vibration     9          0.617              1.908              2.732
 Vibration    10          0.627              1.874              2.386
 Vibration    11          0.636              1.846              2.176
 Vibration    12          0.647              1.810              1.957
 Vibration    13          0.653              1.794              1.871
 Vibration    14          0.665              1.756              1.701
 Vibration    15          0.676              1.724              1.580
 Vibration    16          0.680              1.710              1.531
 Vibration    17          0.683              1.701              1.501
 Vibration    18          0.711              1.619              1.269
 Vibration    19          0.729              1.570              1.155
 Vibration    20          0.743              1.533              1.077
 Vibration    21          0.754              1.503              1.020
 Vibration    22          0.789              1.411              0.868
 Vibration    23          0.806              1.367              0.804
 Vibration    24          0.819              1.336              0.762
 Vibration    25          0.837              1.292              0.707
 Vibration    26          0.879              1.196              0.600
 Vibration    27          0.899              1.154              0.557
 Vibration    28          0.924              1.100              0.508

                           ! Non-Optimized Parameters !
 Normal termination of Gaussian 16 at Sun Dec 13 20:43:12 2020.

 ----------------------------------------------------------------------
 # B3LYP/6-311++G(d,p) empiricaldispersion=gd3bj scf=xqc pop=npa geom=c
 heck
 ----------------------------------------------------------------------

 --------------------------------------
 CID_65903023_JID_8635_Energie_neutraal
 --------------------------------------
 Structure from the checkpoint file:  "JID_8635.chk"
 Charge =  0 Multiplicity = 1

 SCF Done:  E(RB3LYP) =  -826.901907761     A.U. after   15 cycles
 Normal termination of Gaussian 16 at Sun Dec 13 20:52:38 2020.

 ----------------------------------------------------------------------
 # B3LYP/6-311++G(d,p) empiricaldispersion=gd3bj scf=xqc pop=npa geom=c
 heck
 ----------------------------------------------------------------------

 ------------------------------------
 CID_65903023_JID_8635_Energie_kation
 ------------------------------------
 Structure from the checkpoint file:  "JID_8635.chk"
 Charge =  1 Multiplicity = 2

 SCF Done:  E(UB3LYP) =  -826.578616508     A.U. after   26 cycles
 Normal termination of Gaussian 16 at Sun Dec 13 21:15:24 2020.
 Gaussian 16:  ES64L-G16RevA.03 25-Dec-2016

 ----------------------------------------------------------------------
 # B3LYP/6-311++G(d,p) empiricaldispersion=gd3bj scf=xqc pop=npa geom=c
 heck
 ----------------------------------------------------------------------

 -----------------------------------
 CID_65903023_JID_8635_Energie_anion
 -----------------------------------
 Structure from the checkpoint file:  "JID_8635.chk"
 Charge = -1 Multiplicity = 2

                         Standard orientation:
 ---------------------------------------------------------------------
 Center     Atomic      Atomic             Coordinates (Angstroms)
 Number     Number       Type             X           Y           Z
 ---------------------------------------------------------------------
      1          6           0       -3.156250   -2.056454    1.152974
      2          6           0       -2.435255   -1.048677    0.326531
      3          6           0       -2.819822    0.143905   -0.161344
      4          6           0       -1.668047    0.721429   -0.937708
      5          8           0       -1.654374    1.760277   -1.568360
      6          7           0       -0.599245   -0.173404   -0.814289
      7          6           0       -1.016461   -1.298877   -0.110709
      8          8           0       -0.355945   -2.299884    0.104221
      9          6           0        0.683357   -0.005782   -1.492835
     10          6           0        1.800688    0.746410   -0.740184
     11          6           0        1.376490    2.143789   -0.236446
     12          6           0        0.655077    2.137406    1.120661
     13          6           0        1.466375    1.389657    2.183584
     14          6           0        1.793460   -0.034963    1.723948
     15          6           0        2.538719   -0.032916    0.379015
     16          6           0        2.919797   -1.454144   -0.023865
     17          8           0        3.588471   -1.407953   -1.287784
     18          6           0       -4.104945    0.889000   -0.052272
     19          1           0       -4.192159   -1.762144    1.338375
     20          1           0       -2.653392   -2.193115    2.117914
     21          1           0       -3.148121   -3.034114    0.657909
     22          1           0        1.032012   -0.997623   -1.785388
     23          1           0        0.459232    0.555605   -2.404350
     24          1           0        2.547319    0.897534   -1.528836
     25          1           0        2.286407    2.751013   -0.129600
     26          1           0        0.753831    2.636217   -0.990983
     27          1           0       -0.329951    1.665680    1.031154
     28          1           0        0.471780    3.171463    1.438170
     29          1           0        0.921188    1.366879    3.135547
     30          1           0        2.405089    1.931251    2.371325
     31          1           0        0.871807   -0.622334    1.641382
     32          1           0        2.411112   -0.541184    2.477805
     33          1           0        3.479268    0.517516    0.536681
     34          1           0        3.579438   -1.878274    0.750337
     35          1           0        2.020603   -2.080866   -0.075680
     36          1           0        3.759885   -2.321206   -1.560959
     37          1           0       -4.861849    0.314735    0.487609
     38          1           0       -3.953064    1.842825    0.467038
     39          1           0       -4.490050    1.135746   -1.048147
 ---------------------------------------------------------------------

 SCF Done:  E(UB3LYP) =  -826.930414031     A.U. after   23 cycles

 The electronic state is 2-A.
 Alpha  occ. eigenvalues --  -19.02337 -18.92551 -18.92332 -14.18257 -10.09913
 Alpha  occ. eigenvalues --  -10.08866 -10.08678 -10.06826 -10.05846 -10.05420
 Alpha  occ. eigenvalues --  -10.05144 -10.04815 -10.04286 -10.04264 -10.03264
 Alpha  occ. eigenvalues --  -10.03225 -10.00578 -10.00502  -0.92082  -0.88872
 Alpha  occ. eigenvalues --   -0.86904  -0.78316  -0.72137  -0.67166  -0.64798
 Alpha  occ. eigenvalues --   -0.63577  -0.59362  -0.58323  -0.55289  -0.51885
 Alpha  occ. eigenvalues --   -0.48688  -0.47296  -0.46861  -0.42589  -0.40751
 Alpha  occ. eigenvalues --   -0.40209  -0.38460  -0.36136  -0.35364  -0.33682
 Alpha  occ. eigenvalues --   -0.32238  -0.31941  -0.30506  -0.30207  -0.29059
 Alpha  occ. eigenvalues --   -0.28971  -0.28062  -0.27479  -0.26783  -0.26710
 Alpha  occ. eigenvalues --   -0.26418  -0.26119  -0.24911  -0.24266  -0.23616
 Alpha  occ. eigenvalues --   -0.23049  -0.22668  -0.22412  -0.21994  -0.21430
 Alpha  occ. eigenvalues --   -0.19439  -0.18690  -0.18290  -0.17140  -0.12526
 Alpha  occ. eigenvalues --   -0.11393  -0.09216  -0.08908   0.03712
 Alpha virt. eigenvalues --    0.07312   0.08221   0.08947   0.09491   0.10144
 Alpha virt. eigenvalues --    0.10632   0.11343   0.11634   0.12282   0.12962
 Alpha virt. eigenvalues --    0.13386   0.13816   0.14165   0.14277   0.14648

  Beta  occ. eigenvalues --  -19.02336 -18.92104 -18.91861 -14.18366 -10.09913
  Beta  occ. eigenvalues --  -10.08593 -10.08415 -10.06824 -10.05846 -10.05419
  Beta  occ. eigenvalues --  -10.05148 -10.04816 -10.04285 -10.04263 -10.03289
  Beta  occ. eigenvalues --  -10.03250 -10.00303 -10.00224  -0.92081  -0.88205
  Beta  occ. eigenvalues --   -0.86079  -0.78019  -0.72106  -0.66751  -0.64771
  Beta  occ. eigenvalues --   -0.63510  -0.59077  -0.58257  -0.55250  -0.51770
  Beta  occ. eigenvalues --   -0.48639  -0.46868  -0.46385  -0.42538  -0.40741
  Beta  occ. eigenvalues --   -0.39739  -0.38315  -0.36052  -0.35264  -0.33525
  Beta  occ. eigenvalues --   -0.32130  -0.31852  -0.30477  -0.29411  -0.28783
  Beta  occ. eigenvalues --   -0.28552  -0.28005  -0.27127  -0.26600  -0.26536
  Beta  occ. eigenvalues --   -0.26046  -0.25924  -0.24823  -0.24106  -0.23465
  Beta  occ. eigenvalues --   -0.22890  -0.22487  -0.22004  -0.21664  -0.19599
  Beta  occ. eigenvalues --   -0.19048  -0.18683  -0.18267  -0.17130  -0.10965
  Beta  occ. eigenvalues --   -0.10393  -0.08464  -0.08083
  Beta virt. eigenvalues --    0.07295   0.08201   0.08914   0.09460   0.10109
  Beta virt. eigenvalues --    0.10610   0.11008   0.11385   0.11615   0.12267
  Beta virt. eigenvalues --    0.12947   0.13364   0.13829   0.14236   0.14294

 Mulliken charges and spin densities:
               1          2
     1  C   -0.762210   0.002243
     2  C    0.567873   0.162864
     3  C    0.543469   0.151840
     4  C   -0.491922   0.179739
     5  O   -0.387968   0.168807
     6  N    0.224605  -0.074395
     7  C   -0.559110   0.190762
     8  O   -0.389553   0.160468
     9  C   -0.457801  -0.012481
    10  C    0.692340   0.004068
    11  C   -0.694134   0.000497
    12  C   -0.111446  -0.000358
    13  C   -0.595408  -0.005056
    14  C   -0.134690   0.011549
    15  C   -0.030508  -0.007123
    16  C   -0.770543   0.005778
    17  O   -0.255683   0.000077
    18  C   -0.621290   0.003074
    19  H    0.096778  -0.000020
    20  H    0.132116   0.014757
    21  H    0.143428   0.013770
    22  H    0.176864   0.000365
    23  H    0.181944  -0.001351
    24  H    0.224108  -0.000040
    25  H    0.105385   0.000872
    26  H    0.207424   0.003184
    27  H    0.107064  -0.001828
    28  H    0.147777   0.001601
    29  H    0.151154   0.000515
    30  H    0.085993   0.001866
    31  H    0.184095  -0.005491
    32  H    0.145531   0.000794
    33  H    0.171790   0.001302
    34  H    0.110561   0.000157
    35  H    0.249710  -0.001942
    36  H    0.235671   0.000090
    37  H    0.095170   0.000011
    38  H    0.136820   0.015950
    39  H    0.144597   0.013086
 Sum of Mulliken charges =  -1.00000   1.00000

 Dipole moment (field-independent basis, Debye):
    X=              4.6697    Y=             -0.2050    Z=              2.3077  Tot=              5.2128
 Quadrupole moment (field-independent basis, Debye-Ang):
   XX=           -139.6272   YY=           -134.5265   ZZ=           -123.6776
   XY=             -0.6858   XZ=             -3.4131   YZ=              8.6020

 Summary of Natural Population Analysis:

                                       Natural Population
                Natural  -----------------------------------------------
    Atom  No    Charge         Core      Valence    Rydberg      Total
 -----------------------------------------------------------------------
      C    1   -0.29301      0.99959     2.28849    0.00493     3.29301
      C    2    0.00046      0.99940     1.99152    0.00861     2.99954
      C    3    0.00268      0.99939     1.98949    0.00843     2.99732
      C    4    0.37351      0.99963     1.60439    0.02247     2.62649
      O    5   -0.27733      0.99987     3.27143    0.00602     4.27733
      N    6   -0.29659      0.99959     2.78490    0.01211     3.79659
      C    7    0.37720      0.99962     1.60128    0.02190     2.62280
      O    8   -0.28910      0.99987     3.28303    0.00620     4.28910
      C    9   -0.08622      0.99959     2.07511    0.01152     3.08622
      C   10   -0.10881      0.99957     2.09985    0.00939     3.10881
      C   11   -0.19206      0.99962     2.18438    0.00806     3.19206
      C   12   -0.19265      0.99963     2.18527    0.00775     3.19265
      C   13   -0.18482      0.99964     2.17834    0.00684     3.18482
      C   14   -0.19517      0.99961     2.18751    0.00805     3.19517
      C   15   -0.11277      0.99957     2.10269    0.01051     3.11277
      C   16   -0.01861      0.99954     2.00823    0.01083     3.01861
      O   17   -0.37523      0.99989     3.36948    0.00585     4.37523
      C   18   -0.29767      0.99964     2.29267    0.00536     3.29767
      H   19    0.09086      0.00000     0.40782    0.00131     0.40914
      H   20    0.10145      0.00000     0.39706    0.00149     0.39855
      H   21    0.10318      0.00000     0.39533    0.00149     0.39682
      H   22    0.10371      0.00000     0.39494    0.00135     0.39629
      H   23    0.10298      0.00000     0.39574    0.00128     0.39702
      H   24    0.10095      0.00000     0.39766    0.00139     0.39905
      H   25    0.08596      0.00000     0.41281    0.00123     0.41404
      H   26    0.11418      0.00000     0.38465    0.00117     0.38582
      H   27    0.10892      0.00000     0.38984    0.00125     0.39108
      H   28    0.09047      0.00000     0.40835    0.00118     0.40953
      H   29    0.09397      0.00000     0.40495    0.00109     0.40603
      H   30    0.08378      0.00000     0.41478    0.00144     0.41622
      H   31    0.11306      0.00000     0.38558    0.00136     0.38694
      H   32    0.08966      0.00000     0.40908    0.00126     0.41034
      H   33    0.08889      0.00000     0.40940    0.00171     0.41111
      H   34    0.06837      0.00000     0.43008    0.00155     0.43163
      H   35    0.10337      0.00000     0.39520    0.00143     0.39663
      H   36    0.22472      0.00000     0.27274    0.00253     0.27528
      H   37    0.09133      0.00000     0.40767    0.00101     0.40867
      H   38    0.10237      0.00000     0.39646    0.00117     0.39763
      H   39    0.10399      0.00000     0.39482    0.00118     0.39601
 =======================================================================
   * Total *    0.00000     17.99327    49.80303    0.20369    68.00000

 Normal termination of Gaussian 16 at Sun Dec 13 21:34:34 2020.
