 Gaussian 16, Revision A.03,

 -----------------------------------------------------------
 # opt freq B3LYP/6-31G(d) empiricaldispersion=gd3bj scf=xqc
 -----------------------------------------------------------

 -------------------------------
 CID_130669264_JID_2647_neutraal
 -------------------------------
 Symbolic Z-matrix:
 Charge =  0 Multiplicity = 1

 SCF Done:  E(RB3LYP) =  -1220.43204811     A.U. after   13 cycles
 SCF Done:  E(RB3LYP) =  -1220.43537692     A.U. after   12 cycles
 SCF Done:  E(RB3LYP) =  -1220.43545542     A.U. after   13 cycles
 SCF Done:  E(RB3LYP) =  -1220.43678083     A.U. after   12 cycles
 SCF Done:  E(RB3LYP) =  -1220.43749388     A.U. after   11 cycles
 SCF Done:  E(RB3LYP) =  -1220.43782741     A.U. after   12 cycles
 SCF Done:  E(RB3LYP) =  -1220.43802940     A.U. after   12 cycles
 SCF Done:  E(RB3LYP) =  -1220.43817564     A.U. after   12 cycles
 SCF Done:  E(RB3LYP) =  -1220.43820725     A.U. after   10 cycles
 SCF Done:  E(RB3LYP) =  -1220.43822685     A.U. after   11 cycles
 SCF Done:  E(RB3LYP) =  -1220.43825099     A.U. after   11 cycles
 SCF Done:  E(RB3LYP) =  -1220.43825285     A.U. after    8 cycles
 SCF Done:  E(RB3LYP) =  -1220.43825349     A.U. after    7 cycles
 SCF Done:  E(RB3LYP) =  -1220.43825391     A.U. after    8 cycles
 SCF Done:  E(RB3LYP) =  -1220.43825389     A.U. after    7 cycles
 Optimization completed.
    -- Stationary point found.
 Normal termination of Gaussian 16 at Wed Dec  9 17:27:02 2020.

 --------------------------------------------------------------------
 #N Geom=AllCheck Guess=TCheck SCRF=Check GenChk RB3LYP/6-31G(d) Freq
 --------------------------------------------------------------------

 Structure from the checkpoint file:  "JID_2647.chk"
 -------------------------------
 CID_130669264_JID_2647_neutraal
 -------------------------------
 Charge =  0 Multiplicity = 1

 SCF Done:  E(RB3LYP) =  -1220.43825389     A.U. after    1 cycles

  Exact polarizability: 133.003   6.920 138.061  -5.606   4.432 115.115
 Approx polarizability: 170.051   8.467 228.482  -8.382  14.369 180.030

                      1                      2                      3
                      A                      A                      A
 Frequencies --     30.7002                50.5476                69.1633
 Red. masses --      4.1157                 6.4473                 5.1057
 Frc consts  --      0.0023                 0.0097                 0.0144
 IR Inten    --      1.9233                 5.5290                 0.3824

                      4                      5                      6
                      A                      A                      A
 Frequencies --    121.6049               150.0683               183.0288
 Red. masses --      3.3932                 3.4436                 2.7567
 Frc consts  --      0.0296                 0.0457                 0.0544
 IR Inten    --      1.5438                 6.5394                 2.5000

                      7                      8                      9
                      A                      A                      A
 Frequencies --    202.7125               215.2539               255.9071
 Red. masses --      3.1551                 1.0686                 3.6847
 Frc consts  --      0.0764                 0.0292                 0.1422
 IR Inten    --      0.2675                 0.6755                 1.8919

                     10                     11                     12
                      A                      A                      A
 Frequencies --    290.0942               319.4361               337.6643
 Red. masses --      3.3464                 2.2181                 2.8061
 Frc consts  --      0.1659                 0.1333                 0.1885
 IR Inten    --      2.3523                 0.3685                 1.0734

                     13                     14                     15
                      A                      A                      A
 Frequencies --    364.9229               384.4807               389.1827
 Red. masses --      3.8014                 3.1625                 2.8649
 Frc consts  --      0.2983                 0.2754                 0.2557
 IR Inten    --      0.4199                 2.8701                 1.5873

                     16                     17                     18
                      A                      A                      A
 Frequencies --    480.6236               503.6517               594.3076
 Red. masses --      2.0596                 2.7484                 2.9350
 Frc consts  --      0.2803                 0.4108                 0.6108
 IR Inten    --      1.3657                12.9919                10.8233

                     19                     20                     21
                      A                      A                      A
 Frequencies --    618.3436               665.9535               676.8372
 Red. masses --      1.7815                 4.6328                 4.3948
 Frc consts  --      0.4013                 1.2105                 1.1862
 IR Inten    --     39.1579                 3.3563                 6.1329

                     22                     23                     24
                      A                      A                      A
 Frequencies --    741.6198               756.5640               801.7335
 Red. masses --      1.7140                 3.3982                 1.9773
 Frc consts  --      0.5554                 1.1460                 0.7488
 IR Inten    --    131.0786                 2.4014                 3.2840

                     25                     26                     27
                      A                      A                      A
 Frequencies --    828.8978               855.6615               883.2549
 Red. masses --      1.7843                 1.4209                 2.0919
 Frc consts  --      0.7223                 0.6129                 0.9615
 IR Inten    --     27.5310                 6.1112                 5.3966

                     28                     29                     30
                      A                      A                      A
 Frequencies --    907.8818               953.9232               972.7825
 Red. masses --      2.4066                 2.1832                 2.0416
 Frc consts  --      1.1687                 1.1705                 1.1383
 IR Inten    --      0.7352                 3.8910                11.4470

                     31                     32                     33
                      A                      A                      A
 Frequencies --    996.0485              1053.0243              1065.6425
 Red. masses --      2.1093                 2.9138                 3.1369
 Frc consts  --      1.2330                 1.9037                 2.0988
 IR Inten    --      9.4227                10.7487                10.6168

                     34                     35                     36
                      A                      A                      A
 Frequencies --   1084.7458              1112.2243              1127.3615
 Red. masses --      2.1335                 1.7725                 1.0522
 Frc consts  --      1.4791                 1.2919                 0.7879
 IR Inten    --      1.4343                 3.3035                 0.1696

                     37                     38                     39
                      A                      A                      A
 Frequencies --   1143.7400              1157.8247              1180.2161
 Red. masses --      2.1685                 1.3453                 1.7226
 Frc consts  --      1.6713                 1.0625                 1.4137
 IR Inten    --      7.0700                 2.6229                54.5871

                     40                     41                     42
                      A                      A                      A
 Frequencies --   1217.8071              1236.7845              1262.0436
 Red. masses --      1.5417                 1.8408                 1.3348
 Frc consts  --      1.3471                 1.6590                 1.2526
 IR Inten    --     67.4104               141.6129                 1.1470

                     43                     44                     45
                      A                      A                      A
 Frequencies --   1282.3908              1305.2848              1317.9545
 Red. masses --      1.2090                 1.2309                 1.2821
 Frc consts  --      1.1715                 1.2356                 1.3121
 IR Inten    --      7.6771                27.0279                 2.4364

                     46                     47                     48
                      A                      A                      A
 Frequencies --   1341.5049              1347.4802              1386.6776
 Red. masses --      1.2570                 1.2829                 1.3418
 Frc consts  --      1.3328                 1.3725                 1.5201
 IR Inten    --     12.9860                 9.2989                19.4582

                     49                     50                     51
                      A                      A                      A
 Frequencies --   1401.1738              1405.1461              1422.8283
 Red. masses --      1.4930                 1.3856                 1.4941
 Frc consts  --      1.7270                 1.6119                 1.7822
 IR Inten    --     24.2072                 8.3237                22.1006

                     52                     53                     54
                      A                      A                      A
 Frequencies --   1442.5652              1489.0217              1494.4165
 Red. masses --      1.5360                 1.2090                 1.1057
 Frc consts  --      1.8832                 1.5793                 1.4549
 IR Inten    --     45.8896                48.1086                 2.1527

                     55                     56                     57
                      A                      A                      A
 Frequencies --   1498.2067              1503.3277              1511.2973
 Red. masses --      1.0971                 1.1955                 1.0933
 Frc consts  --      1.4509                 1.5919                 1.4712
 IR Inten    --      7.7633                31.7359                 7.2524

                     58                     59                     60
                      A                      A                      A
 Frequencies --   1523.3747              1529.2669              1533.3326
 Red. masses --      1.0708                 1.2505                 1.2506
 Frc consts  --      1.4640                 1.7230                 1.7324
 IR Inten    --      5.2878                40.1707                26.1382

                     61                     62                     63
                      A                      A                      A
 Frequencies --   1547.3604              1601.6672              3022.9643
 Red. masses --      1.0919                 1.6796                 1.0715
 Frc consts  --      1.5403                 2.5387                 5.7689
 IR Inten    --     47.3401               219.4705                 9.2568

                     64                     65                     66
                      A                      A                      A
 Frequencies --   3026.1155              3038.9623              3043.1417
 Red. masses --      1.0716                 1.0612                 1.0419
 Frc consts  --      5.7816                 5.7742                 5.6847
 IR Inten    --     24.6745                40.6164                47.8747

                     67                     68                     69
                      A                      A                      A
 Frequencies --   3057.8627              3064.8542              3073.4022
 Red. masses --      1.0685                 1.0968                 1.0610
 Frc consts  --      5.8864                 6.0702                 5.9046
 IR Inten    --     11.6812                13.7013                27.8000

                     70                     71                     72
                      A                      A                      A
 Frequencies --   3074.0043              3085.7330              3111.4515
 Red. masses --      1.0703                 1.0993                 1.0944
 Frc consts  --      5.9587                 6.1669                 6.2426
 IR Inten    --     45.5863                45.4139                27.7834

                     73                     74                     75
                      A                      A                      A
 Frequencies --   3121.0154              3126.3605              3144.1526
 Red. masses --      1.1034                 1.1068                 1.0972
 Frc consts  --      6.3327                 6.3736                 6.3904
 IR Inten    --     17.3266                 6.8458                25.1017

                     76                     77                     78
                      A                      A                      A
 Frequencies --   3152.4777              3585.2924              3623.6792
 Red. masses --      1.1034                 1.0752                 1.0770
 Frc consts  --      6.4610                 8.1428                 8.3326
 IR Inten    --      4.9875                22.9669                43.2522

 - Thermochemistry -
 -------------------
 Temperature   298.150 Kelvin.  Pressure   1.00000 Atm.
 Atom     1 has atomic number  6 and mass  12.00000

 Molecular mass:   204.07549 amu.
 Principal axes and moments of inertia in atomic units:
                           1         2         3
     Eigenvalues --  1724.891764247.785404526.42964
           X            0.99871   0.04977  -0.00998
           Y           -0.04996   0.99857  -0.01927
           Z            0.00901   0.01975   0.99976
 This molecule is an asymmetric top.
 Rotational symmetry number  1.
 Warning -- assumption of classical behavior for rotation
           may cause significant error
 Rotational temperatures (Kelvin)      0.05021     0.02039     0.01914
 Rotational constants (GHZ):           1.04629     0.42487     0.39871
 Zero-point vibrational energy     642873.2 (Joules/Mol)
                                  153.65039 (Kcal/Mol)
 Warning -- explicit consideration of  19 degrees of freedom as
           vibrations may cause significant error
 Vibrational temperatures:     44.17    72.73    99.51   174.96   215.91
          (Kelvin)            263.34   291.66   309.70   368.19   417.38
                              459.60   485.82   525.04   553.18   559.95
                              691.51   724.64   855.08   889.66   958.16
                              973.82  1067.03  1088.53  1153.52  1192.60
                             1231.11  1270.81  1306.24  1372.48  1399.62
                             1433.09  1515.07  1533.22  1560.71  1600.24
                             1622.02  1645.59  1665.85  1698.07  1752.15
                             1779.46  1815.80  1845.07  1878.01  1896.24
                             1930.13  1938.72  1995.12  2015.98  2021.69
                             2047.13  2075.53  2142.37  2150.13  2155.59
                             2162.95  2174.42  2191.80  2200.27  2206.12
                             2226.31  2304.44  4349.37  4353.91  4372.39
                             4378.40  4399.58  4409.64  4421.94  4422.81
                             4439.68  4476.68  4490.45  4498.14  4523.73
                             4535.71  5158.44  5213.67

 Zero-point correction=                           0.244857 (Hartree/Particle)
 Thermal correction to Energy=                    0.257908
 Thermal correction to Enthalpy=                  0.258853
 Thermal correction to Gibbs Free Energy=         0.204246
 Sum of electronic and zero-point Energies=          -1220.193396
 Sum of electronic and thermal Energies=             -1220.180346
 Sum of electronic and thermal Enthalpies=           -1220.179401
 Sum of electronic and thermal Free Energies=        -1220.234008

                     E (Thermal)             CV                S
                      KCal/Mol        Cal/Mol-Kelvin    Cal/Mol-Kelvin
 Total                  161.840             48.929            114.930
 Electronic               0.000              0.000              0.000
 Translational            0.889              2.981             41.844
 Rotational               0.889              2.981             31.873
 Vibrational            160.062             42.967             41.213
 Vibration     1          0.594              1.984              5.784
 Vibration     2          0.595              1.977              4.796
 Vibration     3          0.598              1.969              4.177
 Vibration     4          0.609              1.931              3.075
 Vibration     5          0.618              1.903              2.671
 Vibration     6          0.631              1.863              2.297
 Vibration     7          0.639              1.836              2.108
 Vibration     8          0.645              1.818              1.999
 Vibration     9          0.666              1.753              1.690
 Vibration    10          0.686              1.692              1.473
 Vibration    11          0.705              1.636              1.313
 Vibration    12          0.718              1.600              1.223
 Vibration    13          0.738              1.544              1.101
 Vibration    14          0.753              1.503              1.021
 Vibration    15          0.757              1.493              1.003
 Vibration    16          0.837              1.293              0.708
 Vibration    17          0.859              1.242              0.649
 Vibration    18          0.952              1.044              0.460
 Vibration    19          0.978              0.993              0.419

 Optimization completed.
    -- Stationary point found.
 Normal termination of Gaussian 16 at Wed Dec  9 17:34:43 2020.

 ----------------------------------------------------------------------
 # B3LYP/6-311++G(d,p) empiricaldispersion=gd3bj scf=xqc pop=npa geom=c
 heck
 ----------------------------------------------------------------------

 ---------------------------------------
 CID_130669264_JID_2647_Energie_neutraal
 ---------------------------------------
 Structure from the checkpoint file:  "JID_2647.chk"
 Charge =  0 Multiplicity = 1

 SCF Done:  E(RB3LYP) =  -1220.61342513     A.U. after   14 cycles
 Normal termination of Gaussian 16 at Wed Dec  9 17:37:47 2020.

 ----------------------------------------------------------------------
 # B3LYP/6-311++G(d,p) empiricaldispersion=gd3bj scf=xqc pop=npa geom=c
 heck
 ----------------------------------------------------------------------

 -------------------------------------
 CID_130669264_JID_2647_Energie_kation
 -------------------------------------
 Structure from the checkpoint file:  "JID_2647.chk"
 Charge =  1 Multiplicity = 2

 SCF Done:  E(UB3LYP) =  -1220.33499414     A.U. after   25 cycles
 Normal termination of Gaussian 16 at Wed Dec  9 17:46:01 2020.
 Gaussian 16:  ES64L-G16RevA.03 25-Dec-2016

 ----------------------------------------------------------------------
 # B3LYP/6-311++G(d,p) empiricaldispersion=gd3bj scf=xqc pop=npa geom=c
 heck
 ----------------------------------------------------------------------

 ------------------------------------
 CID_130669264_JID_2647_Energie_anion
 ------------------------------------
 Structure from the checkpoint file:  "JID_2647.chk"
 Charge = -1 Multiplicity = 2

                         Standard orientation:
 ---------------------------------------------------------------------
 Center     Atomic      Atomic             Coordinates (Angstroms)
 Number     Number       Type             X           Y           Z
 ---------------------------------------------------------------------
      1          6           0        3.101928    1.839849   -0.102630
      2          7           0        2.551437    0.645517   -0.728829
      3          6           0        2.056970   -0.441782   -0.081699
      4         16           0        2.051430   -1.964485   -0.801714
      5          7           0        1.577991   -0.245614    1.193722
      6          6           0        0.625234    0.814078    1.559311
      7          6           0       -0.796133    0.640638    0.984516
      8          6           0       -1.381388   -0.741432    1.322637
      9          6           0       -2.850944   -0.898713    0.908906
     10          6           0       -3.061406   -0.715599   -0.594753
     11         16           0       -2.558989    0.951455   -1.172387
     12          6           0       -0.843249    0.909206   -0.526060
     13          1           0        2.413541    2.692879   -0.151943
     14          1           0        4.025336    2.116918   -0.618896
     15          1           0        3.337168    1.632926    0.944322
     16          1           0        2.868912    0.428240   -1.663287
     17          1           0        1.331529   -1.140482    1.599622
     18          1           0        0.572207    0.811101    2.653793
     19          1           0        1.024815    1.786496    1.266594
     20          1           0       -1.414158    1.407027    1.474688
     21          1           0       -0.786657   -1.514301    0.816314
     22          1           0       -1.288985   -0.921233    2.402767
     23          1           0       -3.200127   -1.899968    1.194743
     24          1           0       -3.470038   -0.172656    1.450433
     25          1           0       -2.497642   -1.469180   -1.157398
     26          1           0       -4.117396   -0.819141   -0.861313
     27          1           0       -0.408381    1.885054   -0.765100
     28          1           0       -0.281248    0.148017   -1.075341
 ---------------------------------------------------------------------

 SCF Done:  E(UB3LYP) =  -1220.60530344     A.U. after   31 cycles

 The electronic state is 2-A.
 Alpha  occ. eigenvalues --  -88.74334 -88.69152 -14.25204 -14.24406 -10.18756
 Alpha  occ. eigenvalues --  -10.11379 -10.10975 -10.10666 -10.09956 -10.08846
 Alpha  occ. eigenvalues --  -10.08571 -10.07726  -7.82961  -7.77936  -5.79342
 Alpha  occ. eigenvalues --   -5.79011  -5.78325  -5.74347  -5.73771  -5.73463
 Alpha  occ. eigenvalues --   -0.89152  -0.81790  -0.75037  -0.68920  -0.66328
 Alpha  occ. eigenvalues --   -0.65438  -0.59829  -0.57469  -0.53604  -0.52020
 Alpha  occ. eigenvalues --   -0.50818  -0.46891  -0.40918  -0.39992  -0.39239
 Alpha  occ. eigenvalues --   -0.38152  -0.36352  -0.35678  -0.35417  -0.34181
 Alpha  occ. eigenvalues --   -0.32291  -0.31174  -0.30219  -0.27803  -0.27466
 Alpha  occ. eigenvalues --   -0.26918  -0.26518  -0.25989  -0.24270  -0.22808
 Alpha  occ. eigenvalues --   -0.21044  -0.16547  -0.13151  -0.12882  -0.11342
 Alpha  occ. eigenvalues --    0.04043
 Alpha virt. eigenvalues --    0.06045   0.06644   0.07674   0.07854   0.08696
 Alpha virt. eigenvalues --    0.09034   0.09209   0.10537   0.10915   0.11262
 Alpha virt. eigenvalues --    0.11811   0.12051   0.12725   0.13260   0.13361

  Beta  occ. eigenvalues --  -88.74331 -88.69150 -14.25190 -14.24394 -10.18751
  Beta  occ. eigenvalues --  -10.11342 -10.10973 -10.10587 -10.09937 -10.08839
  Beta  occ. eigenvalues --  -10.08560 -10.07706  -7.82958  -7.77934  -5.79337
  Beta  occ. eigenvalues --   -5.79007  -5.78322  -5.74343  -5.73769  -5.73461
  Beta  occ. eigenvalues --   -0.89122  -0.81754  -0.75014  -0.68886  -0.66299
  Beta  occ. eigenvalues --   -0.65396  -0.59744  -0.57412  -0.53565  -0.51987
  Beta  occ. eigenvalues --   -0.50779  -0.46856  -0.40880  -0.39937  -0.39138
  Beta  occ. eigenvalues --   -0.38102  -0.36318  -0.35634  -0.35362  -0.34152
  Beta  occ. eigenvalues --   -0.32263  -0.31140  -0.30161  -0.27774  -0.27426
  Beta  occ. eigenvalues --   -0.26879  -0.26484  -0.25959  -0.24238  -0.22770
  Beta  occ. eigenvalues --   -0.21023  -0.16516  -0.13138  -0.12866  -0.11332
  Beta virt. eigenvalues --    0.06279   0.07053   0.07168   0.08142   0.08269
  Beta virt. eigenvalues --    0.09280   0.09464   0.09684   0.10781   0.11368
  Beta virt. eigenvalues --    0.11550   0.12219   0.12370   0.12993   0.13355

 Mulliken charges and spin densities:
               1          2
     1  C    1.623833  -1.992738
     2  N   -0.373908   0.283307
     3  C   -0.354911   0.185826
     4  S   -0.423982  -0.220705
     5  N   -0.065646   0.126335
     6  C    1.446710  -1.879488
     7  C   -0.575759   1.298237
     8  C   -0.311353  -0.308141
     9  C   -0.245393  -0.122228
    10  C   -0.344153  -0.146664
    11  S   -0.001374  -0.121156
    12  C    0.482517  -0.993978
    13  H   -0.640389   0.823785
    14  H   -0.896768   1.065946
    15  H   -0.315075   0.502152
    16  H    0.164910   0.126959
    17  H    0.146379   0.104218
    18  H   -0.823500   1.039285
    19  H    0.316296  -0.160653
    20  H   -0.194987   0.402334
    21  H    0.143467  -0.016763
    22  H   -0.204428   0.374537
    23  H   -0.037153   0.192186
    24  H    0.010844   0.107816
    25  H    0.157274  -0.002920
    26  H    0.167932   0.047143
    27  H    0.042227   0.178614
    28  H    0.106391   0.106752
 Sum of Mulliken charges =  -1.00000   1.00000

 Dipole moment (field-independent basis, Debye):
    X=             -6.4518    Y=             -4.0913    Z=             -1.6784  Tot=              7.8219
 Quadrupole moment (field-independent basis, Debye-Ang):
   XX=           -153.6561   YY=           -140.3701   ZZ=           -133.8965
   XY=             -7.1587   XZ=              4.1365   YZ=             -2.2053

 Summary of Natural Population Analysis:

                                       Natural Population
                Natural  -----------------------------------------------
    Atom  No    Charge         Core      Valence    Rydberg      Total
 -----------------------------------------------------------------------
      C    1   -0.18223      0.99963     2.17393    0.00866     3.18223
      N    2   -0.31117      0.99963     2.79789    0.01365     3.81117
      C    3    0.15341      0.99963     1.82181    0.02514     2.84659
      S    4   -0.15303      4.99956     3.14146    0.01200     8.15303
      N    5   -0.32572      0.99965     2.81268    0.01340     3.82572
      C    6   -0.08522      0.99957     2.07214    0.01351     3.08522
      C    7   -0.12406      0.99957     2.11160    0.01289     3.12406
      C    8   -0.19933      0.99960     2.18866    0.01107     3.19933
      C    9   -0.19332      0.99962     2.18432    0.00937     3.19332
      C   10   -0.24947      0.99959     2.24076    0.00912     3.24947
      S   11    0.08367      4.99964     2.89994    0.01674     7.91633
      C   12   -0.25284      0.99956     2.24123    0.01205     3.25284
      H   13    0.09796      0.00000     0.39919    0.00285     0.40204
      H   14    0.10536      0.00000     0.39115    0.00349     0.39464
      H   15    0.10391      0.00000     0.39402    0.00206     0.39609
      H   16    0.20009      0.00000     0.29796    0.00195     0.29991
      H   17    0.19593      0.00000     0.30183    0.00224     0.30407
      H   18    0.10469      0.00000     0.39279    0.00252     0.39531
      H   19    0.10353      0.00000     0.39405    0.00242     0.39647
      H   20    0.10324      0.00000     0.39423    0.00252     0.39676
      H   21    0.10209      0.00000     0.39640    0.00151     0.39791
      H   22    0.10247      0.00000     0.39609    0.00144     0.39753
      H   23    0.09840      0.00000     0.40064    0.00096     0.40160
      H   24    0.09823      0.00000     0.40037    0.00140     0.40177
      H   25    0.09987      0.00000     0.39874    0.00139     0.40013
      H   26    0.10347      0.00000     0.39560    0.00092     0.39653
      H   27    0.11112      0.00000     0.38766    0.00122     0.38888
      H   28    0.10892      0.00000     0.38953    0.00155     0.39108
 =======================================================================
   * Total *    0.00000     19.99526    34.81670    0.18804    55.00000

 Normal termination of Gaussian 16 at Wed Dec  9 17:55:28 2020.
