 Gaussian 16, Revision A.03,

 -----------------------------------------------------------
 # opt freq B3LYP/6-31G(d) empiricaldispersion=gd3bj scf=xqc
 -----------------------------------------------------------

 -------------------------------
 CID_132398535_JID_1114_neutraal
 -------------------------------
 Symbolic Z-matrix:
 Charge =  0 Multiplicity = 1

 SCF Done:  E(RB3LYP) =  -501.783200677     A.U. after   13 cycles
 SCF Done:  E(RB3LYP) =  -501.793298352     A.U. after   11 cycles
 SCF Done:  E(RB3LYP) =  -501.795085519     A.U. after   10 cycles
 SCF Done:  E(RB3LYP) =  -501.796954127     A.U. after   12 cycles
 SCF Done:  E(RB3LYP) =  -501.797729285     A.U. after   10 cycles
 SCF Done:  E(RB3LYP) =  -501.798037433     A.U. after   11 cycles
 SCF Done:  E(RB3LYP) =  -501.798055032     A.U. after   10 cycles
 SCF Done:  E(RB3LYP) =  -501.798073344     A.U. after    9 cycles
 SCF Done:  E(RB3LYP) =  -501.798073884     A.U. after    7 cycles
 Optimization completed.
    -- Stationary point found.

 1\1\GINC-NODE118\FOpt\RB3LYP\6-31G(d)\C9H14O2\VSC10255\08-Dec-2020\0\\
 # opt freq B3LYP/6-31G(d) empiricaldispersion=gd3bj scf=xqc\\CID_13239
 8535_JID_1114_neutraal\\0,1\C,2.4818298985,0.3793779401,-0.2747401028\
 C,1.5010672363,-0.3847869667,-1.2038668647\C,0.3902486627,-0.169450774
 4,-0.1531402226\C,1.4960512559,0.1401473206,0.8998576541\C,-0.67758069
 93,-1.2102388287,0.1492975909\C,-1.8050253875,-1.2560873238,-0.8658200
 633\C,-1.9501464454,-0.4301745948,0.3845432076\C,-1.5553345469,1.02851
 70731,0.2508864031\O,-0.3462308422,1.0155005056,-0.5044204566\C,-0.331

 Normal termination of Gaussian 16 at Tue Dec  8 19:13:21 2020.

 --------------------------------------------------------------------
 #N Geom=AllCheck Guess=TCheck SCRF=Check GenChk RB3LYP/6-31G(d) Freq
 --------------------------------------------------------------------

 Structure from the checkpoint file:  "JID_1114.chk"
 -------------------------------
 CID_132398535_JID_1114_neutraal
 -------------------------------
 Charge =  0 Multiplicity = 1

 SCF Done:  E(RB3LYP) =  -501.798073884     A.U. after    1 cycles

  Exact polarizability:  97.877   4.694  93.481  -1.116   2.310  85.436
 Approx polarizability: 127.900   5.801 133.619  -0.944   2.337 129.574

                      1                      2                      3
                      A                      A                      A
 Frequencies --     71.4067               113.6134               125.3956
 Red. masses --      3.8635                 2.7589                 3.0713
 Frc consts  --      0.0116                 0.0210                 0.0285
 IR Inten    --      3.9544                 0.5585                 0.2072

                      4                      5                      6
                      A                      A                      A
 Frequencies --    183.1248               213.6085               292.9032
 Red. masses --      3.0732                 2.2607                 2.0822
 Frc consts  --      0.0607                 0.0608                 0.1053
 IR Inten    --      1.1080                 0.5099                 4.7852

                      7                      8                      9
                      A                      A                      A
 Frequencies --    315.2956               355.2646               384.8790
 Red. masses --      2.0355                 2.5787                 2.3526
 Frc consts  --      0.1192                 0.1918                 0.2053
 IR Inten    --     36.8721                 5.5667                26.0759

                     10                     11                     12
                      A                      A                      A
 Frequencies --    403.5371               436.6659               466.0078
 Red. masses --      2.0038                 2.0151                 3.2332
 Frc consts  --      0.1923                 0.2264                 0.4137
 IR Inten    --     62.7779                17.9770                15.0229

                     13                     14                     15
                      A                      A                      A
 Frequencies --    514.0867               653.6147               704.0073
 Red. masses --      3.3048                 3.1819                 2.8139
 Frc consts  --      0.5146                 0.8009                 0.8217
 IR Inten    --      3.3413                14.8909                 2.3293

                     16                     17                     18
                      A                      A                      A
 Frequencies --    707.7493               787.9906               814.3696
 Red. masses --      1.7710                 1.3269                 2.5507
 Frc consts  --      0.5227                 0.4854                 0.9967
 IR Inten    --      2.8797                 0.2306                 9.2264

                     19                     20                     21
                      A                      A                      A
 Frequencies --    872.8522               885.7261               889.7095
 Red. masses --      2.3860                 1.7344                 1.9680
 Frc consts  --      1.0710                 0.8017                 0.9179
 IR Inten    --     17.0368                 3.8416                 1.2457

                     22                     23                     24
                      A                      A                      A
 Frequencies --    936.2860               947.4078               954.7109
 Red. masses --      3.2769                 2.4392                 1.6294
 Frc consts  --      1.6925                 1.2899                 0.8751
 IR Inten    --     11.7215                 1.6749                 2.1401

                     25                     26                     27
                      A                      A                      A
 Frequencies --    974.0737               980.7850              1029.8157
 Red. masses --      2.1029                 1.9079                 1.8567
 Frc consts  --      1.1756                 1.0813                 1.1602
 IR Inten    --      6.7748                20.2698                 1.0440

                     28                     29                     30
                      A                      A                      A
 Frequencies --   1040.7480              1055.9486              1076.2008
 Red. masses --      2.9656                 1.4935                 1.4597
 Frc consts  --      1.8926                 0.9811                 0.9961
 IR Inten    --     63.6734                12.2103                22.4497

                     31                     32                     33
                      A                      A                      A
 Frequencies --   1083.1074              1108.1295              1113.9061
 Red. masses --      2.4819                 1.9711                 1.9130
 Frc consts  --      1.7154                 1.4260                 1.3985
 IR Inten    --      9.0369                32.2232                15.3899

                     34                     35                     36
                      A                      A                      A
 Frequencies --   1120.7502              1163.6125              1177.5609
 Red. masses --      2.5700                 2.3339                 2.6428
 Frc consts  --      1.9020                 1.8619                 2.1591
 IR Inten    --      9.2492                22.5212                16.8002

                     37                     38                     39
                      A                      A                      A
 Frequencies --   1210.8630              1217.7797              1251.5208
 Red. masses --      1.3048                 1.3204                 1.1616
 Frc consts  --      1.1271                 1.1537                 1.0719
 IR Inten    --      4.6612                13.6414                 6.9047

                     40                     41                     42
                      A                      A                      A
 Frequencies --   1273.1646              1277.0901              1284.0705
 Red. masses --      1.4623                 1.3005                 1.5770
 Frc consts  --      1.3965                 1.2497                 1.5320
 IR Inten    --      2.1903                 6.9443                18.6201

                     43                     44                     45
                      A                      A                      A
 Frequencies --   1292.3051              1302.7835              1361.0578
 Red. masses --      1.5083                 1.7756                 2.0764
 Frc consts  --      1.4842                 1.7755                 2.2662
 IR Inten    --      1.7184                 4.9266                15.7321

                     46                     47                     48
                      A                      A                      A
 Frequencies --   1387.5345              1398.0193              1416.7886
 Red. masses --      1.6031                 1.6900                 1.5127
 Frc consts  --      1.8185                 1.9460                 1.7890
 IR Inten    --     14.7193                 7.1570                 6.0890

                     49                     50                     51
                      A                      A                      A
 Frequencies --   1447.9838              1486.1085              1501.1424
 Red. masses --      1.4404                 1.0939                 1.0943
 Frc consts  --      1.7793                 1.4234                 1.4529
 IR Inten    --     69.5649                 1.6526                 1.7979

                     52                     53                     54
                      A                      A                      A
 Frequencies --   1507.7789              1528.7715              1539.4320
 Red. masses --      1.4010                 1.1388                 1.0872
 Frc consts  --      1.8766                 1.5681                 1.5180
 IR Inten    --      3.7149                 2.4110                 2.8504

                     55                     56                     57
                      A                      A                      A
 Frequencies --   1544.2901              2996.2581              2996.7170
 Red. masses --      1.0938                 1.0723                 1.0719
 Frc consts  --      1.5368                 5.6719                 5.6713
 IR Inten    --      0.7911                56.5022                84.7985

                     58                     59                     60
                      A                      A                      A
 Frequencies --   3078.3456              3084.7889              3090.7933
 Red. masses --      1.0575                 1.0570                 1.0604
 Frc consts  --      5.9043                 5.9261                 5.9682
 IR Inten    --     31.7782                39.2063                21.0059

                     61                     62                     63
                      A                      A                      A
 Frequencies --   3094.1665              3106.1919              3125.6518
 Red. masses --      1.0936                 1.0908                 1.1100
 Frc consts  --      6.1687                 6.2006                 6.3892
 IR Inten    --     44.9544                38.5391                 3.2434

                     64                     65                     66
                      A                      A                      A
 Frequencies --   3140.1208              3141.6393              3152.9099
 Red. masses --      1.1063                 1.0561                 1.1081
 Frc consts  --      6.4274                 6.1415                 6.4903
 IR Inten    --     14.9154                16.4384                38.7553

                     67                     68                     69
                      A                      A                      A
 Frequencies --   3188.6712              3226.0492              3729.6754
 Red. masses --      1.0918                 1.1171                 1.0659
 Frc consts  --      6.5404                 6.8497                 8.7357
 IR Inten    --     14.3484                 8.9773                 9.4099

 - Thermochemistry -
 -------------------
 Temperature   298.150 Kelvin.  Pressure   1.00000 Atm.
 Atom     1 has atomic number  6 and mass  12.00000

 Molecular mass:   154.09938 amu.
 Principal axes and moments of inertia in atomic units:
                           1         2         3
     Eigenvalues --  1308.147011412.876672188.77431
           X            0.99387   0.11055  -0.00241
           Y           -0.11052   0.99383   0.00976
           Z            0.00348  -0.00943   0.99995
 This molecule is an asymmetric top.
 Rotational symmetry number  1.
 Warning -- assumption of classical behavior for rotation
           may cause significant error
 Rotational temperatures (Kelvin)      0.06621     0.06130     0.03957
 Rotational constants (GHZ):           1.37962     1.27735     0.82454
 Zero-point vibrational energy     576213.1 (Joules/Mol)
                                  137.71825 (Kcal/Mol)
 Warning -- explicit consideration of  13 degrees of freedom as
           vibrations may cause significant error
 Vibrational temperatures:    102.74   163.46   180.42   263.48   307.33
          (Kelvin)            421.42   453.64   511.15   553.75   580.60
                              628.26   670.48   739.66   940.41  1012.91
                             1018.29  1133.74  1171.70  1255.84  1274.36
                             1280.09  1347.11  1363.11  1373.62  1401.47
                             1411.13  1481.68  1497.40  1519.27  1548.41
                             1558.35  1594.35  1602.66  1612.51  1674.18
                             1694.25  1742.16  1752.11  1800.66  1831.80
                             1837.45  1847.49  1859.34  1874.41  1958.26
                             1996.35  2011.44  2038.44  2083.33  2138.18
                             2159.81  2169.36  2199.56  2214.90  2221.89
                             4310.95  4311.61  4429.05  4438.32  4446.96
                             4451.82  4469.12  4497.12  4517.93  4520.12
                             4536.33  4587.79  4641.57  5366.17

 Zero-point correction=                           0.219468 (Hartree/Particle)
 Thermal correction to Energy=                    0.229495
 Thermal correction to Enthalpy=                  0.230440
 Thermal correction to Gibbs Free Energy=         0.184360
 Sum of electronic and zero-point Energies=           -501.578606
 Sum of electronic and thermal Energies=              -501.568579
 Sum of electronic and thermal Enthalpies=            -501.567634
 Sum of electronic and thermal Free Energies=         -501.613713

                     E (Thermal)             CV                S
                      KCal/Mol        Cal/Mol-Kelvin    Cal/Mol-Kelvin
 Total                  144.011             39.969             96.982
 Electronic               0.000              0.000              0.000
 Translational            0.889              2.981             41.007
 Rotational               0.889              2.981             29.782
 Vibrational            142.233             34.007             26.193
 Vibration     1          0.598              1.968              4.114
 Vibration     2          0.607              1.938              3.206
 Vibration     3          0.610              1.928              3.015
 Vibration     4          0.631              1.863              2.296
 Vibration     5          0.644              1.820              2.013
 Vibration     6          0.688              1.687              1.457
 Vibration     7          0.703              1.644              1.334
 Vibration     8          0.731              1.564              1.143
 Vibration     9          0.754              1.502              1.020
 Vibration    10          0.769              1.462              0.950
 Vibration    11          0.797              1.390              0.837
 Vibration    12          0.823              1.325              0.749
 Vibration    13          0.869              1.219              0.624

                           ! Non-Optimized Parameters !

 1\1\GINC-NODE118\Freq\RB3LYP\6-31G(d)\C9H14O2\VSC10255\08-Dec-2020\0\\
 #N Geom=AllCheck Guess=TCheck SCRF=Check GenChk RB3LYP/6-31G(d) Freq\\
 CID_132398535_JID_1114_neutraal\\0,1\C,2.4818298985,0.3793779401,-0.27
 47401028\C,1.5010672363,-0.3847869667,-1.2038668647\C,0.3902486627,-0.
 1694507744,-0.1531402226\C,1.4960512559,0.1401473206,0.8998576541\C,-0
 .6775806993,-1.2102388287,0.1492975909\C,-1.8050253875,-1.2560873238,-
 0.8658200633\C,-1.9501464454,-0.4301745948,0.3845432076\C,-1.555334546
 9,1.0285170731,0.2508864031\O,-0.3462308422,1.0155005056,-0.5044204566

 Normal termination of Gaussian 16 at Tue Dec  8 19:19:35 2020.

 ----------------------------------------------------------------------
 # B3LYP/6-311++G(d,p) empiricaldispersion=gd3bj scf=xqc pop=npa geom=c
 heck
 ----------------------------------------------------------------------

 ---------------------------------------
 CID_132398535_JID_1114_Energie_neutraal
 ---------------------------------------
 Structure from the checkpoint file:  "JID_1114.chk"
 Charge =  0 Multiplicity = 1

 SCF Done:  E(RB3LYP) =  -501.944889789     A.U. after   15 cycles
 Normal termination of Gaussian 16 at Tue Dec  8 19:22:19 2020.

 ----------------------------------------------------------------------
 # B3LYP/6-311++G(d,p) empiricaldispersion=gd3bj scf=xqc pop=npa geom=c
 heck
 ----------------------------------------------------------------------

 -------------------------------------
 CID_132398535_JID_1114_Energie_kation
 -------------------------------------
 Structure from the checkpoint file:  "JID_1114.chk"
 Charge =  1 Multiplicity = 2

 SCF Done:  E(UB3LYP) =  -501.618172086     A.U. after   26 cycles
 Normal termination of Gaussian 16 at Tue Dec  8 19:29:10 2020.
 Gaussian 16:  ES64L-G16RevA.03 25-Dec-2016

 ------------------------------------
 CID_132398535_JID_1114_Energie_anion
 ------------------------------------
 Structure from the checkpoint file:  "JID_1114.chk"
 Charge = -1 Multiplicity = 2

                         Standard orientation:
 ---------------------------------------------------------------------
 Center     Atomic      Atomic             Coordinates (Angstroms)
 Number     Number       Type             X           Y           Z
 ---------------------------------------------------------------------
      1          6           0        2.676309    0.274514    0.022419
      2          6           0        1.550737    0.387982    1.085120
      3          6           0        0.571410   -0.233641    0.065897
      4          6           0        1.581053    0.121211   -1.066426
      5          6           0       -0.884100    0.193665   -0.051868
      6          6           0       -1.792842   -0.398467    1.009859
      7          6           0       -1.658518   -1.073926   -0.328914
      8          6           0       -0.614521   -2.172199   -0.402313
      9          8           0        0.516239   -1.653126    0.293773
     10          6           0       -1.241046    1.514788   -0.677959
     11          8           0       -0.736545    2.625214    0.062422
     12          1           0        3.357874    1.123754   -0.075902
     13          1           0        3.259830   -0.641518    0.145308
     14          1           0        1.283845    1.428639    1.284883
     15          1           0        1.666203   -0.160124    2.024270
     16          1           0        1.720792   -0.645296   -1.834682
     17          1           0        1.352871    1.077948   -1.544206
     18          1           0       -2.726354    0.122199    1.209269
     19          1           0       -1.338123   -0.874075    1.874406
     20          1           0       -2.497575   -1.087320   -1.018700
     21          1           0       -0.900403   -3.103857    0.097127
     22          1           0       -0.372473   -2.396895   -1.453789
     23          1           0       -0.801880    1.608354   -1.675499
     24          1           0       -2.334868    1.580673   -0.794462
     25          1           0       -1.038186    2.507255    0.977517
 ---------------------------------------------------------------------

 SCF Done:  E(UB3LYP) =  -501.928017071     A.U. after   30 cycles

 The electronic state is 2-A.
 Alpha  occ. eigenvalues --  -19.01926 -19.01565 -10.12343 -10.11163 -10.11103
 Alpha  occ. eigenvalues --  -10.07842 -10.07460 -10.06799 -10.06443 -10.06313
 Alpha  occ. eigenvalues --  -10.06122  -0.94159  -0.91620  -0.76203  -0.73914
 Alpha  occ. eigenvalues --   -0.61693  -0.58693  -0.55926  -0.54517  -0.48514
 Alpha  occ. eigenvalues --   -0.46982  -0.43666  -0.41895  -0.38291  -0.37250
 Alpha  occ. eigenvalues --   -0.36618  -0.35787  -0.33672  -0.32658  -0.30285
 Alpha  occ. eigenvalues --   -0.28897  -0.28613  -0.27140  -0.25075  -0.23752
 Alpha  occ. eigenvalues --   -0.22563  -0.22347  -0.21621  -0.18010  -0.17626
 Alpha  occ. eigenvalues --   -0.17093  -0.14877   0.04920
 Alpha virt. eigenvalues --    0.07276   0.07583   0.08374   0.09301   0.09950
 Alpha virt. eigenvalues --    0.10264   0.10374   0.11099   0.12414   0.13137
 Alpha virt. eigenvalues --    0.13196   0.13872   0.14225   0.15655   0.16027

  Beta  occ. eigenvalues --  -19.01924 -19.01534 -10.12339 -10.11141 -10.11075
  Beta  occ. eigenvalues --  -10.07843 -10.07443 -10.06793 -10.06403 -10.06298
  Beta  occ. eigenvalues --  -10.06112  -0.94152  -0.91554  -0.76173  -0.73899
  Beta  occ. eigenvalues --   -0.61649  -0.58629  -0.55890  -0.54477  -0.48457
  Beta  occ. eigenvalues --   -0.46940  -0.43623  -0.41837  -0.38257  -0.37194
  Beta  occ. eigenvalues --   -0.36552  -0.35753  -0.33644  -0.32610  -0.30245
  Beta  occ. eigenvalues --   -0.28876  -0.28579  -0.27117  -0.25045  -0.23733
  Beta  occ. eigenvalues --   -0.22539  -0.22324  -0.21598  -0.17981  -0.17604
  Beta  occ. eigenvalues --   -0.17057  -0.14860
  Beta virt. eigenvalues --    0.07262   0.08209   0.08404   0.08900   0.10072
  Beta virt. eigenvalues --    0.10415   0.10731   0.10919   0.11549   0.13099
  Beta virt. eigenvalues --    0.13561   0.13715   0.14155   0.14444   0.15770

 Mulliken charges and spin densities:
               1          2
     1  C    0.131949  -0.339359
     2  C   -0.035890  -0.479662
     3  C   -0.423114   0.241567
     4  C    0.022216  -0.418319
     5  C   -1.562020   2.205688
     6  C    1.279722  -1.927370
     7  C   -0.385235   0.321791
     8  C    1.764332  -2.057731
     9  O   -0.108750   0.040208
    10  C    1.510288  -1.878941
    11  O   -0.247134   0.056942
    12  H   -0.020733   0.153391
    13  H    0.153532  -0.029401
    14  H    0.120224   0.012402
    15  H   -0.063870   0.207266
    16  H   -0.174909   0.332325
    17  H    0.106549   0.015468
    18  H   -0.778720   0.954354
    19  H   -0.190920   0.376116
    20  H   -1.036617   1.267175
    21  H   -0.321834   0.473016
    22  H   -0.107712   0.240983
    23  H   -0.156938   0.333218
    24  H   -0.283930   0.454099
    25  H   -0.190487   0.444773
 Sum of Mulliken charges =  -1.00000   1.00000

 Dipole moment (field-independent basis, Debye):
    X=              6.6969    Y=             -0.3716    Z=              0.1120  Tot=              6.7081
 Quadrupole moment (field-independent basis, Debye-Ang):
   XX=           -121.4031   YY=           -114.1533   ZZ=           -101.3922
   XY=              1.7746   XZ=              1.2624   YZ=             -3.5643

 Summary of Natural Population Analysis:

                                       Natural Population
                Natural  -----------------------------------------------
    Atom  No    Charge         Core      Valence    Rydberg      Total
 -----------------------------------------------------------------------
      C    1   -0.19013      0.99965     2.18306    0.00742     3.19013
      C    2   -0.19299      0.99958     2.18553    0.00789     3.19299
      C    3    0.14959      0.99948     1.83074    0.02019     2.85041
      C    4   -0.19937      0.99959     2.19114    0.00865     3.19937
      C    5   -0.06826      0.99945     2.05277    0.01604     3.06826
      C    6   -0.19453      0.99958     2.18289    0.01206     3.19453
      C    7   -0.11615      0.99954     2.10420    0.01241     3.11615
      C    8   -0.00703      0.99957     1.99401    0.01345     3.00703
      O    9   -0.31016      0.99988     3.30175    0.00853     4.31016
      C   10   -0.00270      0.99951     1.98973    0.01346     3.00270
      O   11   -0.37076      0.99990     3.36427    0.00659     4.37076
      H   12    0.09274      0.00000     0.40618    0.00108     0.40726
      H   13    0.09624      0.00000     0.40236    0.00140     0.40376
      H   14    0.10659      0.00000     0.39177    0.00164     0.39341
      H   15    0.10055      0.00000     0.39817    0.00128     0.39945
      H   16    0.10038      0.00000     0.39857    0.00105     0.39962
      H   17    0.10187      0.00000     0.39678    0.00135     0.39813
      H   18    0.11107      0.00000     0.38520    0.00373     0.38893
      H   19    0.10662      0.00000     0.39162    0.00176     0.39338
      H   20    0.11259      0.00000     0.38375    0.00366     0.38741
      H   21    0.09041      0.00000     0.40811    0.00148     0.40959
      H   22    0.08141      0.00000     0.41664    0.00195     0.41859
      H   23    0.08783      0.00000     0.41056    0.00161     0.41217
      H   24    0.08452      0.00000     0.41311    0.00236     0.41548
      H   25    0.22966      0.00000     0.26517    0.00517     0.27034
 =======================================================================
   * Total *   -0.00000     10.99573    30.84806    0.15621    42.00000

 Normal termination of Gaussian 16 at Tue Dec  8 19:36:54 2020.
