 Gaussian 16, Revision A.03,

 -----------------------------------------------------------
 # opt freq B3LYP/6-31G(d) empiricaldispersion=gd3bj scf=xqc
 -----------------------------------------------------------

 ------------------------------
 CID_12367108_JID_2108_neutraal
 ------------------------------
 Symbolic Z-matrix:
 Charge =  0 Multiplicity = 1

 SCF Done:  E(RB3LYP) =  -606.774439713     A.U. after   15 cycles
 SCF Done:  E(RB3LYP) =  -606.779969093     A.U. after   13 cycles
 SCF Done:  E(RB3LYP) =  -606.779963941     A.U. after   12 cycles
 SCF Done:  E(RB3LYP) =  -606.781151394     A.U. after   12 cycles
 SCF Done:  E(RB3LYP) =  -606.781329346     A.U. after   12 cycles
 SCF Done:  E(RB3LYP) =  -606.781479859     A.U. after   12 cycles
 SCF Done:  E(RB3LYP) =  -606.781518901     A.U. after   12 cycles
 SCF Done:  E(RB3LYP) =  -606.781553781     A.U. after   11 cycles
 SCF Done:  E(RB3LYP) =  -606.781584919     A.U. after   11 cycles
 SCF Done:  E(RB3LYP) =  -606.781604144     A.U. after   11 cycles
 SCF Done:  E(RB3LYP) =  -606.781632062     A.U. after   11 cycles
 SCF Done:  E(RB3LYP) =  -606.781654595     A.U. after   11 cycles
 SCF Done:  E(RB3LYP) =  -606.781657217     A.U. after    9 cycles
 SCF Done:  E(RB3LYP) =  -606.781657397     A.U. after    8 cycles
 SCF Done:  E(RB3LYP) =  -606.781657468     A.U. after    8 cycles
 Optimization completed.
    -- Stationary point found.
 Normal termination of Gaussian 16 at Wed Dec  9 16:49:32 2020.

 --------------------------------------------------------------------
 #N Geom=AllCheck Guess=TCheck SCRF=Check GenChk RB3LYP/6-31G(d) Freq
 --------------------------------------------------------------------

 Structure from the checkpoint file:  "JID_2108.chk"
 ------------------------------
 CID_12367108_JID_2108_neutraal
 ------------------------------
 Charge =  0 Multiplicity = 1

 SCF Done:  E(RB3LYP) =  -606.781657468     A.U. after    1 cycles

  Exact polarizability: 104.365  -2.597 105.536  -9.627   2.604  59.262
 Approx polarizability: 154.829  -0.853 167.850 -21.576   8.661  91.207

                      1                      2                      3
                      A                      A                      A
 Frequencies --     23.2890                41.7261                83.2540
 Red. masses --      4.5481                10.8222                 5.8563
 Frc consts  --      0.0015                 0.0111                 0.0239
 IR Inten    --      0.3041                 1.1447                 0.0686

                      4                      5                      6
                      A                      A                      A
 Frequencies --    117.4526               163.5936               201.2450
 Red. masses --      3.6787                 1.1444                 3.1470
 Frc consts  --      0.0299                 0.0180                 0.0751
 IR Inten    --      2.4405                 0.0099                 4.1855

                      7                      8                      9
                      A                      A                      A
 Frequencies --    225.6331               245.0567               355.9976
 Red. masses --      4.7719                 5.0567                 3.4616
 Frc consts  --      0.1431                 0.1789                 0.2585
 IR Inten    --      6.2010                 1.9255                 7.1561

                     10                     11                     12
                      A                      A                      A
 Frequencies --    389.4558               452.2289               472.3239
 Red. masses --      4.2312                 3.6659                 4.2144
 Frc consts  --      0.3781                 0.4417                 0.5539
 IR Inten    --      1.9731                 0.2574                 1.3252

                     13                     14                     15
                      A                      A                      A
 Frequencies --    520.1977               599.0844               612.7020
 Red. masses --      2.5990                 3.0192                 5.0395
 Frc consts  --      0.4144                 0.6384                 1.1146
 IR Inten    --     10.9838                45.3205                 8.9937

                     16                     17                     18
                      A                      A                      A
 Frequencies --    635.7883               676.1995               728.1618
 Red. masses --      3.3722                 1.9654                 4.4258
 Frc consts  --      0.8031                 0.5295                 1.3826
 IR Inten    --     25.6477                77.4470                38.9933

                     19                     20                     21
                      A                      A                      A
 Frequencies --    778.4305               818.7525               845.9472
 Red. masses --      4.9215                 4.4395                 1.5312
 Frc consts  --      1.7571                 1.7534                 0.6456
 IR Inten    --      7.5910                 2.8069                26.2238

                     22                     23                     24
                      A                      A                      A
 Frequencies --    896.9668               955.4917               998.8950
 Red. masses --      4.3056                 2.5047                 1.4025
 Frc consts  --      2.0410                 1.3473                 0.8245
 IR Inten    --      4.7941                 5.2759                 0.9346

                     25                     26                     27
                      A                      A                      A
 Frequencies --   1003.0399              1011.9337              1072.6778
 Red. masses --      5.3524                 6.4497                 5.0156
 Frc consts  --      3.1728                 3.8913                 3.4003
 IR Inten    --     21.5022                12.3056                78.7889

                     28                     29                     30
                      A                      A                      A
 Frequencies --   1112.8738              1167.2293              1183.5901
 Red. masses --      1.4647                 1.6607                 1.2669
 Frc consts  --      1.0688                 1.3330                 1.0457
 IR Inten    --      3.9785               138.3380                 0.5591

                     31                     32                     33
                      A                      A                      A
 Frequencies --   1219.2615              1242.8306              1272.1597
 Red. masses --      1.4975                 1.5019                 2.3562
 Frc consts  --      1.3116                 1.3668                 2.2467
 IR Inten    --     26.5668                81.4366                 1.0885

                     34                     35                     36
                      A                      A                      A
 Frequencies --   1299.6963              1344.8586              1374.1970
 Red. masses --      2.4847                 1.7263                 2.9195
 Frc consts  --      2.4729                 1.8396                 3.2483
 IR Inten    --     18.9848                57.6296                97.5168

                     37                     38                     39
                      A                      A                      A
 Frequencies --   1399.3408              1439.5870              1470.6206
 Red. masses --      3.1319                 4.5880                 1.6135
 Frc consts  --      3.6133                 5.6021                 2.0559
 IR Inten    --     95.4504                41.9318               119.5200

                     40                     41                     42
                      A                      A                      A
 Frequencies --   1483.2302              1510.3023              1523.5163
 Red. masses --      1.1076                 1.0483                 1.0592
 Frc consts  --      1.4357                 1.4088                 1.4485
 IR Inten    --     22.1549                 6.2518                18.2170

                     43                     44                     45
                      A                      A                      A
 Frequencies --   1531.8124              1621.8993              1639.8254
 Red. masses --      1.9941                 7.7381                 5.9888
 Frc consts  --      2.7568                11.9932                 9.4882
 IR Inten    --     80.8232               169.4130               313.4788

                     46                     47                     48
                      A                      A                      A
 Frequencies --   1857.9889              3074.8692              3093.0034
 Red. masses --      9.8096                 1.0294                 1.0587
 Frc consts  --     19.9521                 5.7342                 5.9673
 IR Inten    --    311.9377                33.3241                 2.1848

                     49                     50                     51
                      A                      A                      A
 Frequencies --   3144.2598              3149.4622              3181.5300
 Red. masses --      1.1051                 1.1074                 1.1073
 Frc consts  --      6.4371                 6.4721                 6.6036
 IR Inten    --      1.9432                20.3110                22.4978

                     52                     53                     54
                      A                      A                      A
 Frequencies --   3186.5502              3242.6017              3689.4245
 Red. masses --      1.0909                 1.0948                 1.0640
 Frc consts  --      6.5267                 6.7821                 8.5329
 IR Inten    --     24.5751                 3.1880                48.3595

 - Thermochemistry -
 -------------------
 Temperature   298.150 Kelvin.  Pressure   1.00000 Atm.
 Atom     1 has atomic number  6 and mass  12.00000

 Molecular mass:   168.05349 amu.
 Principal axes and moments of inertia in atomic units:
                           1         2         3
     Eigenvalues --  1322.143542549.080113480.86482
           X            0.99977   0.02153  -0.00190
           Y           -0.02153   0.99977  -0.00064
           Z            0.00188   0.00068   1.00000
 This molecule is an asymmetric top.
 Rotational symmetry number  1.
 Warning -- assumption of classical behavior for rotation
           may cause significant error
 Rotational temperatures (Kelvin)      0.06551     0.03398     0.02488
 Rotational constants (GHZ):           1.36501     0.70800     0.51847
 Zero-point vibrational energy     403034.1 (Joules/Mol)
                                   96.32747 (Kcal/Mol)
 Warning -- explicit consideration of  15 degrees of freedom as
           vibrations may cause significant error
 Vibrational temperatures:     33.51    60.03   119.78   168.99   235.37
          (Kelvin)            289.55   324.64   352.58   512.20   560.34
                              650.66   679.57   748.45   861.95   881.54
                              914.76   972.90  1047.66  1119.99  1178.00
                             1217.13  1290.54  1374.74  1437.19  1443.15
                             1455.95  1543.34  1601.18  1679.38  1702.92
                             1754.25  1788.16  1830.35  1869.97  1934.95
                             1977.16  2013.34  2071.24  2115.90  2134.04
                             2172.99  2192.00  2203.94  2333.55  2359.34
                             2673.23  4424.05  4450.14  4523.89  4531.37
                             4577.51  4584.73  4665.38  5308.26

 Zero-point correction=                           0.153508 (Hartree/Particle)
 Thermal correction to Energy=                    0.164453
 Thermal correction to Enthalpy=                  0.165398
 Thermal correction to Gibbs Free Energy=         0.114725
 Sum of electronic and zero-point Energies=           -606.628150
 Sum of electronic and thermal Energies=              -606.617204
 Sum of electronic and thermal Enthalpies=            -606.616260
 Sum of electronic and thermal Free Energies=         -606.666933

                     E (Thermal)             CV                S
                      KCal/Mol        Cal/Mol-Kelvin    Cal/Mol-Kelvin
 Total                  103.196             39.257            106.650
 Electronic               0.000              0.000              0.000
 Translational            0.889              2.981             41.265
 Rotational               0.889              2.981             30.840
 Vibrational            101.419             33.295             34.545
 Vibration     1          0.593              1.985              6.332
 Vibration     2          0.594              1.981              5.175
 Vibration     3          0.600              1.961              3.813
 Vibration     4          0.608              1.935              3.142
 Vibration     5          0.623              1.887              2.508
 Vibration     6          0.638              1.838              2.122
 Vibration     7          0.650              1.802              1.913
 Vibration     8          0.660              1.771              1.766
 Vibration     9          0.732              1.563              1.140
 Vibration    10          0.757              1.493              1.002
 Vibration    11          0.811              1.356              0.789
 Vibration    12          0.829              1.311              0.731
 Vibration    13          0.875              1.205              0.610
 Vibration    14          0.957              1.034              0.451
 Vibration    15          0.972              1.005              0.428

 Optimization completed.
    -- Stationary point found.
 Normal termination of Gaussian 16 at Wed Dec  9 16:53:37 2020.

 ----------------------------------------------------------------------
 # B3LYP/6-311++G(d,p) empiricaldispersion=gd3bj scf=xqc pop=npa geom=c
 heck
 ----------------------------------------------------------------------

 --------------------------------------
 CID_12367108_JID_2108_Energie_neutraal
 --------------------------------------
 Structure from the checkpoint file:  "JID_2108.chk"
 Charge =  0 Multiplicity = 1

 SCF Done:  E(RB3LYP) =  -606.962819657     A.U. after   14 cycles
 Normal termination of Gaussian 16 at Wed Dec  9 16:54:54 2020.

 ----------------------------------------------------------------------
 # B3LYP/6-311++G(d,p) empiricaldispersion=gd3bj scf=xqc pop=npa geom=c
 heck
 ----------------------------------------------------------------------

 ------------------------------------
 CID_12367108_JID_2108_Energie_kation
 ------------------------------------
 Structure from the checkpoint file:  "JID_2108.chk"
 Charge =  1 Multiplicity = 2

 SCF Done:  E(UB3LYP) =  -606.623342783     A.U. after   27 cycles
 Normal termination of Gaussian 16 at Wed Dec  9 16:58:12 2020.
 Gaussian 16:  ES64L-G16RevA.03 25-Dec-2016

 ----------------------------------------------------------------------
 # B3LYP/6-311++G(d,p) empiricaldispersion=gd3bj scf=xqc pop=npa geom=c
 heck
 ----------------------------------------------------------------------

 -----------------------------------
 CID_12367108_JID_2108_Energie_anion
 -----------------------------------
 Structure from the checkpoint file:  "JID_2108.chk"
 Charge = -1 Multiplicity = 2

                         Standard orientation:
 ---------------------------------------------------------------------
 Center     Atomic      Atomic             Coordinates (Angstroms)
 Number     Number       Type             X           Y           Z
 ---------------------------------------------------------------------
      1          6           0       -1.783217   -2.551857   -0.133566
      2          8           0       -2.436477   -1.301570    0.131348
      3          6           0       -1.691619   -0.192707    0.025146
      4          7           0       -0.411726   -0.285735   -0.318016
      5          6           0        0.277690    0.866338   -0.396765
      6          7           0       -0.197942    2.089534   -0.175089
      7          6           0       -1.501825    2.155464    0.163672
      8          6           0       -2.311023    1.042959    0.285051
      9          6           0        1.728117    0.737120   -0.797036
     10          6           0        2.479234   -0.284405    0.034378
     11          8           0        3.162002   -1.183345   -0.397986
     12          8           0        2.323122   -0.053406    1.361398
     13          1           0       -2.553063   -3.310233    0.011152
     14          1           0       -0.951246   -2.708428    0.557996
     15          1           0       -1.400244   -2.580290   -1.156981
     16          1           0       -1.898124    3.152326    0.344653
     17          1           0       -3.356586    1.098827    0.562121
     18          1           0        1.807592    0.421489   -1.840792
     19          1           0        2.207080    1.714080   -0.685886
     20          1           0        2.838955   -0.745279    1.816109
 ---------------------------------------------------------------------

 SCF Done:  E(UB3LYP) =  -606.951825106     A.U. after   33 cycles
 SCF Done:  E(UB3LYP) =  -606.951825106     a.u. after    1 cycles

 The electronic state is 2-A.
 Alpha  occ. eigenvalues --  -19.05405 -19.04673 -19.00396 -14.18095 -14.17441
 Alpha  occ. eigenvalues --  -10.19475 -10.14958 -10.10981 -10.10668 -10.07750
 Alpha  occ. eigenvalues --  -10.07094 -10.04570  -0.99623  -0.97061  -0.90859
 Alpha  occ. eigenvalues --   -0.85230  -0.75367  -0.68709  -0.63800  -0.59914
 Alpha  occ. eigenvalues --   -0.52767  -0.50488  -0.48932  -0.42297  -0.41156
 Alpha  occ. eigenvalues --   -0.37765  -0.36699  -0.36089  -0.34922  -0.34346
 Alpha  occ. eigenvalues --   -0.33020  -0.31436  -0.29911  -0.28242  -0.27821
 Alpha  occ. eigenvalues --   -0.27255  -0.24088  -0.23075  -0.21406  -0.18574
 Alpha  occ. eigenvalues --   -0.17531  -0.16744  -0.13413  -0.13223   0.05304
 Alpha virt. eigenvalues --    0.07302   0.07728   0.08486   0.09715   0.10446
 Alpha virt. eigenvalues --    0.10803   0.10870   0.11804   0.12657   0.13395
 Alpha virt. eigenvalues --    0.13830   0.15452   0.16321   0.17237   0.17753

  Beta  occ. eigenvalues --  -19.05360 -19.04668 -19.00391 -14.18196 -14.17234
  Beta  occ. eigenvalues --  -10.19450 -10.14985 -10.10733 -10.10636 -10.07498
  Beta  occ. eigenvalues --  -10.07102 -10.04428  -0.99552  -0.97036  -0.90809
  Beta  occ. eigenvalues --   -0.84959  -0.75144  -0.68424  -0.63646  -0.59763
  Beta  occ. eigenvalues --   -0.52412  -0.50272  -0.48784  -0.42208  -0.41015
  Beta  occ. eigenvalues --   -0.37729  -0.36572  -0.36013  -0.34821  -0.34224
  Beta  occ. eigenvalues --   -0.32849  -0.31140  -0.29700  -0.28169  -0.27557
  Beta  occ. eigenvalues --   -0.27120  -0.24023  -0.22811  -0.21377  -0.18408
  Beta  occ. eigenvalues --   -0.16933  -0.16164  -0.13149  -0.12707
  Beta virt. eigenvalues --    0.07843   0.08686   0.08896   0.09738   0.10121
  Beta virt. eigenvalues --    0.10636   0.10967   0.11008   0.11989   0.13133
  Beta virt. eigenvalues --    0.13425   0.13795   0.15470   0.16274   0.17271

 Mulliken charges and spin densities:
               1          2
     1  C    0.670600  -0.959608
     2  O   -0.203130   0.044072
     3  C   -0.073102  -0.047929
     4  N   -0.048805   0.153143
     5  C   -0.343371   0.125453
     6  N   -0.058984  -0.047079
     7  C    0.107402  -0.097824
     8  C    0.019201   0.202898
     9  C   -0.287961  -0.242010
    10  C    0.291460  -0.261288
    11  O   -0.308879   0.030350
    12  O   -0.129219   0.009928
    13  H   -0.423312   0.572231
    14  H   -0.232632   0.421451
    15  H    0.047280   0.111557
    16  H    0.041687   0.086485
    17  H   -0.059655   0.220553
    18  H    0.179278   0.021481
    19  H    0.166671   0.008267
    20  H   -0.354529   0.647871
 Sum of Mulliken charges =  -1.00000   1.00000

 Dipole moment (field-independent basis, Debye):
    X=             -0.8259    Y=              3.0845    Z=             -2.4731  Tot=              4.0389
 Quadrupole moment (field-independent basis, Debye-Ang):
   XX=           -113.0670   YY=           -106.2615   ZZ=            -89.5024
   XY=              0.3415   XZ=             -5.5882   YZ=              1.6574

 Summary of Natural Population Analysis:

                                       Natural Population
                Natural  -----------------------------------------------
    Atom  No    Charge         Core      Valence    Rydberg      Total
 -----------------------------------------------------------------------
      C    1   -0.10235      0.99959     2.09376    0.00900     3.10235
      O    2   -0.27254      0.99985     3.26282    0.00987     4.27254
      C    3    0.28220      0.99947     1.70085    0.01748     2.71780
      N    4   -0.26483      0.99962     2.75561    0.00960     3.76483
      C    5    0.26102      0.99962     1.72035    0.01901     2.73898
      N    6   -0.28319      0.99968     2.77361    0.00990     3.78319
      C    7    0.08228      0.99959     1.90360    0.01453     2.91772
      C    8   -0.14359      0.99951     2.13604    0.00804     3.14359
      C    9   -0.25549      0.99954     2.24610    0.00985     3.25549
      C   10    0.41840      0.99973     1.55569    0.02618     2.58160
      O   11   -0.31056      0.99986     3.30436    0.00633     4.31056
      O   12   -0.34288      0.99988     3.33617    0.00683     4.34288
      H   13    0.08807      0.00000     0.41040    0.00153     0.41193
      H   14    0.09449      0.00000     0.40400    0.00152     0.40551
      H   15    0.08953      0.00000     0.40925    0.00122     0.41047
      H   16    0.08179      0.00000     0.41723    0.00098     0.41821
      H   17    0.10356      0.00000     0.39529    0.00114     0.39644
      H   18    0.11403      0.00000     0.38508    0.00088     0.38597
      H   19    0.11828      0.00000     0.38045    0.00128     0.38172
      H   20    0.24179      0.00000     0.24393    0.01428     0.25821
 =======================================================================
   * Total *   -0.00000     11.99594    31.83460    0.16946    44.00000

 Normal termination of Gaussian 16 at Wed Dec  9 17:02:20 2020.
