 Gaussian 16, Revision A.03,

 -----------------------------------------------------------
 # opt freq B3LYP/6-31G(d) empiricaldispersion=gd3bj scf=xqc
 -----------------------------------------------------------

 -------------------------------
 CID_112596926_JID_9754_neutraal
 -------------------------------
 Symbolic Z-matrix:
 Charge =  0 Multiplicity = 1

 SCF Done:  E(RB3LYP) =  -803.933621215     A.U. after   14 cycles
 SCF Done:  E(RB3LYP) =  -803.938602841     A.U. after   12 cycles
 SCF Done:  E(RB3LYP) =  -803.939049112     A.U. after   12 cycles
 SCF Done:  E(RB3LYP) =  -803.939296354     A.U. after   11 cycles
 SCF Done:  E(RB3LYP) =  -803.939425620     A.U. after   11 cycles
 SCF Done:  E(RB3LYP) =  -803.939505287     A.U. after   11 cycles
 SCF Done:  E(RB3LYP) =  -803.939556095     A.U. after   10 cycles
 SCF Done:  E(RB3LYP) =  -803.939592204     A.U. after   11 cycles
 SCF Done:  E(RB3LYP) =  -803.939603236     A.U. after   10 cycles
 SCF Done:  E(RB3LYP) =  -803.939611542     A.U. after   10 cycles
 SCF Done:  E(RB3LYP) =  -803.939621779     A.U. after    8 cycles
 SCF Done:  E(RB3LYP) =  -803.939622028     A.U. after    8 cycles
 SCF Done:  E(RB3LYP) =  -803.939622141     A.U. after    7 cycles
 SCF Done:  E(RB3LYP) =  -803.939622184     A.U. after    6 cycles
 SCF Done:  E(RB3LYP) =  -803.939622194     A.U. after    6 cycles
 Optimization completed.
    -- Stationary point found.
 Normal termination of Gaussian 16 at Sun Dec 13 16:37:35 2020.

 --------------------------------------------------------------------
 #N Geom=AllCheck Guess=TCheck SCRF=Check GenChk RB3LYP/6-31G(d) Freq
 --------------------------------------------------------------------

 Structure from the checkpoint file:  "JID_9754.chk"
 -------------------------------
 CID_112596926_JID_9754_neutraal
 -------------------------------
 Charge =  0 Multiplicity = 1

 SCF Done:  E(RB3LYP) =  -803.939622194     A.U. after    1 cycles

  Exact polarizability: 249.345   1.481 167.264  10.889   1.114 131.566
 Approx polarizability: 321.935   6.146 269.844  21.704  11.622 209.778

                      1                      2                      3
                      A                      A                      A
 Frequencies --     30.5934                34.6764                37.7697
 Red. masses --      1.0512                 3.3781                 2.9319
 Frc consts  --      0.0006                 0.0024                 0.0025
 IR Inten    --      0.3436                 0.3473                 0.1933

                      4                      5                      6
                      A                      A                      A
 Frequencies --     45.1593                50.5020                61.2070
 Red. masses --      2.8790                 3.4089                 2.4626
 Frc consts  --      0.0035                 0.0051                 0.0054
 IR Inten    --      0.2455                 1.1006                 0.8449

                      7                      8                      9
                      A                      A                      A
 Frequencies --     93.8839               115.1821               123.1124
 Red. masses --      2.9760                 1.3003                 1.6773
 Frc consts  --      0.0155                 0.0102                 0.0150
 IR Inten    --      3.6263                 0.4733                 1.2238

                     10                     11                     12
                      A                      A                      A
 Frequencies --    126.4134               134.0439               161.9599
 Red. masses --      1.5764                 2.4408                 2.3693
 Frc consts  --      0.0148                 0.0258                 0.0366
 IR Inten    --      1.9495                 0.7339                 1.0387

                     13                     14                     15
                      A                      A                      A
 Frequencies --    190.6779               225.8083               230.9782
 Red. masses --      2.8254                 1.4879                 2.8746
 Frc consts  --      0.0605                 0.0447                 0.0904
 IR Inten    --      2.7776                 0.5564                 0.2325

                     16                     17                     18
                      A                      A                      A
 Frequencies --    238.5842               262.0964               268.7864
 Red. masses --      3.1518                 1.3926                 2.1440
 Frc consts  --      0.1057                 0.0564                 0.0913
 IR Inten    --      1.6864                 1.5231                 0.4405

                     19                     20                     21
                      A                      A                      A
 Frequencies --    279.4078               303.8590               327.7249
 Red. masses --      2.5384                 2.0719                 2.8779
 Frc consts  --      0.1168                 0.1127                 0.1821
 IR Inten    --      0.2924                 1.8060                 2.7115

                     22                     23                     24
                      A                      A                      A
 Frequencies --    367.9566               378.2335               425.8796
 Red. masses --      4.1437                 3.6393                 4.6191
 Frc consts  --      0.3305                 0.3068                 0.4936
 IR Inten    --      0.6739                 3.2188                 2.0550

                     25                     26                     27
                      A                      A                      A
 Frequencies --    440.9636               508.2104               515.6527
 Red. masses --      4.3914                 3.6041                 3.6332
 Frc consts  --      0.5031                 0.5484                 0.5692
 IR Inten    --      2.0908                 5.4020                 3.2944

                     28                     29                     30
                      A                      A                      A
 Frequencies --    527.7089               563.3584               580.1074
 Red. masses --      3.1780                 4.7624                 4.1580
 Frc consts  --      0.5214                 0.8905                 0.8244
 IR Inten    --      0.1262                 0.0149                 0.5897

                     31                     32                     33
                      A                      A                      A
 Frequencies --    598.7876               611.0247               687.2393
 Red. masses --      3.3954                 4.3431                 3.3563
 Frc consts  --      0.7173                 0.9554                 0.9340
 IR Inten    --     12.3875                 1.0896                12.1392

                     34                     35                     36
                      A                      A                      A
 Frequencies --    713.8265               750.1014               759.5965
 Red. masses --      7.3151                 5.7101                 4.9817
 Frc consts  --      2.1961                 1.8929                 1.6935
 IR Inten    --      0.1845                 0.7515                 2.4582

                     37                     38                     39
                      A                      A                      A
 Frequencies --    782.6466               795.0263               813.1316
 Red. masses --      3.0683                 1.2443                 1.2066
 Frc consts  --      1.1073                 0.4634                 0.4700
 IR Inten    --     40.4242                 9.1483                 8.2442

                     40                     41                     42
                      A                      A                      A
 Frequencies --    859.1863               873.3633               897.4778
 Red. masses --      1.7698                 1.2728                 1.2988
 Frc consts  --      0.7698                 0.5720                 0.6164
 IR Inten    --     13.9208                14.8312                 0.1056

                     43                     44                     45
                      A                      A                      A
 Frequencies --    939.9328               961.0466               972.6006
 Red. masses --      1.8236                 2.6119                 3.4686
 Frc consts  --      0.9492                 1.4213                 1.9332
 IR Inten    --      6.7587                 0.6184                 4.1021

                     46                     47                     48
                      A                      A                      A
 Frequencies --    984.3539              1001.4315              1046.2447
 Red. masses --      2.4134                 5.6355                 1.5713
 Frc consts  --      1.3778                 3.3299                 1.0134
 IR Inten    --      4.2956                 8.3367                 4.5803

                     49                     50                     51
                      A                      A                      A
 Frequencies --   1047.8699              1059.3420              1069.7902
 Red. masses --      1.5989                 4.5645                 1.6947
 Frc consts  --      1.0344                 3.0180                 1.1427
 IR Inten    --      3.9200                14.0085                 1.5271

                     52                     53                     54
                      A                      A                      A
 Frequencies --   1073.3577              1076.5194              1079.4221
 Red. masses --      1.5595                 1.5260                 1.5092
 Frc consts  --      1.0586                 1.0419                 1.0360
 IR Inten    --     12.5973                 1.8506                 0.5836

                     55                     56                     57
                      A                      A                      A
 Frequencies --   1086.6461              1096.8553              1122.1369
 Red. masses --      2.6875                 4.2286                 1.9293
 Frc consts  --      1.8697                 2.9974                 1.4313
 IR Inten    --      2.9015                 9.0703                 5.4954

                     58                     59                     60
                      A                      A                      A
 Frequencies --   1146.2025              1178.9444              1196.7718
 Red. masses --      1.9208                 2.0139                 1.7371
 Frc consts  --      1.4868                 1.6492                 1.4659
 IR Inten    --      6.8391                55.3437                 1.3804

                     61                     62                     63
                      A                      A                      A
 Frequencies --   1229.8491              1286.7799              1291.3943
 Red. masses --      1.8693                 1.7479                 3.3681
 Frc consts  --      1.6658                 1.7052                 3.3094
 IR Inten    --      1.3924                 1.7042                 9.0619

                     64                     65                     66
                      A                      A                      A
 Frequencies --   1305.7360              1325.8854              1337.1312
 Red. masses --      1.2950                 2.1212                 2.9740
 Frc consts  --      1.3009                 2.1970                 3.1328
 IR Inten    --     20.5950                 5.6766                 7.4947

                     67                     68                     69
                      A                      A                      A
 Frequencies --   1341.4519              1384.7648              1398.7061
 Red. masses --      7.0138                 1.4132                 1.6275
 Frc consts  --      7.4363                 1.5966                 1.8759
 IR Inten    --      1.4811                27.4834                24.4969

                     70                     71                     72
                      A                      A                      A
 Frequencies --   1407.6262              1434.8738              1438.9683
 Red. masses --      1.8651                 1.3719                 1.3771
 Frc consts  --      2.1773                 1.6642                 1.6800
 IR Inten    --     23.2226                33.3270                11.6597

                     73                     74                     75
                      A                      A                      A
 Frequencies --   1441.3752              1444.8271              1447.3795
 Red. masses --      1.2447                 1.2579                 1.3060
 Frc consts  --      1.5236                 1.5472                 1.6120
 IR Inten    --      0.2276                 9.6026                 3.1482

                     76                     77                     78
                      A                      A                      A
 Frequencies --   1448.8522              1463.8607              1479.2937
 Red. masses --      1.4953                 2.5977                 2.3332
 Frc consts  --      1.8493                 3.2798                 3.0082
 IR Inten    --     22.4383                 0.6037                 2.8719

                     79                     80                     81
                      A                      A                      A
 Frequencies --   1506.2684              1509.5179              1516.6057
 Red. masses --      1.2539                 1.0531                 1.0619
 Frc consts  --      1.6761                 1.4138                 1.4391
 IR Inten    --      6.0584                 8.6659                 8.5504

                     82                     83                     84
                      A                      A                      A
 Frequencies --   1517.7091              1519.8518              1521.9912
 Red. masses --      1.0510                 1.0524                 1.0644
 Frc consts  --      1.4264                 1.4323                 1.4527
 IR Inten    --      4.4487                 6.3180                 1.0699

                     85                     86                     87
                      A                      A                      A
 Frequencies --   1522.4038              1527.9431              1529.4088
 Red. masses --      1.0550                 1.0693                 1.2001
 Frc consts  --      1.4406                 1.4708                 1.6539
 IR Inten    --      0.3394                 1.2348                29.1681

                     88                     89                     90
                      A                      A                      A
 Frequencies --   1535.6574              1536.3174              1548.4897
 Red. masses --      1.2602                 1.1845                 1.4902
 Frc consts  --      1.7509                 1.6472                 2.1052
 IR Inten    --     34.6157                 2.5724                49.8025

                     91                     92                     93
                      A                      A                      A
 Frequencies --   1552.2579              1577.6641              1599.0746
 Red. masses --      1.1356                 7.0356                 4.4502
 Frc consts  --      1.6122                10.3176                 6.7045
 IR Inten    --      4.5482                 2.5627               192.8055

                     94                     95                     96
                      A                      A                      A
 Frequencies --   1628.9385              1671.0234              3009.6264
 Red. masses --      6.6987                 5.6971                 1.0721
 Frc consts  --     10.4724                 9.3728                 5.7216
 IR Inten    --     10.6507                26.7015                44.9932

                     97                     98                     99
                      A                      A                      A
 Frequencies --   3043.2264              3046.0353              3050.8122
 Red. masses --      1.0396                 1.0409                 1.0407
 Frc consts  --      5.6729                 5.6902                 5.7068
 IR Inten    --     38.8344                23.6769                19.4881

                    100                    101                    102
                      A                      A                      A
 Frequencies --   3052.4326              3062.0112              3087.1804
 Red. masses --      1.0373                 1.0355                 1.0733
 Frc consts  --      5.6945                 5.7204                 6.0270
 IR Inten    --     24.0614                19.4076                15.7893

                    103                    104                    105
                      A                      A                      A
 Frequencies --   3092.4637              3099.9949              3103.3069
 Red. masses --      1.0800                 1.0966                 1.0948
 Frc consts  --      6.0851                 6.2091                 6.2118
 IR Inten    --     17.4499                19.3908                17.3230

                    106                    107                    108
                      A                      A                      A
 Frequencies --   3111.6443              3120.9841              3126.3930
 Red. masses --      1.0948                 1.1001                 1.1027
 Frc consts  --      6.2456                 6.3136                 6.3500
 IR Inten    --     21.7188                39.3156                15.6516

                    109                    110                    111
                      A                      A                      A
 Frequencies --   3129.3777              3134.1616              3135.6889
 Red. masses --      1.1002                 1.1028                 1.1038
 Frc consts  --      6.3483                 6.3824                 6.3948
 IR Inten    --     17.1152                16.0007                22.4788

                    112                    113                    114
                      A                      A                      A
 Frequencies --   3136.0408              3140.3026              3156.9365
 Red. masses --      1.1037                 1.1033                 1.1040
 Frc consts  --      6.3951                 6.4105                 6.4825
 IR Inten    --     24.5211                13.2671                17.7396

                    115                    116                    117
                      A                      A                      A
 Frequencies --   3173.3464              3175.2397              3514.2901
 Red. masses --      1.0897                 1.0902                 1.0733
 Frc consts  --      6.4654                 6.4762                 7.8096
 IR Inten    --     28.4260                17.3862                 9.3835

 - Thermochemistry -
 -------------------
 Temperature   298.150 Kelvin.  Pressure   1.00000 Atm.
 Atom     1 has atomic number  6 and mass  12.00000

 Molecular mass:   258.18445 amu.
 Principal axes and moments of inertia in atomic units:
                           1         2         3
     Eigenvalues --  2244.523558788.737199197.31431
           X            0.99996  -0.00817  -0.00412
           Y            0.00777   0.99612  -0.08762
           Z            0.00482   0.08758   0.99615
 This molecule is an asymmetric top.
 Rotational symmetry number  1.
 Warning -- assumption of classical behavior for rotation
           may cause significant error
 Rotational temperatures (Kelvin)      0.03859     0.00986     0.00942
 Rotational constants (GHZ):           0.80406     0.20535     0.19622
 Zero-point vibrational energy     932266.3 (Joules/Mol)
                                  222.81698 (Kcal/Mol)
 Warning -- explicit consideration of  32 degrees of freedom as
           vibrations may cause significant error
 Vibrational temperatures:     44.02    49.89    54.34    64.97    72.66
          (Kelvin)             88.06   135.08   165.72   177.13   181.88
                              192.86   233.02   274.34   324.89   332.33
                              343.27   377.10   386.72   402.01   437.19
                              471.52   529.41   544.19   612.75   634.45
                              731.20   741.91   759.26   810.55   834.65
                              861.52   879.13   988.78  1027.04  1079.23
                             1092.89  1126.05  1143.87  1169.92  1236.18
                             1256.58  1291.27  1352.35  1382.73  1399.36
                             1416.27  1440.84  1505.31  1507.65  1524.16
                             1539.19  1544.32  1548.87  1553.05  1563.44
                             1578.13  1614.50  1649.13  1696.24  1721.89
                             1769.48  1851.39  1858.03  1878.66  1907.65
                             1923.83  1930.05  1992.37  2012.43  2025.26
                             2064.46  2070.35  2073.82  2078.78  2082.46
                             2084.58  2106.17  2128.37  2167.18  2171.86
                             2182.06  2183.64  2186.73  2189.81  2190.40
                             2198.37  2200.48  2209.47  2210.42  2227.93
                             2233.35  2269.91  2300.71  2343.68  2404.23
                             4330.18  4378.52  4382.57  4389.44  4391.77
                             4405.55  4441.76  4449.37  4460.20  4464.97
                             4476.96  4490.40  4498.18  4502.48  4509.36
                             4511.56  4512.06  4518.20  4542.13  4565.74
                             4568.46  5056.28

 Zero-point correction=                           0.355081 (Hartree/Particle)
 Thermal correction to Energy=                    0.375538
 Thermal correction to Enthalpy=                  0.376482
 Thermal correction to Gibbs Free Energy=         0.304172
 Sum of electronic and zero-point Energies=           -803.584541
 Sum of electronic and thermal Energies=              -803.564085
 Sum of electronic and thermal Enthalpies=            -803.563140
 Sum of electronic and thermal Free Energies=         -803.635450

                     E (Thermal)             CV                S
                      KCal/Mol        Cal/Mol-Kelvin    Cal/Mol-Kelvin
 Total                  235.653             74.381            152.188
 Electronic               0.000              0.000              0.000
 Translational            0.889              2.981             42.545
 Rotational               0.889              2.981             33.561
 Vibrational            233.876             68.419             76.081
 Vibration     1          0.594              1.984              5.791
 Vibration     2          0.594              1.983              5.542
 Vibration     3          0.594              1.982              5.373
 Vibration     4          0.595              1.979              5.019
 Vibration     5          0.595              1.977              4.798
 Vibration     6          0.597              1.973              4.418
 Vibration     7          0.603              1.954              3.577
 Vibration     8          0.608              1.937              3.180
 Vibration     9          0.610              1.930              3.051
 Vibration    10          0.611              1.927              3.000
 Vibration    11          0.613              1.919              2.887
 Vibration    12          0.622              1.889              2.527
 Vibration    13          0.634              1.853              2.221
 Vibration    14          0.650              1.802              1.912
 Vibration    15          0.653              1.794              1.871
 Vibration    16          0.657              1.782              1.813
 Vibration    17          0.669              1.742              1.648
 Vibration    18          0.673              1.731              1.604
 Vibration    19          0.680              1.712              1.537
 Vibration    20          0.695              1.666              1.396
 Vibration    21          0.711              1.620              1.271
 Vibration    22          0.741              1.538              1.088
 Vibration    23          0.749              1.517              1.046
 Vibration    24          0.788              1.414              0.872
 Vibration    25          0.801              1.381              0.824
 Vibration    26          0.863              1.232              0.638
 Vibration    27          0.871              1.215              0.620
 Vibration    28          0.883              1.189              0.592
 Vibration    29          0.919              1.111              0.517
 Vibration    30          0.937              1.074              0.485
 Vibration    31          0.957              1.034              0.452
 Vibration    32          0.970              1.008              0.431

                           ! Non-Optimized Parameters !
 Normal termination of Gaussian 16 at Sun Dec 13 17:01:51 2020.

 ----------------------------------------------------------------------
 # B3LYP/6-311++G(d,p) empiricaldispersion=gd3bj scf=xqc pop=npa geom=c
 heck
 ----------------------------------------------------------------------

 ---------------------------------------
 CID_112596926_JID_9754_Energie_neutraal
 ---------------------------------------
 Structure from the checkpoint file:  "JID_9754.chk"
 Charge =  0 Multiplicity = 1

 SCF Done:  E(RB3LYP) =  -804.150505389     A.U. after   14 cycles
 Normal termination of Gaussian 16 at Sun Dec 13 17:11:59 2020.

 ----------------------------------------------------------------------
 # B3LYP/6-311++G(d,p) empiricaldispersion=gd3bj scf=xqc pop=npa geom=c
 heck
 ----------------------------------------------------------------------

 -------------------------------------
 CID_112596926_JID_9754_Energie_kation
 -------------------------------------
 Structure from the checkpoint file:  "JID_9754.chk"
 Charge =  1 Multiplicity = 2

 SCF Done:  E(UB3LYP) =  -803.866656734     A.U. after   26 cycles
 Normal termination of Gaussian 16 at Sun Dec 13 17:39:38 2020.
 Gaussian 16:  ES64L-G16RevA.03 25-Dec-2016

 ----------------------------------------------------------------------
 # B3LYP/6-311++G(d,p) empiricaldispersion=gd3bj scf=xqc pop=npa geom=c
 heck
 ----------------------------------------------------------------------

 ------------------------------------
 CID_112596926_JID_9754_Energie_anion
 ------------------------------------
 Structure from the checkpoint file:  "JID_9754.chk"
 Charge = -1 Multiplicity = 2

                         Standard orientation:
 ---------------------------------------------------------------------
 Center     Atomic      Atomic             Coordinates (Angstroms)
 Number     Number       Type             X           Y           Z
 ---------------------------------------------------------------------
      1          6           0       -5.567835    0.918534    0.496658
      2          6           0       -4.193386    0.921430   -0.159834
      3          7           0       -3.573201   -0.415140   -0.048136
      4          6           0       -2.281140   -0.533489   -0.565242
      5          7           0       -1.939183   -1.144825   -1.676867
      6          7           0       -0.555208   -1.093618   -1.764596
      7          6           0       -0.109923   -0.440367   -0.713969
      8          7           0       -1.170702   -0.056023    0.089563
      9          6           0       -1.096530    0.443186    1.460032
     10          6           0       -1.327864   -0.665850    2.484884
     11          6           0        1.298453   -0.128540   -0.399168
     12          6           0        1.756637    1.200367   -0.478731
     13          6           0        3.088893    1.475066   -0.159273
     14          6           0        3.974475    0.465173    0.222678
     15          6           0        3.498437   -0.848367    0.282179
     16          6           0        2.174720   -1.166389   -0.024675
     17          6           0        1.694787   -2.595953    0.042883
     18          6           0        5.418992    0.775476    0.529777
     19          6           0        0.834840    2.312550   -0.920504
     20          1           0       -6.239801    0.209558   -0.002080
     21          1           0       -6.026804    1.910756    0.436057
     22          1           0       -5.491136    0.628947    1.549484
     23          1           0       -4.265357    1.240879   -1.211117
     24          1           0       -3.539902    1.640276    0.345057
     25          1           0       -4.152173   -1.099456   -0.531012
     26          1           0       -0.104433    0.883365    1.582078
     27          1           0       -1.831144    1.243707    1.583792
     28          1           0       -0.567596   -1.446586    2.379886
     29          1           0       -1.267192   -0.259753    3.500394
     30          1           0       -2.315147   -1.113216    2.342901
     31          1           0        3.445482    2.500820   -0.222710
     32          1           0        4.176733   -1.646804    0.575120
     33          1           0        0.863568   -2.707183    0.750187
     34          1           0        1.321423   -2.929538   -0.929820
     35          1           0        2.501154   -3.263516    0.360225
     36          1           0        6.055469    0.597695   -0.346945
     37          1           0        5.550422    1.822056    0.822545
     38          1           0        5.800394    0.144024    1.339419
     39          1           0        0.258912    2.018249   -1.804091
     40          1           0        0.110325    2.581358   -0.141162
     41          1           0        1.403518    3.214643   -1.164119
 ---------------------------------------------------------------------

 SCF Done:  E(UB3LYP) =  -804.141130836     A.U. after   33 cycles
 SCF Done:  E(UB3LYP) =  -804.141130836     a.u. after    1 cycles

 The electronic state is 2-A.
 Alpha  occ. eigenvalues --  -14.28270 -14.23863 -14.22572 -14.22266 -10.16564
 Alpha  occ. eigenvalues --  -10.14126 -10.13043 -10.11707 -10.10415 -10.10388
 Alpha  occ. eigenvalues --  -10.10163 -10.09888 -10.08624 -10.08467 -10.08423
 Alpha  occ. eigenvalues --  -10.08213 -10.08207 -10.07968 -10.07656  -0.96985
 Alpha  occ. eigenvalues --   -0.84773  -0.83096  -0.78639  -0.72530  -0.70226
 Alpha  occ. eigenvalues --   -0.69338  -0.68020  -0.65539  -0.62019  -0.60911
 Alpha  occ. eigenvalues --   -0.59902  -0.56983  -0.54061  -0.53581  -0.50346
 Alpha  occ. eigenvalues --   -0.49585  -0.47232  -0.43979  -0.41695  -0.40963
 Alpha  occ. eigenvalues --   -0.40199  -0.38117  -0.37691  -0.37002  -0.35354
 Alpha  occ. eigenvalues --   -0.34776  -0.34540  -0.33340  -0.33133  -0.32857
 Alpha  occ. eigenvalues --   -0.32472  -0.31969  -0.31580  -0.31196  -0.29925
 Alpha  occ. eigenvalues --   -0.29510  -0.29102  -0.28647  -0.27909  -0.26881
 Alpha  occ. eigenvalues --   -0.26100  -0.25814  -0.25618  -0.22393  -0.20239
 Alpha  occ. eigenvalues --   -0.19396  -0.16865  -0.16172  -0.16081  -0.13734
 Alpha  occ. eigenvalues --    0.03727
 Alpha virt. eigenvalues --    0.05178   0.05885   0.06419   0.06685   0.07001
 Alpha virt. eigenvalues --    0.07403   0.07715   0.08648   0.08874   0.09146
 Alpha virt. eigenvalues --    0.09648   0.09850   0.10560   0.10991   0.11232

  Beta  occ. eigenvalues --  -14.28270 -14.23856 -14.22572 -14.22258 -10.16558
  Beta  occ. eigenvalues --  -10.14121 -10.13016 -10.11680 -10.10415 -10.10386
  Beta  occ. eigenvalues --  -10.10163 -10.09886 -10.08594 -10.08457 -10.08412
  Beta  occ. eigenvalues --  -10.08207 -10.08189 -10.07944 -10.07615  -0.96975
  Beta  occ. eigenvalues --   -0.84755  -0.83083  -0.78631  -0.72516  -0.70214
  Beta  occ. eigenvalues --   -0.69319  -0.67984  -0.65498  -0.61990  -0.60886
  Beta  occ. eigenvalues --   -0.59879  -0.56928  -0.54022  -0.53511  -0.50316
  Beta  occ. eigenvalues --   -0.49563  -0.47205  -0.43944  -0.41672  -0.40936
  Beta  occ. eigenvalues --   -0.40181  -0.38091  -0.37662  -0.36966  -0.35326
  Beta  occ. eigenvalues --   -0.34747  -0.34519  -0.33315  -0.33118  -0.32834
  Beta  occ. eigenvalues --   -0.32455  -0.31952  -0.31546  -0.31157  -0.29882
  Beta  occ. eigenvalues --   -0.29462  -0.29045  -0.28630  -0.27877  -0.26838
  Beta  occ. eigenvalues --   -0.26081  -0.25798  -0.25603  -0.22381  -0.20216
  Beta  occ. eigenvalues --   -0.19375  -0.16852  -0.16160  -0.16067  -0.13716
  Beta virt. eigenvalues --    0.05609   0.05903   0.06134   0.06770   0.07012
  Beta virt. eigenvalues --    0.07281   0.07772   0.08205   0.08912   0.09119
  Beta virt. eigenvalues --    0.09414   0.10007   0.10188   0.10709   0.11231

 Mulliken charges and spin densities:
               1          2
     1  C    1.264331  -1.783218
     2  C   -0.622546   0.524990
     3  N   -0.109814   0.069926
     4  C   -0.285651   0.301113
     5  N   -0.088121  -0.030258
     6  N   -0.009016   0.041102
     7  C   -0.440675  -0.184359
     8  N    0.090179   0.052051
     9  C   -0.457904   0.268592
    10  C    0.713454  -1.263931
    11  C    0.045686   0.084594
    12  C    0.175769  -0.040475
    13  C   -0.157215  -0.260525
    14  C   -0.156622   0.549250
    15  C   -0.479955   0.111974
    16  C   -0.110220   0.323459
    17  C   -0.492252  -0.180191
    18  C    1.440771  -1.868900
    19  C    0.030424  -0.604081
    20  H   -0.147893   0.267434
    21  H   -0.354960   0.502143
    22  H   -0.254353   0.409451
    23  H    0.004453   0.157319
    24  H   -0.005552   0.141753
    25  H    0.180284   0.089350
    26  H    0.270941  -0.128165
    27  H   -0.371360   0.528512
    28  H    0.065186   0.068258
    29  H   -0.342638   0.499103
    30  H    0.091411   0.083153
    31  H   -0.115736   0.270220
    32  H   -0.052735   0.185659
    33  H    0.135442  -0.004754
    34  H    0.187705   0.011493
    35  H    0.015323   0.133145
    36  H    0.030635   0.136840
    37  H   -0.277671   0.431694
    38  H   -0.182252   0.329822
    39  H    0.193343   0.001695
    40  H   -0.254190   0.453354
    41  H   -0.166006   0.321409
 Sum of Mulliken charges =  -1.00000   1.00000

 Dipole moment (field-independent basis, Debye):
    X=              2.6431    Y=             -3.3691    Z=             -1.3838  Tot=              4.5002
 Quadrupole moment (field-independent basis, Debye-Ang):
   XX=           -221.0478   YY=           -158.0692   ZZ=           -165.2542
   XY=              4.4902   XZ=              2.5230   YZ=            -11.1343

 Summary of Natural Population Analysis:

                                       Natural Population
                Natural  -----------------------------------------------
    Atom  No    Charge         Core      Valence    Rydberg      Total
 -----------------------------------------------------------------------
      C    1   -0.28887      0.99967     2.28359    0.00561     3.28887
      C    2   -0.08376      0.99962     2.07460    0.00954     3.08376
      N    3   -0.33710      0.99969     2.82699    0.01042     3.83710
      C    4    0.27484      0.99958     1.70717    0.01842     2.72516
      N    5   -0.18122      0.99968     2.66963    0.01192     3.68122
      N    6   -0.16340      0.99968     2.65168    0.01204     3.66340
      C    7    0.18491      0.99956     1.79695    0.01857     2.81509
      N    8   -0.22054      0.99958     2.71013    0.01083     3.72054
      C    9   -0.08698      0.99961     2.07636    0.01100     3.08698
      C   10   -0.28950      0.99965     2.28483    0.00501     3.28950
      C   11   -0.05731      0.99939     2.04699    0.01092     3.05731
      C   12    0.00675      0.99949     1.98452    0.00925     2.99325
      C   13   -0.10515      0.99946     2.09640    0.00929     3.10515
      C   14   -0.00447      0.99952     1.99562    0.00933     3.00447
      C   15   -0.10637      0.99947     2.09786    0.00904     3.10637
      C   16    0.00911      0.99949     1.98233    0.00907     2.99089
      C   17   -0.29621      0.99963     2.29212    0.00446     3.29621
      C   18   -0.29162      0.99964     2.28689    0.00510     3.29162
      C   19   -0.29726      0.99963     2.29213    0.00550     3.29726
      H   20    0.09443      0.00000     0.40447    0.00110     0.40557
      H   21    0.10423      0.00000     0.39441    0.00136     0.39577
      H   22    0.10354      0.00000     0.39502    0.00145     0.39646
      H   23    0.08461      0.00000     0.41398    0.00142     0.41539
      H   24    0.09411      0.00000     0.40369    0.00220     0.40589
      H   25    0.18565      0.00000     0.31136    0.00300     0.31435
      H   26    0.10642      0.00000     0.39186    0.00171     0.39358
      H   27    0.10310      0.00000     0.39463    0.00227     0.39690
      H   28    0.09734      0.00000     0.40164    0.00102     0.40266
      H   29    0.10440      0.00000     0.39454    0.00106     0.39560
      H   30    0.10724      0.00000     0.39150    0.00126     0.39276
      H   31    0.09929      0.00000     0.39941    0.00130     0.40071
      H   32    0.09733      0.00000     0.40138    0.00130     0.40267
      H   33    0.10438      0.00000     0.39452    0.00110     0.39562
      H   34    0.11577      0.00000     0.38309    0.00114     0.38423
      H   35    0.09940      0.00000     0.39988    0.00072     0.40060
      H   36    0.10464      0.00000     0.39422    0.00114     0.39536
      H   37    0.10425      0.00000     0.39456    0.00118     0.39575
      H   38    0.10382      0.00000     0.39501    0.00117     0.39618
      H   39    0.10968      0.00000     0.38932    0.00101     0.39032
      H   40    0.10709      0.00000     0.39160    0.00131     0.39291
      H   41    0.10346      0.00000     0.39577    0.00078     0.39654
 =======================================================================
   * Total *   -0.00000     18.99204    50.79264    0.21532    70.00000

 Normal termination of Gaussian 16 at Sun Dec 13 18:14:37 2020.
