 Gaussian 16, Revision A.03,

 -----------------------------------------------------------
 # opt freq B3LYP/6-31G(d) empiricaldispersion=gd3bj scf=xqc
 -----------------------------------------------------------

 -------------------------------
 CID_117124472_JID_6861_neutraal
 -------------------------------
 Symbolic Z-matrix:
 Charge =  0 Multiplicity = 1

 SCF Done:  E(RB3LYP) =  -730.504857851     A.U. after   14 cycles
 SCF Done:  E(RB3LYP) =  -730.509577633     A.U. after   12 cycles
 SCF Done:  E(RB3LYP) =  -730.510214554     A.U. after   11 cycles
 SCF Done:  E(RB3LYP) =  -730.510090940     A.U. after   12 cycles
 SCF Done:  E(RB3LYP) =  -730.510727945     A.U. after   11 cycles
 SCF Done:  E(RB3LYP) =  -730.511040328     A.U. after   12 cycles
 SCF Done:  E(RB3LYP) =  -730.511557210     A.U. after   13 cycles
 SCF Done:  E(RB3LYP) =  -730.511991574     A.U. after   12 cycles
 SCF Done:  E(RB3LYP) =  -730.512880956     A.U. after   11 cycles
 SCF Done:  E(RB3LYP) =  -730.511701259     A.U. after   12 cycles
 SCF Done:  E(RB3LYP) =  -730.514835774     A.U. after    9 cycles
 SCF Done:  E(RB3LYP) =  -730.514837652     A.U. after    9 cycles
 SCF Done:  E(RB3LYP) =  -730.514837883     A.U. after    8 cycles
 SCF Done:  E(RB3LYP) =  -730.514837923     A.U. after    7 cycles
 SCF Done:  E(RB3LYP) =  -730.514837936     A.U. after    6 cycles
 Optimization completed.
    -- Stationary point found.
 Normal termination of Gaussian 16 at Fri Dec 11 01:13:04 2020.

 --------------------------------------------------------------------
 #N Geom=AllCheck Guess=TCheck SCRF=Check GenChk RB3LYP/6-31G(d) Freq
 --------------------------------------------------------------------

 Structure from the checkpoint file:  "JID_6861.chk"
 -------------------------------
 CID_117124472_JID_6861_neutraal
 -------------------------------
 Charge =  0 Multiplicity = 1

 SCF Done:  E(RB3LYP) =  -730.514837936     A.U. after    1 cycles

  Exact polarizability: 174.370   0.806 148.925   0.455  -3.140 112.268
 Approx polarizability: 229.904  -1.079 220.669   0.555  -6.331 163.550

                      1                      2                      3
                      A                      A                      A
 Frequencies --     27.7823                44.7436                67.2424
 Red. masses --      2.7818                 3.2033                 2.8476
 Frc consts  --      0.0013                 0.0038                 0.0076
 IR Inten    --      0.7619                 0.8216                 0.9267

                      4                      5                      6
                      A                      A                      A
 Frequencies --     82.5211               113.2535               128.4169
 Red. masses --      3.8479                 4.4055                 4.2658
 Frc consts  --      0.0154                 0.0333                 0.0414
 IR Inten    --      0.3866                 4.3988                 1.5184

                      7                      8                      9
                      A                      A                      A
 Frequencies --    145.1137               167.5492               185.5023
 Red. masses --      3.4338                 3.9712                 3.1658
 Frc consts  --      0.0426                 0.0657                 0.0642
 IR Inten    --      1.1552                 0.1555                 2.7749

                     10                     11                     12
                      A                      A                      A
 Frequencies --    210.5832               230.4160               244.4752
 Red. masses --      1.1150                 1.0686                 1.2587
 Frc consts  --      0.0291                 0.0334                 0.0443
 IR Inten    --      2.8124                 0.0182                 8.3381

                     13                     14                     15
                      A                      A                      A
 Frequencies --    248.7422               257.0418               268.0750
 Red. masses --      1.4524                 1.3799                 1.7717
 Frc consts  --      0.0529                 0.0537                 0.0750
 IR Inten    --      0.5490                 1.7632                 0.6921

                     16                     17                     18
                      A                      A                      A
 Frequencies --    275.4849               289.4664               298.9130
 Red. masses --      1.3188                 1.2372                 2.1099
 Frc consts  --      0.0590                 0.0611                 0.1111
 IR Inten    --      0.7374                 4.1181                 3.7698

                     19                     20                     21
                      A                      A                      A
 Frequencies --    310.6145               331.7267               341.5672
 Red. masses --      1.8587                 2.3828                 1.4873
 Frc consts  --      0.1057                 0.1545                 0.1022
 IR Inten    --      9.6336                 6.6525                69.6978

                     22                     23                     24
                      A                      A                      A
 Frequencies --    361.5009               365.1802               405.8911
 Red. masses --      2.5519                 2.7939                 3.2581
 Frc consts  --      0.1965                 0.2195                 0.3162
 IR Inten    --     14.5509                 3.0943                 4.2360

                     25                     26                     27
                      A                      A                      A
 Frequencies --    412.2705               452.4008               474.6242
 Red. masses --      2.9238                 2.7270                 4.3777
 Frc consts  --      0.2928                 0.3288                 0.5810
 IR Inten    --      2.8845                 1.0380                 7.5905

                     28                     29                     30
                      A                      A                      A
 Frequencies --    510.7392               561.8060               606.5986
 Red. masses --      4.5591                 2.8894                 3.8557
 Frc consts  --      0.7007                 0.5373                 0.8359
 IR Inten    --      6.8202                 2.9120                 2.1414

                     31                     32                     33
                      A                      A                      A
 Frequencies --    654.8843               686.9848               732.3746
 Red. masses --      4.0585                 9.2525                 5.3342
 Frc consts  --      1.0255                 2.5728                 1.6857
 IR Inten    --      2.4837                 3.7454                18.2119

                     34                     35                     36
                      A                      A                      A
 Frequencies --    758.5210               793.4661               860.4412
 Red. masses --      5.8735                 3.8092                 2.3534
 Frc consts  --      1.9910                 1.4130                 1.0265
 IR Inten    --      3.2812                13.2804                 2.7957

                     37                     38                     39
                      A                      A                      A
 Frequencies --    910.8314               942.5200               950.2379
 Red. masses --      2.3241                 1.7636                 1.7196
 Frc consts  --      1.1360                 0.9230                 0.9149
 IR Inten    --      5.3601                 0.2254                 1.4524

                     40                     41                     42
                      A                      A                      A
 Frequencies --    950.7607               963.6519               976.0983
 Red. masses --      1.2240                 1.4142                 1.1969
 Frc consts  --      0.6519                 0.7737                 0.6719
 IR Inten    --      1.3395                 0.1079                 0.0306

                     43                     44                     45
                      A                      A                      A
 Frequencies --   1004.5085              1014.6549              1051.1550
 Red. masses --      2.7412                 3.7280                 2.4567
 Frc consts  --      1.6297                 2.2613                 1.5993
 IR Inten    --     88.2920                44.9730                 3.4898

                     46                     47                     48
                      A                      A                      A
 Frequencies --   1062.2442              1065.5610              1102.5616
 Red. masses --      1.3935                 1.9918                 2.8577
 Frc consts  --      0.9264                 1.3324                 2.0468
 IR Inten    --      0.2427                16.8484               106.8222

                     49                     50                     51
                      A                      A                      A
 Frequencies --   1152.8970              1164.2444              1189.9719
 Red. masses --      2.5747                 2.1956                 1.2551
 Frc consts  --      2.0163                 1.7534                 1.0471
 IR Inten    --     25.7509                 7.0676                 2.4780

                     52                     53                     54
                      A                      A                      A
 Frequencies --   1199.5147              1212.4598              1232.6039
 Red. masses --      2.1788                 1.3396                 1.6165
 Frc consts  --      1.8470                 1.1603                 1.4470
 IR Inten    --      4.9604                12.7846                 6.6720

                     55                     56                     57
                      A                      A                      A
 Frequencies --   1243.9010              1244.8993              1260.2275
 Red. masses --      2.5653                 2.3948                 2.8662
 Frc consts  --      2.3386                 2.1867                 2.6819
 IR Inten    --      9.6101                11.6874                 2.8955

                     58                     59                     60
                      A                      A                      A
 Frequencies --   1279.0661              1315.8958              1358.8536
 Red. masses --      2.2701                 4.0512                 1.2094
 Frc consts  --      2.1882                 4.1331                 1.3157
 IR Inten    --      4.5064                64.6787                28.6607

                     61                     62                     63
                      A                      A                      A
 Frequencies --   1375.1530              1392.6193              1423.4920
 Red. masses --      1.3304                 2.0105                 1.4577
 Frc consts  --      1.4823                 2.2973                 1.7403
 IR Inten    --      2.7921                67.0047                16.5686

                     64                     65                     66
                      A                      A                      A
 Frequencies --   1425.3683              1426.2095              1430.6623
 Red. masses --      1.2665                 1.2711                 1.6683
 Frc consts  --      1.5160                 1.5234                 2.0119
 IR Inten    --      9.2048                12.2673                44.9167

                     67                     68                     69
                      A                      A                      A
 Frequencies --   1442.5835              1450.3908              1454.3611
 Red. masses --      1.3043                 1.6352                 1.3213
 Frc consts  --      1.5992                 2.0267                 1.6466
 IR Inten    --     33.4899                48.9761                 8.3491

                     70                     71                     72
                      A                      A                      A
 Frequencies --   1491.3664              1497.4344              1508.6177
 Red. masses --      2.4151                 1.6458                 1.0517
 Frc consts  --      3.1649                 2.1743                 1.4102
 IR Inten    --     12.1136                38.7011                 1.1310

                     73                     74                     75
                      A                      A                      A
 Frequencies --   1514.4313              1514.5169              1519.3444
 Red. masses --      1.0484                 1.0465                 1.0477
 Frc consts  --      1.4167                 1.4143                 1.4249
 IR Inten    --      0.9128                 0.1731                 0.2781

                     76                     77                     78
                      A                      A                      A
 Frequencies --   1525.9011              1526.6063              1527.1750
 Red. masses --      1.0740                 1.0502                 1.0495
 Frc consts  --      1.4733                 1.4420                 1.4422
 IR Inten    --     22.7564                 4.9039                 0.5377

                     79                     80                     81
                      A                      A                      A
 Frequencies --   1531.4273              1534.2421              1543.4422
 Red. masses --      1.0546                 1.0666                 1.0823
 Frc consts  --      1.4572                 1.4792                 1.5191
 IR Inten    --      4.5332                 3.4126                18.1399

                     82                     83                     84
                      A                      A                      A
 Frequencies --   1546.3327              1552.7285              1562.7190
 Red. masses --      1.0680                 1.1344                 1.9062
 Frc consts  --      1.5047                 1.6115                 2.7427
 IR Inten    --      3.2278                 1.7567                76.0448

                     85                     86                     87
                      A                      A                      A
 Frequencies --   1565.5469              1605.4723              3046.7356
 Red. masses --      1.6231                 4.7784                 1.0361
 Frc consts  --      2.3438                 7.2566                 5.6665
 IR Inten    --     28.9192               181.9679                27.6699

                     88                     89                     90
                      A                      A                      A
 Frequencies --   3049.4005              3051.1460              3058.4298
 Red. masses --      1.0370                 1.0338                 1.0381
 Frc consts  --      5.6815                 5.6705                 5.7214
 IR Inten    --     15.6473                45.8916                33.7993

                     91                     92                     93
                      A                      A                      A
 Frequencies --   3059.8401              3064.2666              3077.7466
 Red. masses --      1.0355                 1.0360                 1.0665
 Frc consts  --      5.7122                 5.7314                 5.9523
 IR Inten    --     21.7081                24.3453                58.8478

                     94                     95                     96
                      A                      A                      A
 Frequencies --   3104.7538              3109.6967              3115.2966
 Red. masses --      1.0865                 1.1022                 1.1002
 Frc consts  --      6.1708                 6.2799                 6.2911
 IR Inten    --      1.6698                19.8170                34.3213

                     97                     98                     99
                      A                      A                      A
 Frequencies --   3119.4058              3126.7016              3127.9507
 Red. masses --      1.0970                 1.0997                 1.1024
 Frc consts  --      6.2895                 6.3341                 6.3548
 IR Inten    --     54.3240                53.4515                 9.3312

                    100                    101                    102
                      A                      A                      A
 Frequencies --   3128.5395              3131.4595              3131.7940
 Red. masses --      1.1009                 1.1026                 1.1033
 Frc consts  --      6.3484                 6.3706                 6.3756
 IR Inten    --      9.8135                40.6545                41.6631

                    103                    104                    105
                      A                      A                      A
 Frequencies --   3134.1438              3144.1739              3146.8361
 Red. masses --      1.1007                 1.1021                 1.1030
 Frc consts  --      6.3703                 6.4191                 6.4352
 IR Inten    --     25.1842                23.9722                 3.9107

                    106                    107                    108
                      A                      A                      A
 Frequencies --   3153.0565              3168.0080              3736.2928
 Red. masses --      1.1008                 1.1069                 1.0660
 Frc consts  --      6.4478                 6.5450                 8.7677
 IR Inten    --     30.7419                10.0134                10.2380

 - Thermochemistry -
 -------------------
 Temperature   298.150 Kelvin.  Pressure   1.00000 Atm.
 Atom     1 has atomic number  6 and mass  12.00000

 Molecular mass:   226.16813 amu.
 Principal axes and moments of inertia in atomic units:
                           1         2         3
     Eigenvalues --  2622.737654350.014006019.20373
           X            0.99999   0.00408   0.00234
           Y           -0.00406   0.99996  -0.00820
           Z           -0.00238   0.00819   0.99996
 This molecule is an asymmetric top.
 Rotational symmetry number  1.
 Warning -- assumption of classical behavior for rotation
           may cause significant error
 Rotational temperatures (Kelvin)      0.03302     0.01991     0.01439
 Rotational constants (GHZ):           0.68811     0.41488     0.29983
 Zero-point vibrational energy     883023.8 (Joules/Mol)
                                  211.04776 (Kcal/Mol)
 Warning -- explicit consideration of  30 degrees of freedom as
           vibrations may cause significant error
 Vibrational temperatures:     39.97    64.38    96.75   118.73   162.95
          (Kelvin)            184.76   208.79   241.07   266.90   302.98
                              331.52   351.75   357.88   369.83   385.70
                              396.36   416.48   430.07   446.91   477.28
                              491.44   520.12   525.41   583.99   593.17
                              650.90   682.88   734.84   808.31   872.76
                              942.23   988.42  1053.72  1091.34  1141.62
                             1237.98  1310.48  1356.08  1367.18  1367.93
                             1386.48  1404.39  1445.26  1459.86  1512.38
                             1528.33  1533.10  1586.34  1658.76  1675.09
                             1712.10  1725.83  1744.46  1773.44  1789.70
                             1791.13  1813.19  1840.29  1893.28  1955.09
                             1978.54  2003.67  2048.09  2050.79  2052.00
                             2058.40  2075.56  2086.79  2092.50  2145.74
                             2154.47  2170.56  2178.93  2179.05  2186.00
                             2195.43  2196.45  2197.26  2203.38  2207.43
                             2220.67  2224.83  2234.03  2248.40  2252.47
                             2309.92  4383.57  4387.41  4389.92  4400.40
                             4402.43  4408.80  4428.19  4467.05  4474.16
                             4482.22  4488.13  4498.63  4500.42  4501.27
                             4505.47  4505.95  4509.33  4523.77  4527.60
                             4536.55  4558.06  5375.69

 Zero-point correction=                           0.336326 (Hartree/Particle)
 Thermal correction to Energy=                    0.354845
 Thermal correction to Enthalpy=                  0.355789
 Thermal correction to Gibbs Free Energy=         0.290631
 Sum of electronic and zero-point Energies=           -730.178512
 Sum of electronic and thermal Energies=              -730.159993
 Sum of electronic and thermal Enthalpies=            -730.159049
 Sum of electronic and thermal Free Energies=         -730.224207

                     E (Thermal)             CV                S
                      KCal/Mol        Cal/Mol-Kelvin    Cal/Mol-Kelvin
 Total                  222.669             69.262            137.138
 Electronic               0.000              0.000              0.000
 Translational            0.889              2.981             42.151
 Rotational               0.889              2.981             32.596
 Vibrational            220.891             63.300             62.391
 Vibration     1          0.593              1.984              5.982
 Vibration     2          0.595              1.980              5.037
 Vibration     3          0.598              1.970              4.232
 Vibration     4          0.600              1.961              3.830
 Vibration     5          0.607              1.938              3.212
 Vibration     6          0.611              1.925              2.970
 Vibration     7          0.617              1.908              2.735
 Vibration     8          0.624              1.882              2.463
 Vibration     9          0.632              1.860              2.272
 Vibration    10          0.643              1.825              2.039
 Vibration    11          0.652              1.795              1.876
 Vibration    12          0.660              1.772              1.770
 Vibration    13          0.662              1.765              1.739
 Vibration    14          0.667              1.751              1.682
 Vibration    15          0.673              1.732              1.609
 Vibration    16          0.677              1.719              1.562
 Vibration    17          0.686              1.693              1.477
 Vibration    18          0.692              1.676              1.423
 Vibration    19          0.699              1.653              1.359
 Vibration    20          0.714              1.612              1.252
 Vibration    21          0.721              1.592              1.205
 Vibration    22          0.736              1.552              1.116
 Vibration    23          0.738              1.544              1.100
 Vibration    24          0.771              1.457              0.941
 Vibration    25          0.776              1.444              0.919
 Vibration    26          0.811              1.356              0.789
 Vibration    27          0.831              1.306              0.725
 Vibration    28          0.866              1.226              0.632
 Vibration    29          0.918              1.114              0.520
 Vibration    30          0.965              1.018              0.438

 Optimization completed.
    -- Stationary point found.
 Normal termination of Gaussian 16 at Fri Dec 11 01:27:28 2020.

 ----------------------------------------------------------------------
 # B3LYP/6-311++G(d,p) empiricaldispersion=gd3bj scf=xqc pop=npa geom=c
 heck
 ----------------------------------------------------------------------

 ---------------------------------------
 CID_117124472_JID_6861_Energie_neutraal
 ---------------------------------------
 Structure from the checkpoint file:  "JID_6861.chk"
 Charge =  0 Multiplicity = 1

 SCF Done:  E(RB3LYP) =  -730.725088781     A.U. after   15 cycles
 Normal termination of Gaussian 16 at Fri Dec 11 01:34:57 2020.

 ----------------------------------------------------------------------
 # B3LYP/6-311++G(d,p) empiricaldispersion=gd3bj scf=xqc pop=npa geom=c
 heck
 ----------------------------------------------------------------------

 -------------------------------------
 CID_117124472_JID_6861_Energie_kation
 -------------------------------------
 Structure from the checkpoint file:  "JID_6861.chk"
 Charge =  1 Multiplicity = 2

 SCF Done:  E(UB3LYP) =  -730.435797478     A.U. after   25 cycles
 Normal termination of Gaussian 16 at Fri Dec 11 01:52:23 2020.
 Gaussian 16:  ES64L-G16RevA.03 25-Dec-2016

 ----------------------------------------------------------------------
 # B3LYP/6-311++G(d,p) empiricaldispersion=gd3bj scf=xqc pop=npa geom=c
 heck
 ----------------------------------------------------------------------

 ------------------------------------
 CID_117124472_JID_6861_Energie_anion
 ------------------------------------
 Structure from the checkpoint file:  "JID_6861.chk"
 Charge = -1 Multiplicity = 2

                         Standard orientation:
 ---------------------------------------------------------------------
 Center     Atomic      Atomic             Coordinates (Angstroms)
 Number     Number       Type             X           Y           Z
 ---------------------------------------------------------------------
      1          6           0        3.205607   -1.557355   -1.113768
      2          6           0        2.341805   -1.626033    0.149062
      3          6           0        3.109519   -1.246286    1.419043
      4          7           0        1.125768   -0.819695    0.005042
      5          6           0        0.999785    0.518562   -0.175432
      6          6           0       -0.365121    0.812558   -0.253466
      7          6           0       -0.992458   -0.464686   -0.076666
      8          7           0       -0.091946   -1.431858    0.068456
      9          6           0       -2.473420   -0.810136   -0.036906
     10          6           0       -3.181589    0.016293    1.059762
     11          6           0       -3.122942   -0.535746   -1.411003
     12          6           0       -2.656069   -2.302791    0.292736
     13          6           0       -1.019760    2.151113   -0.397870
     14          8           0       -1.005537    2.932781    0.810953
     15          8           0        2.139106    1.241045   -0.224520
     16          6           0        2.039901    2.667132   -0.288318
     17          1           0        3.589744   -0.545779   -1.269911
     18          1           0        2.622809   -1.849968   -1.992808
     19          1           0        4.056719   -2.240400   -1.019752
     20          1           0        1.948568   -2.639851    0.258930
     21          1           0        3.489947   -0.223387    1.353755
     22          1           0        2.459341   -1.322926    2.296221
     23          1           0        3.959035   -1.923704    1.557781
     24          1           0       -3.120966    1.094127    0.881288
     25          1           0       -4.244097   -0.249741    1.106818
     26          1           0       -2.738988   -0.192141    2.040700
     27          1           0       -2.632023   -1.128438   -2.190183
     28          1           0       -4.184261   -0.810888   -1.389493
     29          1           0       -3.057250    0.517392   -1.700002
     30          1           0       -2.173164   -2.934951   -0.457019
     31          1           0       -2.216918   -2.550379    1.263394
     32          1           0       -3.725025   -2.544028    0.319978
     33          1           0       -0.521152    2.774818   -1.143159
     34          1           0       -2.050704    2.020991   -0.742305
     35          1           0       -1.190766    2.313181    1.534663
     36          1           0        3.035505    3.040183   -0.043040
     37          1           0        1.774598    2.988538   -1.301663
     38          1           0        1.302196    3.041860    0.426822
 ---------------------------------------------------------------------

 SCF Done:  E(UB3LYP) =  -730.711291158     A.U. after   33 cycles
 SCF Done:  E(UB3LYP) =  -730.711291158     a.u. after    1 cycles

 The electronic state is 2-A.
 Alpha  occ. eigenvalues --  -19.07085 -19.02974 -14.28008 -14.22165 -10.16839
 Alpha  occ. eigenvalues --  -10.12840 -10.12618 -10.12306 -10.09925 -10.09704
 Alpha  occ. eigenvalues --  -10.07206 -10.06958 -10.06871 -10.06689 -10.06577
 Alpha  occ. eigenvalues --  -10.06036  -0.99518  -0.93748  -0.92772  -0.76730
 Alpha  occ. eigenvalues --   -0.72035  -0.69711  -0.66413  -0.62299  -0.59806
 Alpha  occ. eigenvalues --   -0.59781  -0.58989  -0.58619  -0.53222  -0.51007
 Alpha  occ. eigenvalues --   -0.47176  -0.44674  -0.42996  -0.39629  -0.39070
 Alpha  occ. eigenvalues --   -0.38651  -0.37286  -0.35824  -0.35625  -0.35038
 Alpha  occ. eigenvalues --   -0.34630  -0.34097  -0.33830  -0.33130  -0.30711
 Alpha  occ. eigenvalues --   -0.30051  -0.29675  -0.29029  -0.28785  -0.27448
 Alpha  occ. eigenvalues --   -0.26400  -0.26066  -0.25772  -0.25198  -0.24766
 Alpha  occ. eigenvalues --   -0.23861  -0.23604  -0.23339  -0.19129  -0.18816
 Alpha  occ. eigenvalues --   -0.14492  -0.12529   0.04198
 Alpha virt. eigenvalues --    0.05979   0.06595   0.07234   0.08089   0.08536
 Alpha virt. eigenvalues --    0.08690   0.09052   0.09810   0.10347   0.10499
 Alpha virt. eigenvalues --    0.10724   0.11107   0.11607   0.12082   0.12471

  Beta  occ. eigenvalues --  -19.07078 -19.02956 -14.28008 -14.22161 -10.16833
  Beta  occ. eigenvalues --  -10.12822 -10.12575 -10.12301 -10.09923 -10.09703
  Beta  occ. eigenvalues --  -10.07205 -10.06933 -10.06852 -10.06664 -10.06548
  Beta  occ. eigenvalues --  -10.06025  -0.99506  -0.93741  -0.92737  -0.76721
  Beta  occ. eigenvalues --   -0.72020  -0.69691  -0.66387  -0.62248  -0.59762
  Beta  occ. eigenvalues --   -0.59731  -0.58960  -0.58564  -0.53188  -0.50976
  Beta  occ. eigenvalues --   -0.47148  -0.44640  -0.42959  -0.39600  -0.39045
  Beta  occ. eigenvalues --   -0.38622  -0.37255  -0.35795  -0.35589  -0.35008
  Beta  occ. eigenvalues --   -0.34603  -0.34063  -0.33797  -0.33111  -0.30683
  Beta  occ. eigenvalues --   -0.30024  -0.29643  -0.29000  -0.28761  -0.27429
  Beta  occ. eigenvalues --   -0.26370  -0.26040  -0.25746  -0.25174  -0.24744
  Beta  occ. eigenvalues --   -0.23840  -0.23583  -0.23314  -0.19109  -0.18797
  Beta  occ. eigenvalues --   -0.14481  -0.12515
  Beta virt. eigenvalues --    0.06098   0.06792   0.07392   0.07736   0.08585
  Beta virt. eigenvalues --    0.08859   0.08980   0.09460   0.10084   0.10645
  Beta virt. eigenvalues --    0.10673   0.10960   0.11354   0.11930   0.12279

 Mulliken charges and spin densities:
               1          2
     1  C    0.828409  -1.238529
     2  C   -2.009043   1.741952
     3  C    1.066674  -1.474912
     4  N    0.612023  -0.170854
     5  C   -1.695352   1.188309
     6  C    1.046104  -0.362022
     7  C    2.276113  -2.612097
     8  N   -0.270352   0.304549
     9  C   -2.119288   2.997274
    10  C    0.014727  -0.622230
    11  C    0.035007  -0.635974
    12  C    0.155122  -0.774471
    13  C    0.319794  -1.540544
    14  O   -0.223551   0.042449
    15  O   -0.208666   0.047290
    16  C    0.879583  -1.156563
    17  H   -0.119880   0.293940
    18  H   -0.002048   0.143003
    19  H   -0.296136   0.451020
    20  H   -0.003005   0.191860
    21  H   -0.093465   0.268199
    22  H   -0.063297   0.204133
    23  H   -0.280011   0.430864
    24  H    0.061577   0.069433
    25  H   -0.131492   0.280583
    26  H   -0.139847   0.302723
    27  H   -0.058806   0.224744
    28  H   -0.059843   0.210229
    29  H   -0.040748   0.142931
    30  H    0.115283   0.046909
    31  H    0.084279   0.074987
    32  H   -0.044330   0.187952
    33  H   -0.081126   0.255969
    34  H    0.153054  -0.001833
    35  H    0.063047   0.170315
    36  H   -0.604227   0.788580
    37  H   -0.200842   0.362117
    38  H    0.034561   0.167715
 Sum of Mulliken charges =  -1.00000   1.00000

 Dipole moment (field-independent basis, Debye):
    X=             -3.3430    Y=             -1.3833    Z=             -0.4169  Tot=              3.6419
 Quadrupole moment (field-independent basis, Debye-Ang):
   XX=           -178.2770   YY=           -154.8239   ZZ=           -136.3198
   XY=             -1.8617   XZ=             -0.0891   YZ=              0.3794

 Summary of Natural Population Analysis:

                                       Natural Population
                Natural  -----------------------------------------------
    Atom  No    Charge         Core      Valence    Rydberg      Total
 -----------------------------------------------------------------------
      C    1   -0.28876      0.99964     2.28443    0.00469     3.28876
      C    2   -0.00532      0.99960     1.99291    0.01281     3.00532
      C    3   -0.29050      0.99964     2.28534    0.00552     3.29050
      N    4   -0.12508      0.99961     2.61047    0.01500     3.62508
      C    5    0.27231      0.99934     1.71310    0.01525     2.72769
      C    6   -0.13235      0.99942     2.12378    0.00915     3.13235
      C    7    0.09565      0.99952     1.88854    0.01629     2.90435
      N    8   -0.16589      0.99969     2.65562    0.01057     3.66589
      C    9   -0.05960      0.99956     2.04895    0.01109     3.05960
      C   10   -0.28287      0.99963     2.27544    0.00780     3.28287
      C   11   -0.27722      0.99963     2.27186    0.00573     3.27722
      C   12   -0.28084      0.99964     2.27469    0.00651     3.28084
      C   13   -0.02295      0.99955     2.01182    0.01158     3.02295
      O   14   -0.37303      0.99990     3.36683    0.00630     4.37303
      O   15   -0.27247      0.99985     3.26320    0.00941     4.27247
      C   16   -0.10202      0.99958     2.09350    0.00894     3.10202
      H   17    0.10686      0.00000     0.39147    0.00167     0.39314
      H   18    0.10201      0.00000     0.39683    0.00116     0.39799
      H   19    0.10017      0.00000     0.39876    0.00107     0.39983
      H   20    0.10605      0.00000     0.39221    0.00174     0.39395
      H   21    0.10673      0.00000     0.39167    0.00159     0.39327
      H   22    0.10274      0.00000     0.39608    0.00118     0.39726
      H   23    0.10036      0.00000     0.39857    0.00107     0.39964
      H   24    0.09858      0.00000     0.40010    0.00132     0.40142
      H   25    0.09872      0.00000     0.40038    0.00090     0.40128
      H   26    0.10201      0.00000     0.39692    0.00107     0.39799
      H   27    0.10246      0.00000     0.39653    0.00101     0.39754
      H   28    0.09676      0.00000     0.40225    0.00099     0.40324
      H   29    0.09769      0.00000     0.40106    0.00125     0.40231
      H   30    0.10580      0.00000     0.39312    0.00108     0.39420
      H   31    0.10489      0.00000     0.39404    0.00107     0.39511
      H   32    0.09409      0.00000     0.40504    0.00088     0.40591
      H   33    0.09226      0.00000     0.40609    0.00164     0.40774
      H   34    0.08504      0.00000     0.41309    0.00188     0.41496
      H   35    0.22958      0.00000     0.26694    0.00349     0.27042
      H   36    0.09437      0.00000     0.40398    0.00164     0.40563
      H   37    0.08466      0.00000     0.41365    0.00169     0.41534
      H   38    0.09913      0.00000     0.39905    0.00182     0.40087
 =======================================================================
   * Total *    0.00000     15.99381    45.81833    0.18787    62.00000

 Normal termination of Gaussian 16 at Fri Dec 11 02:15:06 2020.
