 Gaussian 16, Revision A.03,

 -----------------------------------------------------------
 # opt freq B3LYP/6-31G(d) empiricaldispersion=gd3bj scf=xqc
 -----------------------------------------------------------

 ------------------------------
 CID_79021723_JID_8576_neutraal
 ------------------------------
 Symbolic Z-matrix:
 Charge =  0 Multiplicity = 1

 SCF Done:  E(RB3LYP) =  -1162.03199517     A.U. after   15 cycles
 SCF Done:  E(RB3LYP) =  -1162.03761805     A.U. after   13 cycles
 SCF Done:  E(RB3LYP) =  -1162.03691196     A.U. after   13 cycles
 SCF Done:  E(RB3LYP) =  -1162.03884726     A.U. after   12 cycles
 SCF Done:  E(RB3LYP) =  -1162.03877529     A.U. after   12 cycles
 SCF Done:  E(RB3LYP) =  -1162.03932369     A.U. after   12 cycles
 SCF Done:  E(RB3LYP) =  -1162.03950363     A.U. after   12 cycles
 SCF Done:  E(RB3LYP) =  -1162.03960062     A.U. after   12 cycles
 SCF Done:  E(RB3LYP) =  -1162.03964727     A.U. after   10 cycles
 SCF Done:  E(RB3LYP) =  -1162.03971302     A.U. after   11 cycles
 SCF Done:  E(RB3LYP) =  -1162.03988122     A.U. after   10 cycles
 SCF Done:  E(RB3LYP) =  -1162.03988605     A.U. after   11 cycles
 SCF Done:  E(RB3LYP) =  -1162.03988789     A.U. after   10 cycles
 SCF Done:  E(RB3LYP) =  -1162.03988819     A.U. after    8 cycles
 SCF Done:  E(RB3LYP) =  -1162.03988828     A.U. after    8 cycles
 Optimization completed.
    -- Stationary point found.
 Normal termination of Gaussian 16 at Fri Dec 11 21:16:07 2020.

 --------------------------------------------------------------------
 #N Geom=AllCheck Guess=TCheck SCRF=Check GenChk RB3LYP/6-31G(d) Freq
 --------------------------------------------------------------------

 Structure from the checkpoint file:  "JID_8576.chk"
 ------------------------------
 CID_79021723_JID_8576_neutraal
 ------------------------------
 Charge =  0 Multiplicity = 1

 SCF Done:  E(RB3LYP) =  -1162.03988828     A.U. after    1 cycles

  Exact polarizability: 213.415 -19.475 174.743 -22.392  -6.915 117.116
 Approx polarizability: 293.098 -39.473 299.940 -41.842  -5.838 190.245

                      1                      2                      3
                      A                      A                      A
 Frequencies --     21.8579                28.7377                40.5497
 Red. masses --      4.2651                 7.9534                 5.3252
 Frc consts  --      0.0012                 0.0039                 0.0052
 IR Inten    --      0.0276                 0.7175                 0.0062

                      4                      5                      6
                      A                      A                      A
 Frequencies --     43.5000                57.6435               117.5969
 Red. masses --      6.2717                 3.7688                 4.2035
 Frc consts  --      0.0070                 0.0074                 0.0342
 IR Inten    --      0.3490                 0.7728                 1.7553

                      7                      8                      9
                      A                      A                      A
 Frequencies --    156.9528               170.9218               175.2249
 Red. masses --      4.1908                 1.1011                 1.1300
 Frc consts  --      0.0608                 0.0190                 0.0204
 IR Inten    --      2.8065                 1.4736                 0.6309

                     10                     11                     12
                      A                      A                      A
 Frequencies --    195.5494               219.4142               242.1755
 Red. masses --      3.6657                 3.5743                 4.8583
 Frc consts  --      0.0826                 0.1014                 0.1679
 IR Inten    --      9.5239                 0.4728                 1.1856

                     13                     14                     15
                      A                      A                      A
 Frequencies --    254.0672               283.7989               326.0309
 Red. masses --      4.2907                 4.8502                 3.4043
 Frc consts  --      0.1632                 0.2302                 0.2132
 IR Inten    --      0.4925                 3.0591                 5.9562

                     16                     17                     18
                      A                      A                      A
 Frequencies --    331.8954               350.4840               361.8105
 Red. masses --      5.7989                 4.6787                 2.6172
 Frc consts  --      0.3764                 0.3386                 0.2019
 IR Inten    --      3.1413                 1.3912                 2.9265

                     19                     20                     21
                      A                      A                      A
 Frequencies --    458.0358               478.4462               494.7534
 Red. masses --      1.5675                 3.6379                 1.9916
 Frc consts  --      0.1938                 0.4906                 0.2872
 IR Inten    --    107.4668                35.5210                 7.8275

                     22                     23                     24
                      A                      A                      A
 Frequencies --    510.9076               516.8396               553.1977
 Red. masses --      5.0215                 3.2701                 3.7850
 Frc consts  --      0.7723                 0.5147                 0.6825
 IR Inten    --      0.8376                 1.1074                14.6129

                     25                     26                     27
                      A                      A                      A
 Frequencies --    580.0182               584.9833               597.3493
 Red. masses --      4.3766                 6.3125                 5.7586
 Frc consts  --      0.8675                 1.2727                 1.2107
 IR Inten    --      0.3559                14.1631                23.4763

                     28                     29                     30
                      A                      A                      A
 Frequencies --    632.3808               641.4339               683.3719
 Red. masses --      4.0314                 3.8043                 1.6615
 Frc consts  --      0.9499                 0.9222                 0.4571
 IR Inten    --     44.7199                44.4021                84.7167

                     31                     32                     33
                      A                      A                      A
 Frequencies --    690.2784               707.9263               727.4417
 Red. masses --      6.1401                 5.1348                 2.7452
 Frc consts  --      1.7237                 1.5162                 0.8559
 IR Inten    --      1.5979                 7.3699                 8.8170

                     34                     35                     36
                      A                      A                      A
 Frequencies --    753.7882               783.3135               832.1117
 Red. masses --      1.2037                 1.5333                 4.8246
 Frc consts  --      0.4030                 0.5543                 1.9682
 IR Inten    --     18.3561                42.3683                 2.1096

                     37                     38                     39
                      A                      A                      A
 Frequencies --    859.7577               862.2245               893.7325
 Red. masses --      3.4434                 4.1505                 1.5086
 Frc consts  --      1.4996                 1.8180                 0.7100
 IR Inten    --      2.9754                10.6314                 0.1295

                     40                     41                     42
                      A                      A                      A
 Frequencies --    901.0296               936.5922               957.8022
 Red. masses --      3.6994                 2.4645                 1.2612
 Frc consts  --      1.7695                 1.2737                 0.6817
 IR Inten    --      2.9005                 0.4922                 0.1893

                     43                     44                     45
                      A                      A                      A
 Frequencies --    978.9198              1024.8077              1026.2368
 Red. masses --      2.5972                 2.4265                 1.8058
 Frc consts  --      1.4664                 1.5014                 1.1205
 IR Inten    --     10.9431                11.3701                 1.5967

                     46                     47                     48
                      A                      A                      A
 Frequencies --   1059.9166              1085.7088              1108.6579
 Red. masses --      1.4342                 1.6048                 2.0729
 Frc consts  --      0.9493                 1.1145                 1.5012
 IR Inten    --      5.2629                 1.7404                 8.7023

                     49                     50                     51
                      A                      A                      A
 Frequencies --   1125.7951              1150.5565              1156.8805
 Red. masses --      1.9069                 1.5975                 2.5905
 Frc consts  --      1.4240                 1.2460                 2.0428
 IR Inten    --      5.9412                60.3658               374.0710

                     52                     53                     54
                      A                      A                      A
 Frequencies --   1199.7583              1213.7547              1236.4949
 Red. masses --      1.3122                 3.0501                 1.1558
 Frc consts  --      1.1128                 2.6475                 1.0412
 IR Inten    --      9.0091                42.2643                 2.5453

                     55                     56                     57
                      A                      A                      A
 Frequencies --   1236.8804              1273.7206              1289.8328
 Red. masses --      2.7406                 1.9220                 1.9233
 Frc consts  --      2.4703                 1.8372                 1.8852
 IR Inten    --     70.2553                16.2011                 1.5369

                     58                     59                     60
                      A                      A                      A
 Frequencies --   1300.2902              1353.4943              1355.6855
 Red. masses --      2.5577                 4.9684                 3.1280
 Frc consts  --      2.5479                 5.3627                 3.3872
 IR Inten    --     27.5801                17.6987                13.0949

                     61                     62                     63
                      A                      A                      A
 Frequencies --   1436.8560              1444.9593              1447.9212
 Red. masses --      1.2695                 2.6006                 1.2331
 Frc consts  --      1.5443                 3.1992                 1.5232
 IR Inten    --      4.4514               110.1084                 5.9374

                     64                     65                     66
                      A                      A                      A
 Frequencies --   1475.2256              1482.2274              1493.9866
 Red. masses --      1.0990                 2.3317                 1.3138
 Frc consts  --      1.4091                 3.0182                 1.7277
 IR Inten    --     13.8416               141.0336                 3.4507

                     67                     68                     69
                      A                      A                      A
 Frequencies --   1510.9273              1521.9947              1528.1896
 Red. masses --      1.2321                 1.1190                 1.3166
 Frc consts  --      1.6572                 1.5272                 1.8115
 IR Inten    --     10.7498                 1.2659                64.2100

                     70                     71                     72
                      A                      A                      A
 Frequencies --   1538.4219              1552.4341              1602.8985
 Red. masses --      1.1634                 1.9151                 7.0896
 Frc consts  --      1.6223                 2.7194                10.7320
 IR Inten    --     38.1928                69.8661               248.6541

                     73                     74                     75
                      A                      A                      A
 Frequencies --   1604.3648              1647.9649              1665.0084
 Red. masses --      7.5219                 6.0576                 5.5780
 Frc consts  --     11.4074                 9.6927                 9.1109
 IR Inten    --     97.6669                 8.0535                12.3463

                     76                     77                     78
                      A                      A                      A
 Frequencies --   1846.9589              3042.1597              3049.7815
 Red. masses --      9.6193                 1.0391                 1.0618
 Frc consts  --     19.3333                 5.6661                 5.8187
 IR Inten    --    209.5115                25.7296                 9.9833

                     79                     80                     81
                      A                      A                      A
 Frequencies --   3060.8130              3073.8044              3093.5245
 Red. masses --      1.0379                 1.0983                 1.0989
 Frc consts  --      5.7288                 6.1140                 6.1963
 IR Inten    --     19.8110                 2.6915                19.8824

                     82                     83                     84
                      A                      A                      A
 Frequencies --   3120.8682              3128.9465              3143.6189
 Red. masses --      1.0982                 1.1006                 1.1019
 Frc consts  --      6.3020                 6.3485                 6.4156
 IR Inten    --     17.7633                22.7171                13.5668

                     85                     86                     87
                      A                      A                      A
 Frequencies --   3179.0557              3186.1625              3207.0024
 Red. masses --      1.0862                 1.0906                 1.0965
 Frc consts  --      6.4680                 6.5228                 6.6447
 IR Inten    --      0.6527                27.1474                28.5085

                     88                     89                     90
                      A                      A                      A
 Frequencies --   3322.4522              3597.5337              3688.6714
 Red. masses --      1.0946                 1.0757                 1.0640
 Frc consts  --      7.1190                 8.2027                 8.5297
 IR Inten    --     15.8658                26.9497                56.3686

 - Thermochemistry -
 -------------------
 Temperature   298.150 Kelvin.  Pressure   1.00000 Atm.
 Atom     1 has atomic number  6 and mass  12.00000

 Molecular mass:   262.07760 amu.
 Principal axes and moments of inertia in atomic units:
                           1         2         3
     Eigenvalues --  2815.486969191.69944**********
           X            0.99996  -0.00865   0.00211
           Y            0.00871   0.99955  -0.02874
           Z           -0.00186   0.02876   0.99958
 This molecule is an asymmetric top.
 Rotational symmetry number  1.
 Warning -- assumption of classical behavior for rotation
           may cause significant error
 Rotational temperatures (Kelvin)      0.03076     0.00942     0.00799
 Rotational constants (GHZ):           0.64100     0.19634     0.16654
 Zero-point vibrational energy     663257.8 (Joules/Mol)
                                  158.52243 (Kcal/Mol)
 Warning -- explicit consideration of  27 degrees of freedom as
           vibrations may cause significant error
 Vibrational temperatures:     31.45    41.35    58.34    62.59    82.94
          (Kelvin)            169.20   225.82   245.92   252.11   281.35
                              315.69   348.44   365.55   408.32   469.09
                              477.52   504.27   520.56   659.01   688.38
                              711.84   735.08   743.62   795.93   834.52
                              841.66   859.45   909.85   922.88   983.22
                              993.16  1018.55  1046.63  1084.53  1127.01
                             1197.22  1237.00  1240.55  1285.88  1296.38
                             1347.55  1378.06  1408.45  1474.47  1476.53
                             1524.98  1562.09  1595.11  1619.77  1655.39
                             1664.49  1726.18  1746.32  1779.04  1779.60
                             1832.60  1855.78  1870.83  1947.38  1950.53
                             2067.32  2078.97  2083.24  2122.52  2132.59
                             2149.51  2173.89  2189.81  2198.72  2213.45
                             2233.61  2306.21  2308.32  2371.05  2395.58
                             2657.36  4376.99  4387.96  4403.83  4422.52
                             4450.89  4490.23  4501.86  4522.97  4573.95
                             4584.18  4614.16  4780.27  5176.05  5307.18

 Zero-point correction=                           0.252622 (Hartree/Particle)
 Thermal correction to Energy=                    0.269865
 Thermal correction to Enthalpy=                  0.270809
 Thermal correction to Gibbs Free Energy=         0.205139
 Sum of electronic and zero-point Energies=          -1161.787267
 Sum of electronic and thermal Energies=             -1161.770023
 Sum of electronic and thermal Enthalpies=           -1161.769079
 Sum of electronic and thermal Free Energies=        -1161.834749

                     E (Thermal)             CV                S
                      KCal/Mol        Cal/Mol-Kelvin    Cal/Mol-Kelvin
 Total                  169.343             64.815            138.215
 Electronic               0.000              0.000              0.000
 Translational            0.889              2.981             42.590
 Rotational               0.889              2.981             33.994
 Vibrational            167.566             58.853             61.632
 Vibration     1          0.593              1.985              6.458
 Vibration     2          0.593              1.984              5.915
 Vibration     3          0.594              1.981              5.232
 Vibration     4          0.595              1.980              5.093
 Vibration     5          0.596              1.974              4.536
 Vibration     6          0.608              1.935              3.139
 Vibration     7          0.621              1.895              2.586
 Vibration     8          0.626              1.878              2.425
 Vibration     9          0.627              1.873              2.379
 Vibration    10          0.636              1.846              2.175
 Vibration    11          0.647              1.812              1.964
 Vibration    12          0.658              1.776              1.787
 Vibration    13          0.665              1.756              1.702
 Vibration    14          0.682              1.704              1.511
 Vibration    15          0.710              1.623              1.280
 Vibration    16          0.714              1.612              1.251
 Vibration    17          0.727              1.574              1.164
 Vibration    18          0.736              1.551              1.114
 Vibration    19          0.816              1.343              0.772
 Vibration    20          0.835              1.298              0.714
 Vibration    21          0.850              1.262              0.671
 Vibration    22          0.866              1.226              0.631
 Vibration    23          0.872              1.213              0.617
 Vibration    24          0.909              1.133              0.538
 Vibration    25          0.937              1.075              0.485
 Vibration    26          0.942              1.064              0.476
 Vibration    27          0.955              1.037              0.454

                           ! Non-Optimized Parameters !
 Normal termination of Gaussian 16 at Fri Dec 11 21:28:00 2020.

 ----------------------------------------------------------------------
 # B3LYP/6-311++G(d,p) empiricaldispersion=gd3bj scf=xqc pop=npa geom=c
 heck
 ----------------------------------------------------------------------

 --------------------------------------
 CID_79021723_JID_8576_Energie_neutraal
 --------------------------------------
 Structure from the checkpoint file:  "JID_8576.chk"
 Charge =  0 Multiplicity = 1

 SCF Done:  E(RB3LYP) =  -1162.28363934     A.U. after   17 cycles
 Normal termination of Gaussian 16 at Fri Dec 11 21:34:16 2020.

 ----------------------------------------------------------------------
 # B3LYP/6-311++G(d,p) empiricaldispersion=gd3bj scf=xqc pop=npa geom=c
 heck
 ----------------------------------------------------------------------

 ------------------------------------
 CID_79021723_JID_8576_Energie_kation
 ------------------------------------
 Structure from the checkpoint file:  "JID_8576.chk"
 Charge =  1 Multiplicity = 2

 SCF Done:  E(UB3LYP) =  -1162.01225405     A.U. after   27 cycles
 Normal termination of Gaussian 16 at Fri Dec 11 21:48:35 2020.
 Gaussian 16:  ES64L-G16RevA.03 25-Dec-2016

 ----------------------------------------------------------------------
 # B3LYP/6-311++G(d,p) empiricaldispersion=gd3bj scf=xqc pop=npa geom=c
 heck
 ----------------------------------------------------------------------

 -----------------------------------
 CID_79021723_JID_8576_Energie_anion
 -----------------------------------
 Structure from the checkpoint file:  "JID_8576.chk"
 Charge = -1 Multiplicity = 2

                         Standard orientation:
 ---------------------------------------------------------------------
 Center     Atomic      Atomic             Coordinates (Angstroms)
 Number     Number       Type             X           Y           Z
 ---------------------------------------------------------------------
      1          6           0       -3.771524    2.504894   -0.904849
      2          6           0       -3.492424    1.212549   -0.175067
      3          6           0       -2.441140    0.369013   -0.588844
      4          6           0       -2.200705   -0.804132    0.147102
      5          6           0       -3.013000   -1.162082    1.227381
      6          6           0       -4.070585   -0.342066    1.601499
      7          6           0       -4.294779    0.846420    0.909680
      8          7           0       -1.148006   -1.690902   -0.224365
      9          6           0        0.181198   -1.337961   -0.145109
     10          7           0        0.632549   -0.149543    0.129363
     11          6           0        2.020102   -0.121965    0.079578
     12          6           0        2.631152   -1.297960   -0.226390
     13         16           0        1.431022   -2.542474   -0.502346
     14          6           0        2.648189    1.207899    0.384315
     15          6           0        4.156702    1.284870    0.364906
     16          8           0        4.946072    0.392929    0.144361
     17          8           0        4.561384    2.550120    0.641916
     18          6           0       -1.606726    0.708779   -1.794804
     19          1           0       -2.879447    3.140009   -0.957856
     20          1           0       -4.097612    2.328121   -1.937882
     21          1           0       -4.559940    3.072794   -0.402493
     22          1           0       -2.796767   -2.073859    1.778430
     23          1           0       -4.703536   -0.617268    2.440078
     24          1           0       -5.107543    1.501999    1.211056
     25          1           0       -1.336658   -2.669247   -0.050063
     26          1           0        3.686131   -1.504870   -0.296671
     27          1           0        2.269023    1.963390   -0.316806
     28          1           0        2.310644    1.556449    1.369404
     29          1           0        5.536432    2.530563    0.616079
     30          1           0       -0.759714    1.347236   -1.518765
     31          1           0       -1.190524   -0.196161   -2.244725
     32          1           0       -2.197059    1.229608   -2.553821
 ---------------------------------------------------------------------

 SCF Done:  E(UB3LYP) =  -1162.27390891     A.U. after   33 cycles
 SCF Done:  E(UB3LYP) =  -1162.27390891     a.u. after    1 cycles

 The electronic state is 2-A.
 Alpha  occ. eigenvalues --  -88.77066 -19.07528 -19.02630 -14.24355 -14.19824
 Alpha  occ. eigenvalues --  -10.21930 -10.16361 -10.11332 -10.10925 -10.10092
 Alpha  occ. eigenvalues --  -10.08686 -10.08636 -10.08585 -10.08464 -10.07881
 Alpha  occ. eigenvalues --  -10.07396 -10.07222 -10.06930  -7.85670  -5.81969
 Alpha  occ. eigenvalues --   -5.81629  -5.81228  -1.01910  -0.93038  -0.88534
 Alpha  occ. eigenvalues --   -0.82719  -0.76105  -0.69792  -0.69098  -0.68670
 Alpha  occ. eigenvalues --   -0.66556  -0.61925  -0.59505  -0.58299  -0.52882
 Alpha  occ. eigenvalues --   -0.51299  -0.50237  -0.48230  -0.44670  -0.42076
 Alpha  occ. eigenvalues --   -0.41396  -0.39956  -0.38789  -0.38585  -0.38218
 Alpha  occ. eigenvalues --   -0.37407  -0.34691  -0.34252  -0.33239  -0.33015
 Alpha  occ. eigenvalues --   -0.31718  -0.31389  -0.30717  -0.30705  -0.30180
 Alpha  occ. eigenvalues --   -0.30016  -0.29361  -0.26100  -0.25806  -0.25656
 Alpha  occ. eigenvalues --   -0.24954  -0.23704  -0.21691  -0.19421  -0.17777
 Alpha  occ. eigenvalues --   -0.17487  -0.15231  -0.14870  -0.10648   0.04266
 Alpha virt. eigenvalues --    0.05409   0.06283   0.07221   0.07522   0.08209
 Alpha virt. eigenvalues --    0.08344   0.08517   0.09186   0.09356   0.09697
 Alpha virt. eigenvalues --    0.09946   0.10968   0.11495   0.11671   0.12076

  Beta  occ. eigenvalues --  -88.77051 -19.07469 -19.02614 -14.24326 -14.19817
  Beta  occ. eigenvalues --  -10.21926 -10.16282 -10.11273 -10.10920 -10.10072
  Beta  occ. eigenvalues --  -10.08679 -10.08611 -10.08584 -10.08406 -10.07890
  Beta  occ. eigenvalues --  -10.07355 -10.07161 -10.06927  -7.85656  -5.81928
  Beta  occ. eigenvalues --   -5.81622  -5.81211  -1.01839  -0.92974  -0.88437
  Beta  occ. eigenvalues --   -0.82639  -0.76028  -0.69728  -0.68997  -0.68610
  Beta  occ. eigenvalues --   -0.66488  -0.61857  -0.59411  -0.58257  -0.52764
  Beta  occ. eigenvalues --   -0.51198  -0.50096  -0.48163  -0.44583  -0.41961
  Beta  occ. eigenvalues --   -0.41326  -0.39897  -0.38739  -0.38534  -0.38144
  Beta  occ. eigenvalues --   -0.37342  -0.34629  -0.34172  -0.33164  -0.32940
  Beta  occ. eigenvalues --   -0.31683  -0.31354  -0.30685  -0.30655  -0.30123
  Beta  occ. eigenvalues --   -0.29928  -0.29302  -0.25954  -0.25674  -0.25600
  Beta  occ. eigenvalues --   -0.24909  -0.23650  -0.21581  -0.19369  -0.17706
  Beta  occ. eigenvalues --   -0.17374  -0.14940  -0.14669  -0.10519
  Beta virt. eigenvalues --    0.06101   0.06904   0.07219   0.07578   0.07986
  Beta virt. eigenvalues --    0.08296   0.08432   0.09000   0.09328   0.09544
  Beta virt. eigenvalues --    0.09682   0.10216   0.10931   0.11712   0.11938

 Mulliken charges and spin densities:
               1          2
     1  C   -0.519919  -0.016673
     2  C    0.331328   0.148610
     3  C    1.420773  -0.347367
     4  C    0.935799  -1.181122
     5  C   -0.800029   0.665385
     6  C   -0.055073  -0.351983
     7  C   -1.040274   0.217323
     8  N   -0.085657   0.203933
     9  C    0.587796  -0.363796
    10  N    0.154694  -0.005597
    11  C   -0.625977  -0.091751
    12  C    0.363800  -0.088096
    13  S   -0.636527   0.131773
    14  C   -0.150845  -0.533310
    15  C    0.267027  -0.083801
    16  O   -0.303392   0.000300
    17  O   -0.156160   0.019767
    18  C   -0.695104  -0.018983
    19  H    0.164151   0.002693
    20  H    0.142942   0.003830
    21  H    0.129084   0.008236
    22  H   -0.395174   0.559349
    23  H    0.017551   0.133940
    24  H    0.079503   0.009722
    25  H   -0.483287   0.799398
    26  H    0.282078   0.029436
    27  H    0.070983   0.145023
    28  H    0.157993   0.067782
    29  H   -0.635424   0.934317
    30  H    0.155381   0.000381
    31  H    0.194222   0.000036
    32  H    0.127736   0.001246
 Sum of Mulliken charges =  -1.00000   1.00000

 Dipole moment (field-independent basis, Debye):
    X=             -6.1312    Y=              1.7436    Z=             -2.3668  Tot=              6.7996
 Quadrupole moment (field-independent basis, Debye-Ang):
   XX=           -212.1258   YY=           -165.8438   ZZ=           -130.3795
   XY=            -35.3883   XZ=             -1.0040   YZ=             -2.1678

 Summary of Natural Population Analysis:

                                       Natural Population
                Natural  -----------------------------------------------
    Atom  No    Charge         Core      Valence    Rydberg      Total
 -----------------------------------------------------------------------
      C    1   -0.29244      0.99964     2.28848    0.00432     3.29244
      C    2   -0.00879      0.99948     2.00075    0.00856     3.00879
      C    3   -0.01619      0.99943     2.00797    0.00878     3.01619
      C    4    0.09190      0.99941     1.89606    0.01262     2.90810
      C    5   -0.10076      0.99951     2.09112    0.01013     3.10076
      C    6   -0.10239      0.99957     2.09279    0.01003     3.10239
      C    7   -0.10352      0.99952     2.09409    0.00991     3.10352
      N    8   -0.31647      0.99962     2.80305    0.01379     3.81647
      C    9    0.15470      0.99959     1.82462    0.02109     2.84530
      N   10   -0.28075      0.99962     2.77142    0.00972     3.78075
      C   11    0.06139      0.99949     1.92486    0.01426     2.93861
      C   12   -0.20382      0.99944     2.19526    0.00913     3.20382
      S   13    0.16945      4.99946     2.81209    0.01900     7.83055
      C   14   -0.25166      0.99953     2.24173    0.01039     3.25166
      C   15    0.41246      0.99973     1.56352    0.02428     2.58754
      O   16   -0.30699      0.99987     3.30088    0.00625     4.30699
      O   17   -0.34500      0.99988     3.33849    0.00664     4.34500
      C   18   -0.29843      0.99964     2.29347    0.00532     3.29843
      H   19    0.10348      0.00000     0.39563    0.00089     0.39652
      H   20    0.10058      0.00000     0.39846    0.00096     0.39942
      H   21    0.09909      0.00000     0.40017    0.00074     0.40091
      H   22    0.10472      0.00000     0.39390    0.00138     0.39528
      H   23    0.09844      0.00000     0.40078    0.00078     0.40156
      H   24    0.09392      0.00000     0.40520    0.00088     0.40608
      H   25    0.20351      0.00000     0.28641    0.01008     0.29649
      H   26    0.12392      0.00000     0.37515    0.00094     0.37608
      H   27    0.12167      0.00000     0.37707    0.00126     0.37833
      H   28    0.12320      0.00000     0.37563    0.00117     0.37680
      H   29    0.24549      0.00000     0.22559    0.02892     0.25451
      H   30    0.11285      0.00000     0.38570    0.00146     0.38715
      H   31    0.10945      0.00000     0.38983    0.00072     0.39055
      H   32    0.09698      0.00000     0.40229    0.00073     0.40302
 =======================================================================
   * Total *   -0.00000     21.99244    46.75244    0.25512    69.00000

 Normal termination of Gaussian 16 at Fri Dec 11 22:06:34 2020.
