 Gaussian 16, Revision A.03,

 -----------------------------------------------------------
 # opt freq B3LYP/6-31G(d) empiricaldispersion=gd3bj scf=xqc
 -----------------------------------------------------------

 -------------------------------
 CID_108484370_JID_8418_neutraal
 -------------------------------
 Symbolic Z-matrix:
 Charge =  0 Multiplicity = 1

 SCF Done:  E(RB3LYP) =  -770.877383718     A.U. after   15 cycles
 SCF Done:  E(RB3LYP) =  -770.879783069     A.U. after   12 cycles
 SCF Done:  E(RB3LYP) =  -770.877877206     A.U. after   12 cycles
 SCF Done:  E(RB3LYP) =  -770.880451575     A.U. after   12 cycles
 SCF Done:  E(RB3LYP) =  -770.881909351     A.U. after   12 cycles
 SCF Done:  E(RB3LYP) =  -770.882321196     A.U. after   12 cycles
 SCF Done:  E(RB3LYP) =  -770.882499034     A.U. after   11 cycles
 SCF Done:  E(RB3LYP) =  -770.882603158     A.U. after   10 cycles
 SCF Done:  E(RB3LYP) =  -770.882625617     A.U. after   10 cycles
 SCF Done:  E(RB3LYP) =  -770.882637785     A.U. after   10 cycles
 SCF Done:  E(RB3LYP) =  -770.882652443     A.U. after    9 cycles
 SCF Done:  E(RB3LYP) =  -770.882652523     A.U. after    7 cycles
 SCF Done:  E(RB3LYP) =  -770.882652578     A.U. after    8 cycles
 SCF Done:  E(RB3LYP) =  -770.882652584     A.U. after    8 cycles
 Optimization completed.
    -- Stationary point found.
 Normal termination of Gaussian 16 at Fri Dec 11 20:47:27 2020.

 --------------------------------------------------------------------
 #N Geom=AllCheck Guess=TCheck SCRF=Check GenChk RB3LYP/6-31G(d) Freq
 --------------------------------------------------------------------

 Structure from the checkpoint file:  "JID_8418.chk"
 -------------------------------
 CID_108484370_JID_8418_neutraal
 -------------------------------
 Charge =  0 Multiplicity = 1

 SCF Done:  E(RB3LYP) =  -770.882652584     A.U. after    1 cycles

  Exact polarizability: 211.286   0.769 176.758  14.900  -9.871 118.078
 Approx polarizability: 275.629   0.987 275.433  23.721 -20.918 183.188

                      1                      2                      3
                      A                      A                      A
 Frequencies --      9.8516                27.2732                42.4453
 Red. masses --      4.1460                 3.8774                 4.1167
 Frc consts  --      0.0002                 0.0017                 0.0044
 IR Inten    --      0.4359                 0.4991                 0.2424

                      4                      5                      6
                      A                      A                      A
 Frequencies --     53.1614                64.1788                94.7926
 Red. masses --      3.5855                 4.1582                 4.2444
 Frc consts  --      0.0060                 0.0101                 0.0225
 IR Inten    --      0.2542                 0.2536                 0.8307

                      7                      8                      9
                      A                      A                      A
 Frequencies --    108.5810               128.2763               140.9853
 Red. masses --      2.9663                 2.9812                 4.7722
 Frc consts  --      0.0206                 0.0289                 0.0559
 IR Inten    --      0.4666                 1.4982                 4.1620

                     10                     11                     12
                      A                      A                      A
 Frequencies --    172.1667               190.6617               216.3008
 Red. masses --      2.2719                 3.3974                 2.0266
 Frc consts  --      0.0397                 0.0728                 0.0559
 IR Inten    --      1.4682                 1.2813                 1.7547

                     13                     14                     15
                      A                      A                      A
 Frequencies --    220.6637               232.4688               235.7473
 Red. masses --      1.2867                 1.6633                 1.8469
 Frc consts  --      0.0369                 0.0530                 0.0605
 IR Inten    --      0.7553                 0.4498                 4.1149

                     16                     17                     18
                      A                      A                      A
 Frequencies --    285.3973               321.5215               348.9052
 Red. masses --      2.5065                 2.1301                 2.6802
 Frc consts  --      0.1203                 0.1297                 0.1922
 IR Inten    --      0.7471                 0.2968                 0.7801

                     19                     20                     21
                      A                      A                      A
 Frequencies --    359.1034               388.6157               408.5662
 Red. masses --      2.0384                 2.3257                 2.6396
 Frc consts  --      0.1549                 0.2069                 0.2596
 IR Inten    --      0.6095                 1.1602                 7.3643

                     22                     23                     24
                      A                      A                      A
 Frequencies --    418.4619               466.1934               493.5687
 Red. masses --      3.0034                 3.3611                 3.4685
 Frc consts  --      0.3099                 0.4304                 0.4978
 IR Inten    --      0.0618                 9.0052                 3.4743

                     25                     26                     27
                      A                      A                      A
 Frequencies --    507.5194               542.3296               591.0856
 Red. masses --      2.9931                 3.0817                 3.0720
 Frc consts  --      0.4542                 0.5340                 0.6324
 IR Inten    --      3.3090                29.9444                 0.9141

                     28                     29                     30
                      A                      A                      A
 Frequencies --    629.8584               638.4418               710.9605
 Red. masses --      2.9732                 6.3043                 2.1192
 Frc consts  --      0.6950                 1.5140                 0.6311
 IR Inten    --     20.9354                 0.0448                21.6835

                     31                     32                     33
                      A                      A                      A
 Frequencies --    718.0306               748.0630               757.2458
 Red. masses --      2.2327                 1.6948                 2.4511
 Frc consts  --      0.6782                 0.5588                 0.8281
 IR Inten    --      8.8776                10.0263                20.2959

                     34                     35                     36
                      A                      A                      A
 Frequencies --    766.2006               791.5862               804.6863
 Red. masses --      2.3052                 1.2513                 1.3637
 Frc consts  --      0.7974                 0.4619                 0.5202
 IR Inten    --     13.7890                 8.6247                41.8419

                     37                     38                     39
                      A                      A                      A
 Frequencies --    813.9323               828.2049               841.7247
 Red. masses --      1.8315                 2.0088                 2.4299
 Frc consts  --      0.7149                 0.8118                 1.0143
 IR Inten    --     17.9770                 8.3998                18.2922

                     40                     41                     42
                      A                      A                      A
 Frequencies --    861.4130               919.0310               946.0873
 Red. masses --      1.2482                 1.3991                 2.0176
 Frc consts  --      0.5457                 0.6963                 1.0640
 IR Inten    --      0.3027                 3.2791                 4.1753

                     43                     44                     45
                      A                      A                      A
 Frequencies --    956.9809               966.8899               968.1274
 Red. masses --      1.7849                 1.3949                 2.0190
 Frc consts  --      0.9631                 0.7684                 1.1150
 IR Inten    --      6.4972                 0.7957                 0.8374

                     46                     47                     48
                      A                      A                      A
 Frequencies --    974.8702               994.0924              1011.2479
 Red. masses --      2.0980                 1.2518                 1.8917
 Frc consts  --      1.1748                 0.7289                 1.1398
 IR Inten    --      1.0040                 0.7882                 5.6632

                     49                     50                     51
                      A                      A                      A
 Frequencies --   1022.5243              1060.6257              1065.2153
 Red. masses --      5.9141                 2.2921                 2.2481
 Frc consts  --      3.6432                 1.5191                 1.5030
 IR Inten    --      0.3763                 5.0267                 5.2307

                     52                     53                     54
                      A                      A                      A
 Frequencies --   1081.5993              1098.2989              1114.8379
 Red. masses --      1.7178                 2.0763                 1.8316
 Frc consts  --      1.1840                 1.4757                 1.3413
 IR Inten    --     11.9491                10.1766                 7.8936

                     55                     56                     57
                      A                      A                      A
 Frequencies --   1118.1593              1122.8948              1133.3952
 Red. masses --      1.9110                 2.0438                 2.0114
 Frc consts  --      1.4077                 1.5183                 1.5223
 IR Inten    --      6.8702                15.3154                15.5555

                     58                     59                     60
                      A                      A                      A
 Frequencies --   1137.2616              1193.2500              1198.3121
 Red. masses --      1.7832                 1.1002                 1.2320
 Frc consts  --      1.3589                 0.9229                 1.0423
 IR Inten    --     12.6220                 0.2478                 6.0242

                     61                     62                     63
                      A                      A                      A
 Frequencies --   1215.1361              1217.2887              1235.0567
 Red. masses --      1.5630                 1.4426                 2.5057
 Frc consts  --      1.3597                 1.2595                 2.2519
 IR Inten    --     28.1588                22.3197                 1.9367

                     64                     65                     66
                      A                      A                      A
 Frequencies --   1246.0528              1258.0664              1283.7700
 Red. masses --      1.5604                 2.5732                 1.2556
 Frc consts  --      1.4274                 2.3996                 1.2192
 IR Inten    --      4.5908                35.7811                34.4295

                     67                     68                     69
                      A                      A                      A
 Frequencies --   1331.3119              1336.9195              1350.5287
 Red. masses --      1.3405                 1.1672                 2.1242
 Frc consts  --      1.3999                 1.2292                 2.2828
 IR Inten    --     89.9592                 3.9496                 5.6203

                     70                     71                     72
                      A                      A                      A
 Frequencies --   1357.2344              1367.4791              1386.1083
 Red. masses --      1.4361                 2.1180                 1.4184
 Frc consts  --      1.5587                 2.3335                 1.6056
 IR Inten    --    114.7451                 0.4127                 4.1483

                     73                     74                     75
                      A                      A                      A
 Frequencies --   1389.6927              1398.4607              1415.3076
 Red. masses --      1.3325                 1.2731                 1.3612
 Frc consts  --      1.5162                 1.4670                 1.6065
 IR Inten    --     15.0086                16.9126                 4.2284

                     76                     77                     78
                      A                      A                      A
 Frequencies --   1418.7015              1420.5150              1434.7106
 Red. masses --      1.3217                 1.4109                 1.3088
 Frc consts  --      1.5673                 1.6774                 1.5873
 IR Inten    --     13.2276                 8.8946                20.4579

                     79                     80                     81
                      A                      A                      A
 Frequencies --   1442.9510              1462.7689              1495.6513
 Red. masses --      1.2593                 1.8098                 1.5125
 Frc consts  --      1.5449                 2.2816                 1.9935
 IR Inten    --     19.6980               200.1114                36.7975

                     82                     83                     84
                      A                      A                      A
 Frequencies --   1501.5035              1507.5334              1512.0972
 Red. masses --      2.0393                 1.1108                 1.1024
 Frc consts  --      2.7089                 1.4874                 1.4850
 IR Inten    --      4.7710                24.4926                 2.1643

                     85                     86                     87
                      A                      A                      A
 Frequencies --   1518.9630              1521.8050              1522.9279
 Red. masses --      1.0520                 1.1027                 1.0540
 Frc consts  --      1.4301                 1.5046                 1.4402
 IR Inten    --     12.4845                 7.1921                 8.5982

                     88                     89                     90
                      A                      A                      A
 Frequencies --   1525.1989              1531.4845              1539.1598
 Red. masses --      1.1132                 1.0761                 1.0918
 Frc consts  --      1.5257                 1.4871                 1.5239
 IR Inten    --      6.2677                11.6060                 9.8165

                     91                     92                     93
                      A                      A                      A
 Frequencies --   1543.7754              1548.9713              1564.3872
 Red. masses --      1.1032                 2.1985                 1.0830
 Frc consts  --      1.5490                 3.1079                 1.5616
 IR Inten    --     12.9803                10.5724                14.3029

                     94                     95                     96
                      A                      A                      A
 Frequencies --   1646.1474              1668.5627              1766.8302
 Red. masses --      5.4679                 5.6156                 6.6909
 Frc consts  --      8.7299                 9.2115                12.3063
 IR Inten    --      0.7961                 3.7438               395.4509

                     97                     98                     99
                      A                      A                      A
 Frequencies --   3010.7916              3032.3931              3035.5142
 Red. masses --      1.0752                 1.0729                 1.0670
 Frc consts  --      5.7426                 5.8126                 5.7927
 IR Inten    --     33.4589                28.2927                22.1611

                    100                    101                    102
                      A                      A                      A
 Frequencies --   3040.9342              3052.8573              3054.5580
 Red. masses --      1.0654                 1.0638                 1.0390
 Frc consts  --      5.8046                 5.8416                 5.7115
 IR Inten    --     36.2749                36.6653                21.2979

                    103                    104                    105
                      A                      A                      A
 Frequencies --   3055.0248              3072.3192              3078.9162
 Red. masses --      1.0374                 1.0663                 1.0981
 Frc consts  --      5.7045                 5.9299                 6.1330
 IR Inten    --     25.8770                35.8758                 2.4353

                    106                    107                    108
                      A                      A                      A
 Frequencies --   3089.4712              3099.3523              3110.4914
 Red. masses --      1.0963                 1.0993                 1.1013
 Frc consts  --      6.1652                 6.2219                 6.2779
 IR Inten    --     25.0994                74.5248                23.9875

                    109                    110                    111
                      A                      A                      A
 Frequencies --   3116.0470              3133.5553              3140.7226
 Red. masses --      1.1002                 1.0986                 1.0965
 Frc consts  --      6.2939                 6.3558                 6.3727
 IR Inten    --     34.6716                26.8557                19.4475

                    112                    113                    114
                      A                      A                      A
 Frequencies --   3144.9500              3152.8882              3159.0924
 Red. masses --      1.0917                 1.0887                 1.1019
 Frc consts  --      6.3620                 6.3765                 6.4790
 IR Inten    --     26.8356                34.3019                17.5164

                    115                    116                    117
                      A                      A                      A
 Frequencies --   3175.7224              3181.7263              3191.7382
 Red. masses --      1.0858                 1.0860                 1.0901
 Frc consts  --      6.4518                 6.4776                 6.5430
 IR Inten    --      7.7434                 1.4666                13.6546

                    118                    119                    120
                      A                      A                      A
 Frequencies --   3198.7979              3210.3219              3546.1893
 Red. masses --      1.0938                 1.0979                 1.0742
 Frc consts  --      6.5940                 6.6668                 7.9588
 IR Inten    --     45.1633                18.9067                11.1645

 - Thermochemistry -
 -------------------
 Temperature   298.150 Kelvin.  Pressure   1.00000 Atm.
 Atom     1 has atomic number  6 and mass  12.00000

 Molecular mass:   248.18886 amu.
 Principal axes and moments of inertia in atomic units:
                           1         2         3
     Eigenvalues --  2254.966708915.15675**********
           X            0.99981   0.01857   0.00553
           Y           -0.01853   0.99981  -0.00636
           Z           -0.00565   0.00626   0.99996
 This molecule is an asymmetric top.
 Rotational symmetry number  1.
 Warning -- assumption of classical behavior for rotation
           may cause significant error
 Rotational temperatures (Kelvin)      0.03841     0.00972     0.00837
 Rotational constants (GHZ):           0.80034     0.20244     0.17436
 Zero-point vibrational energy     987100.4 (Joules/Mol)
                                  235.92267 (Kcal/Mol)
 Warning -- explicit consideration of  27 degrees of freedom as
           vibrations may cause significant error
 Vibrational temperatures:     14.17    39.24    61.07    76.49    92.34
          (Kelvin)            136.39   156.22   184.56   202.85   247.71
                              274.32   311.21   317.49   334.47   339.19
                              410.62   462.60   502.00   516.67   559.13
                              587.84   602.07   670.75   710.14   730.21
                              780.29   850.44   906.23   918.58  1022.91
                             1033.09  1076.30  1089.51  1102.39  1138.92
                             1157.76  1171.07  1191.60  1211.05  1239.38
                             1322.28  1361.21  1376.88  1391.14  1392.92
                             1402.62  1430.28  1454.96  1471.18  1526.00
                             1532.61  1556.18  1580.21  1604.00  1608.78
                             1615.60  1630.70  1636.27  1716.82  1724.10
                             1748.31  1751.41  1776.97  1792.79  1810.08
                             1847.06  1915.46  1923.53  1943.11  1952.76
                             1967.50  1994.30  1999.46  2012.07  2036.31
                             2041.20  2043.80  2064.23  2076.08  2104.60
                             2151.91  2160.33  2169.00  2175.57  2185.45
                             2189.54  2191.15  2194.42  2203.46  2214.51
                             2221.15  2228.62  2250.80  2368.44  2400.69
                             2542.07  4331.86  4362.94  4367.43  4375.23
                             4392.38  4394.83  4395.50  4420.38  4429.87
                             4445.06  4459.28  4475.30  4483.30  4508.49
                             4518.80  4524.88  4536.30  4545.23  4569.16
                             4577.79  4592.20  4602.36  4618.94  5102.18

 Zero-point correction=                           0.375967 (Hartree/Particle)
 Thermal correction to Energy=                    0.394765
 Thermal correction to Enthalpy=                  0.395709
 Thermal correction to Gibbs Free Energy=         0.326480
 Sum of electronic and zero-point Energies=           -770.506686
 Sum of electronic and thermal Energies=              -770.487888
 Sum of electronic and thermal Enthalpies=            -770.486944
 Sum of electronic and thermal Free Energies=         -770.556173

                     E (Thermal)             CV                S
                      KCal/Mol        Cal/Mol-Kelvin    Cal/Mol-Kelvin
 Total                  247.719             70.978            145.706
 Electronic               0.000              0.000              0.000
 Translational            0.889              2.981             42.428
 Rotational               0.889              2.981             33.697
 Vibrational            245.941             65.016             69.581
 Vibration     1          0.593              1.987              8.041
 Vibration     2          0.593              1.984              6.018
 Vibration     3          0.595              1.980              5.142
 Vibration     4          0.596              1.976              4.696
 Vibration     5          0.597              1.971              4.324
 Vibration     6          0.603              1.953              3.559
 Vibration     7          0.606              1.942              3.294
 Vibration     8          0.611              1.925              2.972
 Vibration     9          0.615              1.912              2.790
 Vibration    10          0.626              1.877              2.412
 Vibration    11          0.634              1.853              2.221
 Vibration    12          0.645              1.816              1.990
 Vibration    13          0.647              1.810              1.954
 Vibration    14          0.653              1.791              1.860
 Vibration    15          0.655              1.786              1.835
 Vibration    16          0.683              1.701              1.501
 Vibration    17          0.707              1.632              1.302
 Vibration    18          0.726              1.577              1.171
 Vibration    19          0.734              1.557              1.126
 Vibration    20          0.757              1.495              1.005
 Vibration    21          0.773              1.452              0.932
 Vibration    22          0.781              1.430              0.897
 Vibration    23          0.824              1.325              0.748
 Vibration    24          0.849              1.264              0.674
 Vibration    25          0.863              1.233              0.640
 Vibration    26          0.897              1.156              0.560
 Vibration    27          0.948              1.051              0.465

 Optimization completed.
    -- Stationary point found.
 Normal termination of Gaussian 16 at Fri Dec 11 21:06:41 2020.

 ----------------------------------------------------------------------
 # B3LYP/6-311++G(d,p) empiricaldispersion=gd3bj scf=xqc pop=npa geom=c
 heck
 ----------------------------------------------------------------------

 ---------------------------------------
 CID_108484370_JID_8418_Energie_neutraal
 ---------------------------------------
 Structure from the checkpoint file:  "JID_8418.chk"
 Charge =  0 Multiplicity = 1

 SCF Done:  E(RB3LYP) =  -771.097794098     A.U. after   15 cycles
 Normal termination of Gaussian 16 at Fri Dec 11 21:14:44 2020.

 ----------------------------------------------------------------------
 # B3LYP/6-311++G(d,p) empiricaldispersion=gd3bj scf=xqc pop=npa geom=c
 heck
 ----------------------------------------------------------------------

 -------------------------------------
 CID_108484370_JID_8418_Energie_kation
 -------------------------------------
 Structure from the checkpoint file:  "JID_8418.chk"
 Charge =  1 Multiplicity = 2

 SCF Done:  E(UB3LYP) =  -770.798069217     A.U. after   33 cycles
 SCF Done:  E(UB3LYP) =  -770.798069217     a.u. after    1 cycles
 Normal termination of Gaussian 16 at Fri Dec 11 21:39:33 2020.
 Gaussian 16:  ES64L-G16RevA.03 25-Dec-2016

 ----------------------------------------------------------------------
 # B3LYP/6-311++G(d,p) empiricaldispersion=gd3bj scf=xqc pop=npa geom=c
 heck
 ----------------------------------------------------------------------

 ------------------------------------
 CID_108484370_JID_8418_Energie_anion
 ------------------------------------
 Structure from the checkpoint file:  "JID_8418.chk"
 Charge = -1 Multiplicity = 2

                         Standard orientation:
 ---------------------------------------------------------------------
 Center     Atomic      Atomic             Coordinates (Angstroms)
 Number     Number       Type             X           Y           Z
 ---------------------------------------------------------------------
      1          6           0        5.080635    0.866655    0.815265
      2          6           0        4.155522    1.017493   -0.394434
      3          7           0        2.815246    0.459808   -0.185401
      4          6           0        1.888316    1.279825    0.594592
      5          6           0        1.236547    2.401077   -0.217676
      6          6           0        2.710681   -0.911575   -0.290882
      7          8           0        3.687301   -1.630700   -0.495491
      8          7           0        1.430748   -1.468718   -0.146604
      9          6           0        0.294152   -0.994266   -0.950650
     10          6           0       -0.873193   -1.977623   -0.862906
     11          6           0       -1.356202   -2.275580    0.563449
     12          6           0       -1.747682   -1.028913    1.380722
     13          6           0       -2.755695   -0.135680    0.691758
     14          6           0       -4.027904   -0.616616    0.352003
     15          6           0       -4.948851    0.195900   -0.306925
     16          6           0       -4.614530    1.510723   -0.639238
     17          6           0       -3.354916    2.004228   -0.302160
     18          6           0       -2.437173    1.185196    0.357584
     19          1           0        4.665938    1.352381    1.706144
     20          1           0        6.053866    1.326168    0.608088
     21          1           0        5.232843   -0.193466    1.030165
     22          1           0        4.032554    2.073884   -0.657099
     23          1           0        4.591501    0.509163   -1.256359
     24          1           0        1.136026    0.622527    1.032911
     25          1           0        2.437947    1.718892    1.438767
     26          1           0        0.647904    2.001369   -1.048670
     27          1           0        0.576304    2.999079    0.421319
     28          1           0        1.990584    3.075821   -0.636277
     29          1           0        1.553096   -2.472409   -0.244525
     30          1           0       -0.034283   -0.021256   -0.584980
     31          1           0        0.579232   -0.857735   -2.004889
     32          1           0       -1.700353   -1.562871   -1.450594
     33          1           0       -0.589459   -2.921952   -1.348337
     34          1           0       -2.216489   -2.953745    0.499292
     35          1           0       -0.577844   -2.813480    1.116858
     36          1           0       -2.147669   -1.363950    2.346975
     37          1           0       -0.845792   -0.450578    1.610335
     38          1           0       -4.299126   -1.638159    0.607851
     39          1           0       -5.930171   -0.196193   -0.560173
     40          1           0       -5.331728    2.143976   -1.153665
     41          1           0       -3.083858    3.026579   -0.551530
     42          1           0       -1.459623    1.578850    0.623336
 ---------------------------------------------------------------------

 SCF Done:  E(UB3LYP) =  -771.086495534     A.U. after   33 cycles
 SCF Done:  E(UB3LYP) =  -771.086495534     a.u. after    1 cycles

 The electronic state is 2-A.
 Alpha  occ. eigenvalues --  -18.99491 -14.24970 -14.23656 -10.20275 -10.12130
 Alpha  occ. eigenvalues --  -10.11829 -10.11538 -10.09093 -10.08669 -10.08491
 Alpha  occ. eigenvalues --  -10.08426 -10.08363 -10.08293 -10.08244 -10.08193
 Alpha  occ. eigenvalues --  -10.08139 -10.07659 -10.07453  -0.96045  -0.85099
 Alpha  occ. eigenvalues --   -0.82491  -0.77032  -0.71768  -0.68402  -0.67361
 Alpha  occ. eigenvalues --   -0.65693  -0.65452  -0.62319  -0.56888  -0.55956
 Alpha  occ. eigenvalues --   -0.55296  -0.51757  -0.51175  -0.47739  -0.46918
 Alpha  occ. eigenvalues --   -0.43716  -0.42356  -0.40396  -0.39614  -0.38022
 Alpha  occ. eigenvalues --   -0.37900  -0.36732  -0.36281  -0.35848  -0.34715
 Alpha  occ. eigenvalues --   -0.34552  -0.33394  -0.32881  -0.32386  -0.31549
 Alpha  occ. eigenvalues --   -0.30742  -0.29963  -0.29268  -0.29214  -0.28358
 Alpha  occ. eigenvalues --   -0.27725  -0.27166  -0.26571  -0.26222  -0.25850
 Alpha  occ. eigenvalues --   -0.24925  -0.24238  -0.23859  -0.19404  -0.16673
 Alpha  occ. eigenvalues --   -0.16151  -0.15710  -0.15633   0.03880
 Alpha virt. eigenvalues --    0.05405   0.06091   0.06779   0.06922   0.07254
 Alpha virt. eigenvalues --    0.07629   0.07856   0.08449   0.08703   0.08981
 Alpha virt. eigenvalues --    0.09642   0.10031   0.10448   0.11083   0.11583

  Beta  occ. eigenvalues --  -18.99489 -14.24969 -14.23650 -10.20275 -10.12115
  Beta  occ. eigenvalues --  -10.11823 -10.11525 -10.09076 -10.08660 -10.08479
  Beta  occ. eigenvalues --  -10.08413 -10.08353 -10.08278 -10.08221 -10.08183
  Beta  occ. eigenvalues --  -10.08119 -10.07626 -10.07436  -0.96042  -0.85091
  Beta  occ. eigenvalues --   -0.82482  -0.76993  -0.71739  -0.68372  -0.67326
  Beta  occ. eigenvalues --   -0.65656  -0.65420  -0.62285  -0.56857  -0.55911
  Beta  occ. eigenvalues --   -0.55252  -0.51714  -0.51132  -0.47699  -0.46889
  Beta  occ. eigenvalues --   -0.43695  -0.42300  -0.40371  -0.39590  -0.37999
  Beta  occ. eigenvalues --   -0.37868  -0.36695  -0.36255  -0.35812  -0.34692
  Beta  occ. eigenvalues --   -0.34528  -0.33365  -0.32856  -0.32351  -0.31522
  Beta  occ. eigenvalues --   -0.30709  -0.29931  -0.29233  -0.29189  -0.28328
  Beta  occ. eigenvalues --   -0.27681  -0.27140  -0.26548  -0.26200  -0.25817
  Beta  occ. eigenvalues --   -0.24894  -0.24209  -0.23830  -0.19397  -0.16635
  Beta  occ. eigenvalues --   -0.16134  -0.15656  -0.15593
  Beta virt. eigenvalues --    0.05847   0.06258   0.06593   0.07046   0.07305
  Beta virt. eigenvalues --    0.07449   0.08084   0.08147   0.08831   0.08946
  Beta virt. eigenvalues --    0.09279   0.09970   0.10149   0.10665   0.11284

 Mulliken charges and spin densities:
               1          2
     1  C    0.138667  -0.560718
     2  C   -0.134312   0.001638
     3  N    0.192117  -0.044851
     4  C   -0.971873   0.402424
     5  C    0.759833  -1.209538
     6  C   -0.049090   0.092762
     7  O   -0.333347  -0.007107
     8  N   -0.305913   0.072819
     9  C   -0.016066  -0.156435
    10  C   -0.507309   0.156512
    11  C    0.247588  -0.680975
    12  C    1.468311  -1.763865
    13  C    0.148441   0.569999
    14  C   -0.488410   0.277606
    15  C   -0.008242  -0.357290
    16  C    1.634260  -1.984158
    17  C   -0.429595   0.213800
    18  C   -1.417941   1.221352
    19  H    0.030917   0.082714
    20  H   -0.074626   0.208769
    21  H    0.121996   0.060757
    22  H   -0.094646   0.213717
    23  H    0.131649   0.056291
    24  H    0.381298  -0.189991
    25  H   -0.385974   0.537243
    26  H   -0.167244   0.337435
    27  H   -0.263831   0.412547
    28  H   -0.258906   0.400438
    29  H    0.257476   0.031579
    30  H    0.704485  -0.725767
    31  H    0.095205   0.116326
    32  H    0.119205   0.030186
    33  H    0.003403   0.172491
    34  H   -0.144740   0.304709
    35  H    0.118141   0.031324
    36  H   -0.166644   0.373889
    37  H   -0.212695   0.392683
    38  H   -0.303318   0.459803
    39  H   -0.566043   0.745587
    40  H   -0.091402   0.244480
    41  H   -0.488460   0.669586
    42  H    0.327636  -0.210770
 Sum of Mulliken charges =  -1.00000   1.00000

 Dipole moment (field-independent basis, Debye):
    X=              2.8269    Y=             -2.2605    Z=             -0.7168  Tot=              3.6899
 Quadrupole moment (field-independent basis, Debye-Ang):
   XX=           -222.5716   YY=           -170.9462   ZZ=           -144.3469
   XY=             -0.6888   XZ=             -0.1194   YZ=              1.5036

 Summary of Natural Population Analysis:

                                       Natural Population
                Natural  -----------------------------------------------
    Atom  No    Charge         Core      Valence    Rydberg      Total
 -----------------------------------------------------------------------
      C    1   -0.29586      0.99966     2.29128    0.00492     3.29586
      C    2   -0.08552      0.99963     2.07510    0.01079     3.08552
      N    3   -0.26586      0.99964     2.75607    0.01015     3.76586
      C    4   -0.08923      0.99961     2.07934    0.01028     3.08923
      C    5   -0.29089      0.99966     2.28557    0.00566     3.29089
      C    6    0.41587      0.99967     1.56201    0.02245     2.58413
      O    7   -0.34169      0.99988     3.33697    0.00484     4.34169
      N    8   -0.34164      0.99968     2.83349    0.00847     3.84164
      C    9   -0.09113      0.99960     2.08232    0.00921     3.09113
      C   10   -0.19544      0.99962     2.18759    0.00823     3.19544
      C   11   -0.18657      0.99962     2.17856    0.00839     3.18657
      C   12   -0.20018      0.99959     2.19141    0.00918     3.20018
      C   13   -0.01389      0.99951     2.00339    0.01099     3.01389
      C   14   -0.10182      0.99950     2.09242    0.00989     3.10182
      C   15   -0.09813      0.99956     2.08827    0.01030     3.09813
      C   16   -0.10296      0.99956     2.09389    0.00951     3.10296
      C   17   -0.09760      0.99956     2.08753    0.01051     3.09760
      C   18   -0.10483      0.99950     2.09601    0.00931     3.10483
      H   19    0.09608      0.00000     0.40296    0.00096     0.40392
      H   20    0.09831      0.00000     0.40088    0.00081     0.40169
      H   21    0.10820      0.00000     0.39090    0.00090     0.39180
      H   22    0.09454      0.00000     0.40427    0.00118     0.40546
      H   23    0.10540      0.00000     0.39361    0.00099     0.39460
      H   24    0.10312      0.00000     0.39464    0.00224     0.39688
      H   25    0.09413      0.00000     0.40456    0.00131     0.40587
      H   26    0.09866      0.00000     0.39992    0.00143     0.40134
      H   27    0.10286      0.00000     0.39552    0.00161     0.39714
      H   28    0.10013      0.00000     0.39848    0.00139     0.39987
      H   29    0.18764      0.00000     0.30968    0.00267     0.31236
      H   30    0.09679      0.00000     0.40051    0.00270     0.40321
      H   31    0.08850      0.00000     0.41036    0.00114     0.41150
      H   32    0.10689      0.00000     0.39207    0.00104     0.39311
      H   33    0.09568      0.00000     0.40332    0.00100     0.40432
      H   34    0.09903      0.00000     0.39977    0.00120     0.40097
      H   35    0.09941      0.00000     0.39942    0.00117     0.40059
      H   36    0.10676      0.00000     0.39210    0.00114     0.39324
      H   37    0.09899      0.00000     0.39909    0.00191     0.40101
      H   38    0.10156      0.00000     0.39693    0.00151     0.39844
      H   39    0.10124      0.00000     0.39749    0.00127     0.39876
      H   40    0.10090      0.00000     0.39802    0.00108     0.39910
      H   41    0.10247      0.00000     0.39637    0.00116     0.39753
      H   42    0.10007      0.00000     0.39783    0.00210     0.39993
 =======================================================================
   * Total *    0.00000     17.99305    49.79996    0.20699    68.00000

 Normal termination of Gaussian 16 at Fri Dec 11 22:03:29 2020.
