 Gaussian 16, Revision A.03,

 -----------------------------------------------------------
 # opt freq B3LYP/6-31G(d) empiricaldispersion=gd3bj scf=xqc
 -----------------------------------------------------------

 ------------------------------
 CID_147510870_JID_743_neutraal
 ------------------------------
 Symbolic Z-matrix:
 Charge =  0 Multiplicity = 1

 SCF Done:  E(RB3LYP) =  -494.528734113     A.U. after   14 cycles
 SCF Done:  E(RB3LYP) =  -494.535301167     A.U. after   12 cycles
 SCF Done:  E(RB3LYP) =  -494.536689620     A.U. after   11 cycles
 SCF Done:  E(RB3LYP) =  -494.536958039     A.U. after   11 cycles
 SCF Done:  E(RB3LYP) =  -494.537165598     A.U. after   11 cycles
 SCF Done:  E(RB3LYP) =  -494.537500194     A.U. after   13 cycles
 SCF Done:  E(RB3LYP) =  -494.536257047     A.U. after   15 cycles
 SCF Done:  E(RB3LYP) =  -494.538683604     A.U. after   12 cycles
 SCF Done:  E(RB3LYP) =  -494.539270442     A.U. after   12 cycles
 SCF Done:  E(RB3LYP) =  -494.535619906     A.U. after   13 cycles
 SCF Done:  E(RB3LYP) =  -494.543982321     A.U. after   10 cycles
 SCF Done:  E(RB3LYP) =  -494.544011347     A.U. after   10 cycles
 SCF Done:  E(RB3LYP) =  -494.544014825     A.U. after    8 cycles
 SCF Done:  E(RB3LYP) =  -494.544016159     A.U. after    8 cycles
 SCF Done:  E(RB3LYP) =  -494.544016430     A.U. after    8 cycles
 SCF Done:  E(RB3LYP) =  -494.544016486     A.U. after    7 cycles
 Optimization completed.
    -- Stationary point found.
 Normal termination of Gaussian 16 at Tue Dec  8 12:43:47 2020.

 --------------------------------------------------------------------
 #N Geom=AllCheck Guess=TCheck SCRF=Check GenChk RB3LYP/6-31G(d) Freq
 --------------------------------------------------------------------

 Structure from the checkpoint file:  "JID_743.chk"
 ------------------------------
 CID_147510870_JID_743_neutraal
 ------------------------------
 Charge =  0 Multiplicity = 1

 SCF Done:  E(RB3LYP) =  -494.544016486     A.U. after    1 cycles

  Exact polarizability:  94.199  -1.582  87.122   2.641   5.010  52.112
 Approx polarizability: 128.057  -4.922 130.810   6.476  13.346  80.439

                      1                      2                      3
                      A                      A                      A
 Frequencies --     46.0784                69.7742               118.3626
 Red. masses --      4.3801                 3.6554                 3.3065
 Frc consts  --      0.0055                 0.0105                 0.0273
 IR Inten    --      0.6139                 5.0381                 2.1176

                      4                      5                      6
                      A                      A                      A
 Frequencies --    156.2002               174.9274               223.2472
 Red. masses --      1.9304                 2.6214                 1.6013
 Frc consts  --      0.0278                 0.0473                 0.0470
 IR Inten    --      3.7669                 2.2207                11.2452

                      7                      8                      9
                      A                      A                      A
 Frequencies --    269.6567               320.2115               374.2322
 Red. masses --      2.8273                 1.7924                 3.0281
 Frc consts  --      0.1211                 0.1083                 0.2499
 IR Inten    --      1.6475                34.1064                29.1203

                     10                     11                     12
                      A                      A                      A
 Frequencies --    403.3328               477.4876               584.6663
 Red. masses --      3.2092                 4.6032                 4.7454
 Frc consts  --      0.3076                 0.6183                 0.9557
 IR Inten    --      6.7252                 6.9340                 2.9447

                     13                     14                     15
                      A                      A                      A
 Frequencies --    613.0179               634.5386               729.1138
 Red. masses --      3.4235                 4.7631                 1.3022
 Frc consts  --      0.7580                 1.1299                 0.4079
 IR Inten    --      3.4453                 9.0832                29.6109

                     16                     17                     18
                      A                      A                      A
 Frequencies --    794.0261               825.3760               840.0439
 Red. masses --      1.9915                 1.3084                 2.7386
 Frc consts  --      0.7398                 0.5252                 1.1386
 IR Inten    --     35.8289                29.0147                65.6592

                     19                     20                     21
                      A                      A                      A
 Frequencies --    875.6325               906.2796               933.4763
 Red. masses --      1.3264                 6.2028                 2.7901
 Frc consts  --      0.5992                 3.0017                 1.4324
 IR Inten    --      1.4971                 6.1768                47.4942

                     22                     23                     24
                      A                      A                      A
 Frequencies --    967.4742               987.0411              1036.7485
 Red. masses --      3.6613                 2.4005                 1.3683
 Frc consts  --      2.0191                 1.3779                 0.8665
 IR Inten    --     27.1180                83.1488                26.3734

                     25                     26                     27
                      A                      A                      A
 Frequencies --   1113.6979              1121.7892              1144.3804
 Red. masses --      3.2654                 2.1599                 4.0321
 Frc consts  --      2.3863                 1.6014                 3.1112
 IR Inten    --      9.5096                15.6868               141.9198

                     28                     29                     30
                      A                      A                      A
 Frequencies --   1179.9170              1190.8222              1200.6068
 Red. masses --      1.6531                 1.7179                 2.0440
 Frc consts  --      1.3560                 1.4353                 1.7360
 IR Inten    --     27.6222                37.4754                45.8708

                     31                     32                     33
                      A                      A                      A
 Frequencies --   1233.0025              1243.1726              1252.8448
 Red. masses --      1.7870                 4.1390                 1.5609
 Frc consts  --      1.6006                 3.7688                 1.4435
 IR Inten    --     24.6422                14.0568                 6.6238

                     34                     35                     36
                      A                      A                      A
 Frequencies --   1336.0530              1343.6455              1383.3957
 Red. masses --      1.1766                 1.2526                 1.2406
 Frc consts  --      1.2375                 1.3324                 1.3989
 IR Inten    --      1.4280                51.0909                14.8084

                     37                     38                     39
                      A                      A                      A
 Frequencies --   1425.6515              1489.6379              1517.9481
 Red. masses --      2.4969                 1.1667                 1.0503
 Frc consts  --      2.9901                 1.5254                 1.4259
 IR Inten    --      0.9357                 0.6406                 1.0830

                     40                     41                     42
                      A                      A                      A
 Frequencies --   1529.8636              1545.3387              1549.3098
 Red. masses --      1.1887                 2.8649                 1.2322
 Frc consts  --      1.6392                 4.0309                 1.7427
 IR Inten    --     12.5282                 5.8279                 8.3947

                     43                     44                     45
                      A                      A                      A
 Frequencies --   1642.6240              1706.3689              3018.7135
 Red. masses --      6.1249                 1.0837                 1.0388
 Frc consts  --      9.7369                 1.8591                 5.5772
 IR Inten    --      0.3349                17.6066                43.9544

                     46                     47                     48
                      A                      A                      A
 Frequencies --   3083.5722              3104.8514              3143.4081
 Red. masses --      1.0994                 1.0851                 1.1005
 Frc consts  --      6.1591                 6.1630                 6.4069
 IR Inten    --     51.1122                 7.5104                31.1305

                     49                     50                     51
                      A                      A                      A
 Frequencies --   3266.1412              3285.6546              3302.0901
 Red. masses --      1.0908                 1.0972                 1.1049
 Frc consts  --      6.8559                 6.9791                 7.0985
 IR Inten    --      4.1273                 0.7103                 1.7472

                     52                     53                     54
                      A                      A                      A
 Frequencies --   3427.6295              3444.8710              3548.0744
 Red. masses --      1.0544                 1.0705                 1.0921
 Frc consts  --      7.2988                 7.4849                 8.1006
 IR Inten    --     15.9983                 1.2230                 0.1131

 - Thermochemistry -
 -------------------
 Temperature   298.150 Kelvin.  Pressure   1.00000 Atm.
 Atom     1 has atomic number  6 and mass  12.00000

 Molecular mass:   142.07423 amu.
 Principal axes and moments of inertia in atomic units:
                           1         2         3
     Eigenvalues --   937.777911596.226642304.54313
           X            0.99991  -0.00825  -0.01056
           Y            0.00813   0.99990  -0.01130
           Z            0.01065   0.01121   0.99988
 This molecule is an asymmetric top.
 Rotational symmetry number  1.
 Warning -- assumption of classical behavior for rotation
           may cause significant error
 Rotational temperatures (Kelvin)      0.09236     0.05426     0.03758
 Rotational constants (GHZ):           1.92449     1.13063     0.78312
 Zero-point vibrational energy     437450.6 (Joules/Mol)
                                  104.55319 (Kcal/Mol)
 Warning -- explicit consideration of  13 degrees of freedom as
           vibrations may cause significant error
 Vibrational temperatures:     66.30   100.39   170.30   224.74   251.68
          (Kelvin)            321.20   387.98   460.71   538.44   580.31
                              687.00   841.20   882.00   912.96  1049.03
                             1142.43  1187.53  1208.64  1259.84  1303.93
                             1343.06  1391.98  1420.13  1491.65  1602.36
                             1614.00  1646.51  1697.64  1713.33  1727.41
                             1774.02  1788.65  1802.56  1922.28  1933.21
                             1990.40  2051.19  2143.26  2183.99  2201.13
                             2223.40  2229.11  2363.37  2455.08  4343.26
                             4436.57  4467.19  4522.66  4699.25  4727.32
                             4750.97  4931.59  4956.40  5104.89

 Zero-point correction=                           0.166616 (Hartree/Particle)
 Thermal correction to Energy=                    0.176561
 Thermal correction to Enthalpy=                  0.177505
 Thermal correction to Gibbs Free Energy=         0.130660
 Sum of electronic and zero-point Energies=           -494.377400
 Sum of electronic and thermal Energies=              -494.367455
 Sum of electronic and thermal Enthalpies=            -494.366511
 Sum of electronic and thermal Free Energies=         -494.413357

                     E (Thermal)             CV                S
                      KCal/Mol        Cal/Mol-Kelvin    Cal/Mol-Kelvin
 Total                  110.794             36.192             98.595
 Electronic               0.000              0.000              0.000
 Translational            0.889              2.981             40.765
 Rotational               0.889              2.981             29.624
 Vibrational            109.016             30.230             28.206
 Vibration     1          0.595              1.979              4.979
 Vibration     2          0.598              1.969              4.160
 Vibration     3          0.609              1.934              3.127
 Vibration     4          0.620              1.896              2.595
 Vibration     5          0.627              1.873              2.382
 Vibration     6          0.649              1.806              1.933
 Vibration     7          0.674              1.729              1.598
 Vibration     8          0.706              1.635              1.309
 Vibration     9          0.745              1.525              1.062
 Vibration    10          0.769              1.463              0.950
 Vibration    11          0.834              1.300              0.717
 Vibration    12          0.942              1.065              0.477
 Vibration    13          0.972              1.004              0.428

 Optimization completed.
    -- Stationary point found.
 Normal termination of Gaussian 16 at Tue Dec  8 13:04:02 2020.

 ----------------------------------------------------------------------
 # B3LYP/6-311++G(d,p) empiricaldispersion=gd3bj scf=xqc pop=npa geom=c
 heck
 ----------------------------------------------------------------------

 --------------------------------------
 CID_147510870_JID_743_Energie_neutraal
 --------------------------------------
 Structure from the checkpoint file:  "JID_743.chk"
 Charge =  0 Multiplicity = 1

 SCF Done:  E(RB3LYP) =  -494.698418642     A.U. after   14 cycles
 Normal termination of Gaussian 16 at Tue Dec  8 13:06:14 2020.

 ----------------------------------------------------------------------
 # B3LYP/6-311++G(d,p) empiricaldispersion=gd3bj scf=xqc pop=npa geom=c
 heck
 ----------------------------------------------------------------------

 ------------------------------------
 CID_147510870_JID_743_Energie_kation
 ------------------------------------
 Structure from the checkpoint file:  "JID_743.chk"
 Charge =  1 Multiplicity = 2

 SCF Done:  E(UB3LYP) =  -494.388205664     A.U. after   28 cycles
 Normal termination of Gaussian 16 at Tue Dec  8 13:16:58 2020.
 Gaussian 16:  ES64L-G16RevA.03 25-Dec-2016

 ----------------------------------------------------------------------
 # B3LYP/6-311++G(d,p) empiricaldispersion=gd3bj scf=xqc pop=npa geom=c
 heck
 ----------------------------------------------------------------------

 -----------------------------------
 CID_147510870_JID_743_Energie_anion
 -----------------------------------
 Structure from the checkpoint file:  "JID_743.chk"
 Charge = -1 Multiplicity = 2

                         Standard orientation:
 ---------------------------------------------------------------------
 Center     Atomic      Atomic             Coordinates (Angstroms)
 Number     Number       Type             X           Y           Z
 ---------------------------------------------------------------------
      1          6           0        1.626716    1.928731   -0.745361
      2          8           0        1.466124    1.361795    0.545694
      3          6           0        0.925776    0.052487    0.553312
      4          6           0       -0.556110    0.118402    0.266693
      5          6           0       -1.506607    1.079994    0.435381
      6          6           0       -2.753790    0.504720    0.017549
      7          6           0       -2.474291   -0.767830   -0.373094
      8          8           0       -1.137949   -1.023598   -0.230980
      9          7           0        1.630774   -0.873397   -0.324009
     10          7           0        1.690432   -2.180210    0.255042
     11          1           0        1.978668    2.951281   -0.590324
     12          1           0        0.677602    1.958145   -1.300369
     13          1           0        2.371887    1.375890   -1.330332
     14          1           0        1.101810   -0.320118    1.565958
     15          1           0       -1.331260    2.076368    0.813424
     16          1           0       -3.724448    0.980582    0.008953
     17          1           0       -3.068260   -1.581329   -0.760031
     18          1           0        1.174389   -0.900068   -1.236219
     19          1           0        0.866326   -2.726015   -0.002672
     20          1           0        2.509278   -2.644082   -0.130205
 ---------------------------------------------------------------------

 SCF Done:  E(UB3LYP) =  -494.682523051     A.U. after   31 cycles

 The electronic state is 2-A.
 Alpha  occ. eigenvalues --  -19.08724 -19.02668 -14.22347 -14.21693 -10.15283
 Alpha  occ. eigenvalues --  -10.12056 -10.11698 -10.10780 -10.06941 -10.06874
 Alpha  occ. eigenvalues --   -1.00921  -0.94498  -0.85826  -0.70034  -0.69468
 Alpha  occ. eigenvalues --   -0.63996  -0.60504  -0.52268  -0.49864  -0.45795
 Alpha  occ. eigenvalues --   -0.44423  -0.41789  -0.39334  -0.37892  -0.36205
 Alpha  occ. eigenvalues --   -0.35588  -0.34396  -0.32514  -0.30906  -0.29947
 Alpha  occ. eigenvalues --   -0.28504  -0.27532  -0.22908  -0.18240  -0.17906
 Alpha  occ. eigenvalues --   -0.15468  -0.14900  -0.12605   0.04764
 Alpha virt. eigenvalues --    0.07053   0.07432   0.08728   0.09198   0.09548
 Alpha virt. eigenvalues --    0.10284   0.11506   0.11710   0.12404   0.12859
 Alpha virt. eigenvalues --    0.14809   0.15334   0.16335   0.17038   0.17753

  Beta  occ. eigenvalues --  -19.08709 -19.02663 -14.22320 -14.21646 -10.15281
  Beta  occ. eigenvalues --  -10.12057 -10.11671 -10.10756 -10.06925 -10.06864
  Beta  occ. eigenvalues --   -1.00897  -0.94484  -0.85776  -0.70004  -0.69407
  Beta  occ. eigenvalues --   -0.63933  -0.60459  -0.52219  -0.49831  -0.45748
  Beta  occ. eigenvalues --   -0.44371  -0.41729  -0.39283  -0.37851  -0.36158
  Beta  occ. eigenvalues --   -0.35537  -0.34365  -0.32479  -0.30868  -0.29915
  Beta  occ. eigenvalues --   -0.28479  -0.27504  -0.22884  -0.18215  -0.17882
  Beta  occ. eigenvalues --   -0.15426  -0.14864  -0.12584
  Beta virt. eigenvalues --    0.07216   0.08224   0.08307   0.09170   0.09705
  Beta virt. eigenvalues --    0.10155   0.10931   0.11539   0.12209   0.13059
  Beta virt. eigenvalues --    0.13253   0.14893   0.15328   0.16356   0.17168

 Mulliken charges and spin densities:
               1          2
     1  C    0.343189  -0.545318
     2  O   -0.076453   0.029653
     3  C    0.859640  -2.525279
     4  C    0.371843   0.070586
     5  C   -1.143602   1.376783
     6  C    1.521790  -1.949378
     7  C    0.104857  -0.057647
     8  O   -0.076531   0.086912
     9  N    0.012893   0.090648
    10  N   -0.246781  -0.241547
    11  H   -0.030220   0.184787
    12  H   -0.054274   0.179480
    13  H   -0.130292   0.281297
    14  H    0.201755   0.029724
    15  H   -0.100857   0.289202
    16  H   -0.856351   1.025977
    17  H   -1.492311   1.689261
    18  H   -0.035895   0.304617
    19  H   -0.080218   0.320903
    20  H   -0.092181   0.359337
 Sum of Mulliken charges =  -1.00000   1.00000

 Dipole moment (field-independent basis, Debye):
    X=              3.3638    Y=              3.4322    Z=              2.3246  Tot=              5.3385
 Quadrupole moment (field-independent basis, Debye-Ang):
   XX=           -123.0971   YY=           -101.4826   ZZ=            -87.8339
   XY=             -1.7278   XZ=             -4.2313   YZ=             -3.8287

 Summary of Natural Population Analysis:

                                       Natural Population
                Natural  -----------------------------------------------
    Atom  No    Charge         Core      Valence    Rydberg      Total
 -----------------------------------------------------------------------
      C    1   -0.10858      0.99960     2.09918    0.00979     3.10858
      O    2   -0.29610      0.99989     3.28705    0.00916     4.29610
      C    3    0.13226      0.99951     1.84919    0.01903     2.86774
      C    4    0.12882      0.99943     1.85517    0.01658     2.87118
      C    5   -0.14591      0.99949     2.13685    0.00957     3.14591
      C    6   -0.14968      0.99957     2.14020    0.00991     3.14968
      C    7    0.06577      0.99949     1.92007    0.01466     2.93423
      O    8   -0.24164      0.99986     3.23106    0.01072     4.24164
      N    9   -0.25750      0.99973     2.74243    0.01534     3.75750
      N   10   -0.32948      0.99976     2.81681    0.01290     3.82948
      H   11    0.08769      0.00000     0.41127    0.00105     0.41231
      H   12    0.08338      0.00000     0.41510    0.00152     0.41662
      H   13    0.08695      0.00000     0.41140    0.00166     0.41305
      H   14    0.10421      0.00000     0.39370    0.00209     0.39579
      H   15    0.11189      0.00000     0.38711    0.00101     0.38811
      H   16    0.11041      0.00000     0.38734    0.00225     0.38959
      H   17    0.10034      0.00000     0.39437    0.00529     0.39966
      H   18    0.16984      0.00000     0.32461    0.00555     0.33016
      H   19    0.17236      0.00000     0.32413    0.00350     0.32764
      H   20    0.17497      0.00000     0.32246    0.00258     0.32503
 =======================================================================
   * Total *    0.00000      9.99634    27.84950    0.15416    38.00000

 Normal termination of Gaussian 16 at Tue Dec  8 13:26:59 2020.
