 Gaussian 16, Revision A.03,

 -----------------------------------------------------------
 # opt freq B3LYP/6-31G(d) empiricaldispersion=gd3bj scf=xqc
 -----------------------------------------------------------

 -------------------------------
 CID_131327859_JID_3691_neutraal
 -------------------------------
 Symbolic Z-matrix:
 Charge =  0 Multiplicity = 1

 SCF Done:  E(RB3LYP) =  -558.219587127     A.U. after   13 cycles
 SCF Done:  E(RB3LYP) =  -558.222291427     A.U. after   11 cycles
 SCF Done:  E(RB3LYP) =  -558.222391171     A.U. after   11 cycles
 SCF Done:  E(RB3LYP) =  -558.222574118     A.U. after   11 cycles
 SCF Done:  E(RB3LYP) =  -558.222598037     A.U. after    9 cycles
 SCF Done:  E(RB3LYP) =  -558.222601561     A.U. after    8 cycles
 SCF Done:  E(RB3LYP) =  -558.222602188     A.U. after    7 cycles
 SCF Done:  E(RB3LYP) =  -558.222602349     A.U. after    7 cycles
 Optimization completed.
    -- Stationary point found.
 Normal termination of Gaussian 16 at Sun Dec 13 15:56:50 2020.

 --------------------------------------------------------------------
 #N Geom=AllCheck Guess=TCheck SCRF=Check GenChk RB3LYP/6-31G(d) Freq
 --------------------------------------------------------------------

 Structure from the checkpoint file:  "JID_3691.chk"
 -------------------------------
 CID_131327859_JID_3691_neutraal
 -------------------------------
 Charge =  0 Multiplicity = 1

 SCF Done:  E(RB3LYP) =  -558.222602349     A.U. after    1 cycles

  Exact polarizability: 145.216   2.390 133.654  -4.413   2.262  75.732
 Approx polarizability: 211.851   1.951 208.729  -9.030   4.027 116.856

                      1                      2                      3
                      A                      A                      A
 Frequencies --     72.0841               110.9533               139.2118
 Red. masses --      3.8394                 2.5158                 3.5159
 Frc consts  --      0.0118                 0.0182                 0.0401
 IR Inten    --      0.3923                 0.6399                 0.4263

                      4                      5                      6
                      A                      A                      A
 Frequencies --    177.4426               209.0462               215.4378
 Red. masses --      3.2911                 1.2917                 2.1929
 Frc consts  --      0.0611                 0.0333                 0.0600
 IR Inten    --      0.5647                 0.8350                 4.0911

                      7                      8                      9
                      A                      A                      A
 Frequencies --    235.1015               265.6993               306.0800
 Red. masses --      2.6395                 2.2101                 1.4532
 Frc consts  --      0.0860                 0.0919                 0.0802
 IR Inten    --      0.8444                 9.5659                49.1191

                     10                     11                     12
                      A                      A                      A
 Frequencies --    339.5674               349.6477               370.5601
 Red. masses --      2.7235                 2.9144                 1.7402
 Frc consts  --      0.1850                 0.2099                 0.1408
 IR Inten    --      5.6482                14.1001                67.4493

                     13                     14                     15
                      A                      A                      A
 Frequencies --    410.5121               417.0656               471.6700
 Red. masses --      1.7325                 2.0571                 3.4255
 Frc consts  --      0.1720                 0.2108                 0.4490
 IR Inten    --     29.1131                12.2800                 0.2873

                     16                     17                     18
                      A                      A                      A
 Frequencies --    517.6853               554.0739               570.8995
 Red. masses --      3.0578                 4.4383                 3.7144
 Frc consts  --      0.4828                 0.8028                 0.7133
 IR Inten    --      0.0744                 2.0928                 1.5594

                     19                     20                     21
                      A                      A                      A
 Frequencies --    580.5299               629.4936               705.2714
 Red. masses --      4.1546                 3.8840                 3.6331
 Frc consts  --      0.8250                 0.9068                 1.0647
 IR Inten    --      2.3694                 1.5846                 3.4901

                     22                     23                     24
                      A                      A                      A
 Frequencies --    743.4962               779.7698               793.8357
 Red. masses --      2.9191                 2.0721                 1.7603
 Frc consts  --      0.9507                 0.7423                 0.6536
 IR Inten    --      0.0499                25.9316                 8.2418

                     25                     26                     27
                      A                      A                      A
 Frequencies --    849.8477               901.5491               911.1889
 Red. masses --      2.2397                 1.3441                 2.0701
 Frc consts  --      0.9530                 0.6437                 1.0127
 IR Inten    --      1.1932                 7.2028               109.0111

                     28                     29                     30
                      A                      A                      A
 Frequencies --    930.5667               956.6827               969.0502
 Red. masses --      2.1541                 1.9116                 1.2712
 Frc consts  --      1.0990                 1.0308                 0.7033
 IR Inten    --     41.1445                18.1511                 0.2407

                     31                     32                     33
                      A                      A                      A
 Frequencies --    984.1360              1004.6227              1015.4134
 Red. masses --      1.9269                 2.1638                 1.8336
 Frc consts  --      1.0995                 1.2867                 1.1139
 IR Inten    --     15.5225                 0.9052                 2.5129

                     34                     35                     36
                      A                      A                      A
 Frequencies --   1047.3967              1071.0242              1073.5585
 Red. masses --      2.1912                 2.8999                 1.9247
 Frc consts  --      1.4163                 1.9599                 1.3070
 IR Inten    --      6.5554                64.3773                42.4715

                     37                     38                     39
                      A                      A                      A
 Frequencies --   1106.9006              1126.6357              1132.4904
 Red. masses --      1.9818                 1.6464                 1.9004
 Frc consts  --      1.4307                 1.2313                 1.4360
 IR Inten    --     14.8444                 9.4665                12.9542

                     40                     41                     42
                      A                      A                      A
 Frequencies --   1175.2211              1200.4552              1210.3086
 Red. masses --      1.8714                 1.3285                 1.5292
 Frc consts  --      1.5228                 1.1279                 1.3198
 IR Inten    --      6.1999                 6.3090                11.1053

                     43                     44                     45
                      A                      A                      A
 Frequencies --   1223.4066              1263.7212              1282.4290
 Red. masses --      1.3524                 1.7160                 2.4214
 Frc consts  --      1.1926                 1.6146                 2.3463
 IR Inten    --      1.6265                 2.9232                 4.4944

                     46                     47                     48
                      A                      A                      A
 Frequencies --   1306.0624              1330.8094              1338.2131
 Red. masses --      1.7068                 2.2231                 1.5178
 Frc consts  --      1.7154                 2.3197                 1.6015
 IR Inten    --     10.2601                 8.4245                 3.9158

                     49                     50                     51
                      A                      A                      A
 Frequencies --   1360.9100              1372.1446              1396.6714
 Red. masses --      1.5258                 2.5561                 1.5144
 Frc consts  --      1.6649                 2.8355                 1.7405
 IR Inten    --      4.5283                 4.6779                21.9970

                     52                     53                     54
                      A                      A                      A
 Frequencies --   1440.3949              1447.3740              1482.7796
 Red. masses --      1.2806                 1.2417                 2.2676
 Frc consts  --      1.5654                 1.5326                 2.9374
 IR Inten    --     17.1503                 5.8060                 1.4120

                     55                     56                     57
                      A                      A                      A
 Frequencies --   1504.6199              1517.3197              1519.9734
 Red. masses --      1.1262                 1.1123                 1.1312
 Frc consts  --      1.5021                 1.5088                 1.5397
 IR Inten    --      0.9332                 1.4638                 6.0579

                     58                     59                     60
                      A                      A                      A
 Frequencies --   1524.9227              1531.7672              1537.9557
 Red. masses --      2.3067                 1.1242                 1.1104
 Frc consts  --      3.1603                 1.5541                 1.5475
 IR Inten    --     11.4228                11.0352                 9.1963

                     61                     62                     63
                      A                      A                      A
 Frequencies --   1647.3165              1659.9978              1687.4381
 Red. masses --      6.9759                 5.8010                 1.1010
 Frc consts  --     11.1533                 9.4182                 1.8471
 IR Inten    --      5.6398                 4.1772                25.3141

                     64                     65                     66
                      A                      A                      A
 Frequencies --   3006.6295              3035.1143              3048.0535
 Red. masses --      1.0728                 1.0677                 1.0380
 Frc consts  --      5.7136                 5.7948                 5.6818
 IR Inten    --     44.8189                38.9861                26.9888

                     67                     68                     69
                      A                      A                      A
 Frequencies --   3054.8174              3095.3440              3102.9637
 Red. masses --      1.0613                 1.1006                 1.0998
 Frc consts  --      5.8353                 6.2128                 6.2388
 IR Inten    --     24.1551                27.7248                18.5433

                     70                     71                     72
                      A                      A                      A
 Frequencies --   3112.1873              3124.8566              3149.6549
 Red. masses --      1.0988                 1.1011                 1.0912
 Frc consts  --      6.2705                 6.3349                 6.3777
 IR Inten    --     37.1131                27.1256                23.7414

                     73                     74                     75
                      A                      A                      A
 Frequencies --   3175.4204              3185.6980              3202.7817
 Red. masses --      1.0861                 1.0902                 1.0965
 Frc consts  --      6.4524                 6.5186                 6.6267
 IR Inten    --      3.8103                23.8242                34.2583

                     76                     77                     78
                      A                      A                      A
 Frequencies --   3445.7871              3540.8813              3742.3619
 Red. masses --      1.0494                 1.0918                 1.0658
 Frc consts  --      7.3412                 8.0649                 8.7945
 IR Inten    --      1.9390                 1.2399                12.3487

 - Thermochemistry -
 -------------------
 Temperature   298.150 Kelvin.  Pressure   1.00000 Atm.
 Atom     1 has atomic number  6 and mass  12.00000

 Molecular mass:   177.11536 amu.
 Principal axes and moments of inertia in atomic units:
                           1         2         3
     Eigenvalues --  1397.382732617.888223550.39427
           X            0.99990   0.01386   0.00004
           Y           -0.01386   0.99987   0.00769
           Z            0.00006  -0.00769   0.99997
 This molecule is an asymmetric top.
 Rotational symmetry number  1.
 Warning -- assumption of classical behavior for rotation
           may cause significant error
 Rotational temperatures (Kelvin)      0.06198     0.03309     0.02440
 Rotational constants (GHZ):           1.29152     0.68939     0.50832
 Zero-point vibrational energy     640187.3 (Joules/Mol)
                                  153.00844 (Kcal/Mol)
 Warning -- explicit consideration of  19 degrees of freedom as
           vibrations may cause significant error
 Vibrational temperatures:    103.71   159.64   200.29   255.30   300.77
          (Kelvin)            309.97   338.26   382.28   440.38   488.56
                              503.07   533.15   590.64   600.06   678.63
                              744.83   797.19   821.40   835.25   905.70
                             1014.73  1069.73  1121.91  1142.15  1222.74
                             1297.13  1311.00  1338.88  1376.45  1394.25
                             1415.95  1445.43  1460.95  1506.97  1540.96
                             1544.61  1592.58  1620.98  1629.40  1690.88
                             1727.19  1741.36  1760.21  1818.21  1845.13
                             1879.13  1914.74  1925.39  1958.05  1974.21
                             2009.50  2072.41  2082.45  2133.39  2164.81
                             2183.08  2186.90  2194.02  2203.87  2212.78
                             2370.12  2388.37  2427.85  4325.87  4366.85
                             4385.47  4395.20  4453.51  4464.47  4477.74
                             4495.97  4531.65  4568.72  4583.51  4608.09
                             4957.72  5094.54  5384.42

 Zero-point correction=                           0.243834 (Hartree/Particle)
 Thermal correction to Energy=                    0.255840
 Thermal correction to Enthalpy=                  0.256784
 Thermal correction to Gibbs Free Energy=         0.206769
 Sum of electronic and zero-point Energies=           -557.978768
 Sum of electronic and thermal Energies=              -557.966763
 Sum of electronic and thermal Enthalpies=            -557.965818
 Sum of electronic and thermal Free Energies=         -558.015833

                     E (Thermal)             CV                S
                      KCal/Mol        Cal/Mol-Kelvin    Cal/Mol-Kelvin
 Total                  160.542             48.173            105.265
 Electronic               0.000              0.000              0.000
 Translational            0.889              2.981             41.422
 Rotational               0.889              2.981             30.941
 Vibrational            158.764             42.212             32.902
 Vibration     1          0.598              1.967              4.096
 Vibration     2          0.607              1.940              3.252
 Vibration     3          0.615              1.914              2.815
 Vibration     4          0.628              1.870              2.355
 Vibration     5          0.642              1.827              2.052
 Vibration     6          0.645              1.817              1.997
 Vibration     7          0.655              1.787              1.840
 Vibration     8          0.672              1.736              1.624
 Vibration     9          0.696              1.662              1.383
 Vibration    10          0.719              1.596              1.214
 Vibration    11          0.727              1.576              1.168
 Vibration    12          0.743              1.533              1.077
 Vibration    13          0.775              1.447              0.925
 Vibration    14          0.780              1.433              0.902
 Vibration    15          0.829              1.313              0.733
 Vibration    16          0.873              1.211              0.615
 Vibration    17          0.909              1.131              0.536
 Vibration    18          0.927              1.094              0.503
 Vibration    19          0.937              1.073              0.484

 Optimization completed.
    -- Stationary point found.
 Normal termination of Gaussian 16 at Sun Dec 13 16:04:38 2020.

 ----------------------------------------------------------------------
 # B3LYP/6-311++G(d,p) empiricaldispersion=gd3bj scf=xqc pop=npa geom=c
 heck
 ----------------------------------------------------------------------

 ---------------------------------------
 CID_131327859_JID_3691_Energie_neutraal
 ---------------------------------------
 Structure from the checkpoint file:  "JID_3691.chk"
 Charge =  0 Multiplicity = 1

 SCF Done:  E(RB3LYP) =  -558.387507186     A.U. after   15 cycles
 Normal termination of Gaussian 16 at Sun Dec 13 16:07:35 2020.

 ----------------------------------------------------------------------
 # B3LYP/6-311++G(d,p) empiricaldispersion=gd3bj scf=xqc pop=npa geom=c
 heck
 ----------------------------------------------------------------------

 -------------------------------------
 CID_131327859_JID_3691_Energie_kation
 -------------------------------------
 Structure from the checkpoint file:  "JID_3691.chk"
 Charge =  1 Multiplicity = 2

 SCF Done:  E(UB3LYP) =  -558.081006534     A.U. after   27 cycles
 Normal termination of Gaussian 16 at Sun Dec 13 16:14:35 2020.
 Gaussian 16:  ES64L-G16RevA.03 25-Dec-2016

 ----------------------------------------------------------------------
 # B3LYP/6-311++G(d,p) empiricaldispersion=gd3bj scf=xqc pop=npa geom=c
 heck
 ----------------------------------------------------------------------

 ------------------------------------
 CID_131327859_JID_3691_Energie_anion
 ------------------------------------
 Structure from the checkpoint file:  "JID_3691.chk"
 Charge = -1 Multiplicity = 2

                         Standard orientation:
 ---------------------------------------------------------------------
 Center     Atomic      Atomic             Coordinates (Angstroms)
 Number     Number       Type             X           Y           Z
 ---------------------------------------------------------------------
      1          6           0        0.556639    2.610932    0.101490
      2          6           0        1.148797    1.222713    0.001898
      3          6           0        0.382215    0.047440    0.018460
      4          6           0        1.002806   -1.209432   -0.038423
      5          6           0        2.384594   -1.326623   -0.149183
      6          6           0        3.153666   -0.163401   -0.195725
      7          6           0        2.540646    1.086583   -0.113811
      8          6           0       -0.016040   -2.318058    0.075124
      9          6           0       -1.333331   -1.604216   -0.274885
     10          6           0       -1.129392   -0.127210    0.171965
     11          6           0       -1.990214    0.809350   -0.695309
     12          8           0       -3.379079    0.514314   -0.547576
     13          7           0       -1.486879   -0.034981    1.603610
     14          1           0        1.337226    3.344687    0.323879
     15          1           0       -0.199072    2.683962    0.891128
     16          1           0        0.075864    2.919402   -0.834617
     17          1           0        2.855467   -2.305094   -0.197215
     18          1           0        4.234469   -0.227473   -0.288039
     19          1           0        3.153510    1.984414   -0.137577
     20          1           0       -0.047599   -2.690273    1.106598
     21          1           0        0.196528   -3.171417   -0.577956
     22          1           0       -2.203843   -2.053075    0.212375
     23          1           0       -1.484643   -1.639647   -1.362749
     24          1           0       -1.889519    1.846271   -0.372187
     25          1           0       -1.677961    0.749752   -1.749783
     26          1           0       -3.529406   -0.365172   -0.928027
     27          1           0       -2.500983    0.074930    1.657340
     28          1           0       -1.081564    0.810618    2.002555
 ---------------------------------------------------------------------

 SCF Done:  E(UB3LYP) =  -558.372883115     A.U. after   33 cycles
 SCF Done:  E(UB3LYP) =  -558.372883115     a.u. after    1 cycles

 The electronic state is 2-A.
 Alpha  occ. eigenvalues --  -19.02035 -14.18538 -10.10707 -10.10547 -10.08500
 Alpha  occ. eigenvalues --  -10.07539 -10.07410 -10.07161 -10.07115 -10.06931
 Alpha  occ. eigenvalues --  -10.06836 -10.06803 -10.06247  -0.92106  -0.79855
 Alpha  occ. eigenvalues --   -0.75516  -0.70287  -0.67375  -0.61773  -0.61168
 Alpha  occ. eigenvalues --   -0.58942  -0.54376  -0.50106  -0.47678  -0.45404
 Alpha  occ. eigenvalues --   -0.41130  -0.40128  -0.37955  -0.37323  -0.35673
 Alpha  occ. eigenvalues --   -0.33966  -0.32831  -0.32572  -0.31927  -0.31295
 Alpha  occ. eigenvalues --   -0.30647  -0.28741  -0.26580  -0.26399  -0.25284
 Alpha  occ. eigenvalues --   -0.23765  -0.23339  -0.22481  -0.22231  -0.18728
 Alpha  occ. eigenvalues --   -0.14657  -0.14147  -0.13742   0.04591
 Alpha virt. eigenvalues --    0.06500   0.07083   0.08008   0.08379   0.08452
 Alpha virt. eigenvalues --    0.09101   0.09213   0.10363   0.11029   0.11160
 Alpha virt. eigenvalues --    0.11812   0.12271   0.13266   0.14008   0.14378

  Beta  occ. eigenvalues --  -19.01998 -14.18502 -10.10684 -10.10548 -10.08494
  Beta  occ. eigenvalues --  -10.07538 -10.07388 -10.07144 -10.07112 -10.06919
  Beta  occ. eigenvalues --  -10.06823 -10.06770 -10.06209  -0.92025  -0.79810
  Beta  occ. eigenvalues --   -0.75476  -0.70249  -0.67336  -0.61722  -0.61114
  Beta  occ. eigenvalues --   -0.58888  -0.54311  -0.50049  -0.47642  -0.45352
  Beta  occ. eigenvalues --   -0.41065  -0.40086  -0.37912  -0.37283  -0.35631
  Beta  occ. eigenvalues --   -0.33921  -0.32779  -0.32536  -0.31882  -0.31256
  Beta  occ. eigenvalues --   -0.30617  -0.28701  -0.26532  -0.26351  -0.25242
  Beta  occ. eigenvalues --   -0.23729  -0.23305  -0.22451  -0.22196  -0.18677
  Beta  occ. eigenvalues --   -0.14588  -0.14108  -0.13696
  Beta virt. eigenvalues --    0.06778   0.07432   0.07843   0.08159   0.08666
  Beta virt. eigenvalues --    0.09010   0.09536   0.09679   0.10913   0.11480
  Beta virt. eigenvalues --    0.11576   0.12134   0.12459   0.13858   0.14463

 Mulliken charges and spin densities:
               1          2
     1  C    2.005362  -2.510607
     2  C   -2.158734   2.680331
     3  C    0.271032  -0.601927
     4  C    0.096813   0.014276
     5  C    0.106076  -0.351799
     6  C    0.032169  -0.136007
     7  C    0.888824  -1.455664
     8  C    0.018168  -0.234922
     9  C    0.905373  -1.547075
    10  C   -2.876548   3.055155
    11  C    2.150031  -2.618326
    12  O   -0.218078   0.011600
    13  N   -0.209741   0.016852
    14  H   -0.619478   0.783854
    15  H   -0.173076   0.318037
    16  H    0.075719   0.105305
    17  H   -0.002557   0.133410
    18  H   -0.289358   0.442047
    19  H   -0.234762   0.357527
    20  H    0.169136   0.002018
    21  H   -0.190441   0.353830
    22  H    0.034438   0.133924
    23  H   -0.557317   0.735180
    24  H    0.125005   0.051552
    25  H   -0.190028   0.355650
    26  H   -0.216155   0.470845
    27  H    0.036935   0.235673
    28  H    0.021190   0.199261
 Sum of Mulliken charges =  -1.00000   1.00000

 Dipole moment (field-independent basis, Debye):
    X=              2.4236    Y=             -1.8207    Z=              1.0233  Tot=              3.1994
 Quadrupole moment (field-independent basis, Debye-Ang):
   XX=           -139.5245   YY=           -123.4147   ZZ=           -113.6318
   XY=             -7.4745   XZ=             -4.5791   YZ=             -5.4254

 Summary of Natural Population Analysis:

                                       Natural Population
                Natural  -----------------------------------------------
    Atom  No    Charge         Core      Valence    Rydberg      Total
 -----------------------------------------------------------------------
      C    1   -0.29504      0.99964     2.28929    0.00611     3.29504
      C    2   -0.00940      0.99947     1.99975    0.01019     3.00940
      C    3   -0.01528      0.99940     2.00397    0.01190     3.01528
      C    4    0.00030      0.99948     1.98948    0.01074     2.99970
      C    5   -0.10595      0.99950     2.09780    0.00865     3.10595
      C    6   -0.09281      0.99956     2.08379    0.00946     3.09281
      C    7   -0.10351      0.99952     2.09397    0.01002     3.10351
      C    8   -0.19626      0.99960     2.18777    0.00890     3.19626
      C    9   -0.18797      0.99960     2.17713    0.01124     3.18797
      C   10    0.03701      0.99953     1.94806    0.01540     2.96299
      C   11   -0.01100      0.99952     1.99802    0.01347     3.01100
      O   12   -0.37236      0.99990     3.36585    0.00661     4.37236
      N   13   -0.42517      0.99975     2.91501    0.01040     3.92517
      H   14    0.10452      0.00000     0.39414    0.00134     0.39548
      H   15    0.10318      0.00000     0.39511    0.00171     0.39682
      H   16    0.10527      0.00000     0.39363    0.00110     0.39473
      H   17    0.09820      0.00000     0.40060    0.00119     0.40180
      H   18    0.09800      0.00000     0.40112    0.00089     0.40200
      H   19    0.09924      0.00000     0.39960    0.00117     0.40076
      H   20    0.10619      0.00000     0.39258    0.00123     0.39381
      H   21    0.10179      0.00000     0.39722    0.00099     0.39821
      H   22    0.10343      0.00000     0.39528    0.00128     0.39657
      H   23    0.09926      0.00000     0.39809    0.00264     0.40074
      H   24    0.08948      0.00000     0.40862    0.00190     0.41052
      H   25    0.08191      0.00000     0.41645    0.00164     0.41809
      H   26    0.23190      0.00000     0.26192    0.00619     0.26810
      H   27    0.18036      0.00000     0.31763    0.00200     0.31964
      H   28    0.17472      0.00000     0.32350    0.00178     0.32528
 =======================================================================
   * Total *   -0.00000     12.99448    34.84539    0.16013    48.00000

 Normal termination of Gaussian 16 at Sun Dec 13 16:23:23 2020.
