 Gaussian 16, Revision A.03,

 -----------------------------------------------------------
 # opt freq B3LYP/6-31G(d) empiricaldispersion=gd3bj scf=xqc
 -----------------------------------------------------------

 ----------------------------
 CID_129668047_JID_1_neutraal
 ----------------------------
 Symbolic Z-matrix:
 Charge =  0 Multiplicity = 1

 SCF Done:  E(RB3LYP) =  -823.776999831     A.U. after   14 cycles
 SCF Done:  E(RB3LYP) =  -823.779881238     A.U. after   12 cycles
 SCF Done:  E(RB3LYP) =  -823.780358309     A.U. after   12 cycles
 SCF Done:  E(RB3LYP) =  -823.780489060     A.U. after   12 cycles
 SCF Done:  E(RB3LYP) =  -823.780528680     A.U. after   11 cycles
 SCF Done:  E(RB3LYP) =  -823.780542522     A.U. after   10 cycles
 SCF Done:  E(RB3LYP) =  -823.780547379     A.U. after    9 cycles
 SCF Done:  E(RB3LYP) =  -823.780548057     A.U. after    8 cycles
 SCF Done:  E(RB3LYP) =  -823.780548704     A.U. after    8 cycles
 Optimization completed.
    -- Stationary point found.
 Normal termination of Gaussian 16 at Mon Dec  7 21:31:25 2020.

 --------------------------------------------------------------------
 #N Geom=AllCheck Guess=TCheck SCRF=Check GenChk RB3LYP/6-31G(d) Freq
 --------------------------------------------------------------------

 Structure from the checkpoint file:  "JID_1.chk"
 ----------------------------
 CID_129668047_JID_1_neutraal
 ----------------------------
 Charge =  0 Multiplicity = 1

 SCF Done:  E(RB3LYP) =  -823.780548704     A.U. after    1 cycles

  Exact polarizability: 125.183  -2.170  86.512   0.808  -2.707  82.840
 Approx polarizability: 168.462  -4.264 119.863   2.970  -8.565 134.876

                      1                      2                      3
                      A                      A                      A
 Frequencies --     21.5718                43.5653                74.7488
 Red. masses --      3.5456                 4.2703                 2.9526
 Frc consts  --      0.0010                 0.0048                 0.0097
 IR Inten    --      1.3737                 3.6702                 0.5506

                      4                      5                      6
                      A                      A                      A
 Frequencies --    101.6518               120.7697               187.4979
 Red. masses --      2.8844                 1.8679                 1.0890
 Frc consts  --      0.0176                 0.0161                 0.0226
 IR Inten    --      3.0092                 0.5773                 1.0590

                      7                      8                      9
                      A                      A                      A
 Frequencies --    210.7590               243.0849               264.1444
 Red. masses --      2.5849                 1.7524                 2.4322
 Frc consts  --      0.0677                 0.0610                 0.1000
 IR Inten    --      2.4064                 0.1958                 1.7551

                     10                     11                     12
                      A                      A                      A
 Frequencies --    291.7064               309.9550               310.6042
 Red. masses --      2.5356                 2.7007                 2.7367
 Frc consts  --      0.1271                 0.1529                 0.1556
 IR Inten    --      2.4772                 0.1251                 0.4536

                     13                     14                     15
                      A                      A                      A
 Frequencies --    353.1714               438.7357               463.6799
 Red. masses --      3.1450                 3.8405                 2.2415
 Frc consts  --      0.2311                 0.4356                 0.2839
 IR Inten    --      3.4649                27.3613                 5.6636

                     16                     17                     18
                      A                      A                      A
 Frequencies --    490.2985               544.5707               655.0086
 Red. masses --      5.9432                 2.7896                 4.4681
 Frc consts  --      0.8418                 0.4874                 1.1295
 IR Inten    --     36.2863                 2.2479                 8.5379

                     19                     20                     21
                      A                      A                      A
 Frequencies --    738.1496               766.3544               847.0213
 Red. masses --      3.3545                 1.2389                 1.9249
 Frc consts  --      1.0769                 0.4287                 0.8137
 IR Inten    --     35.3577                 7.5509                 1.9579

                     22                     23                     24
                      A                      A                      A
 Frequencies --    876.9832               883.3981               922.0093
 Red. masses --      2.2521                 1.5201                 1.7551
 Frc consts  --      1.0205                 0.6989                 0.8791
 IR Inten    --      4.7217                 3.3149                18.2312

                     25                     26                     27
                      A                      A                      A
 Frequencies --    984.9757               989.3902              1012.1350
 Red. masses --      1.3496                 1.4526                 1.3742
 Frc consts  --      0.7714                 0.8378                 0.8295
 IR Inten    --      0.8146                14.4254                20.1584

                     28                     29                     30
                      A                      A                      A
 Frequencies --   1025.1113              1055.7380              1096.0079
 Red. masses --      1.2590                 2.2658                 2.5408
 Frc consts  --      0.7795                 1.4879                 1.7982
 IR Inten    --     14.4970                 7.3368                58.7876

                     31                     32                     33
                      A                      A                      A
 Frequencies --   1117.7847              1127.2775              1144.8806
 Red. masses --      2.9578                 1.8410                 2.0031
 Frc consts  --      2.1774                 1.3784                 1.5469
 IR Inten    --     72.6508                11.0846                72.9379

                     34                     35                     36
                      A                      A                      A
 Frequencies --   1197.4631              1264.2653              1271.4617
 Red. masses --      1.4833                 1.2808                 1.4930
 Frc consts  --      1.2531                 1.2061                 1.4220
 IR Inten    --      2.7477                 2.4615                24.0228

                     37                     38                     39
                      A                      A                      A
 Frequencies --   1302.5920              1324.2218              1345.4266
 Red. masses --      1.3162                 4.1574                 1.2614
 Frc consts  --      1.3158                 4.2954                 1.3453
 IR Inten    --     12.4119               134.8450                 1.6225

                     40                     41                     42
                      A                      A                      A
 Frequencies --   1360.1351              1370.3699              1381.2272
 Red. masses --      1.2876                 1.2182                 1.4134
 Frc consts  --      1.4034                 1.3478                 1.5887
 IR Inten    --     19.4363                13.9037                 3.2885

                     43                     44                     45
                      A                      A                      A
 Frequencies --   1400.8467              1444.5603              1476.6957
 Red. masses --      1.3467                 1.2651                 1.0924
 Frc consts  --      1.5570                 1.5554                 1.4036
 IR Inten    --      6.4234                 6.5245                 2.1554

                     46                     47                     48
                      A                      A                      A
 Frequencies --   1485.1507              1488.4316              1512.4835
 Red. masses --      1.0737                 1.0510                 1.0977
 Frc consts  --      1.3953                 1.3719                 1.4795
 IR Inten    --     13.4833                 6.7859                 4.6913

                     49                     50                     51
                      A                      A                      A
 Frequencies --   1519.6644              1532.2881              1538.5836
 Red. masses --      1.0705                 1.0496                 1.0600
 Frc consts  --      1.4565                 1.4520                 1.4784
 IR Inten    --      1.3130                 4.0493                 3.6197

                     52                     53                     54
                      A                      A                      A
 Frequencies --   1747.0645              3026.5810              3039.5984
 Red. masses --      5.8694                 1.0656                 1.0606
 Frc consts  --     10.5551                 5.7513                 5.7733
 IR Inten    --      2.6027                26.7521                21.8988

                     55                     56                     57
                      A                      A                      A
 Frequencies --   3046.2572              3074.5802              3075.4297
 Red. masses --      1.0367                 1.1000                 1.0601
 Frc consts  --      5.6681                 6.1268                 5.9077
 IR Inten    --     25.6944                25.7317                 3.9181

                     58                     59                     60
                      A                      A                      A
 Frequencies --   3083.6637              3088.1337              3111.2392
 Red. masses --      1.0984                 1.0295                 1.1026
 Frc consts  --      6.1539                 5.7848                 6.2882
 IR Inten    --     21.0568                 0.7286                62.4524

                     61                     62                     63
                      A                      A                      A
 Frequencies --   3118.3315              3135.2290              3144.0375
 Red. masses --      1.1014                 1.1055                 1.0894
 Frc consts  --      6.3104                 6.4023                 6.3449
 IR Inten    --     39.0094                 1.0879                22.6317

                     64                     65                     66
                      A                      A                      A
 Frequencies --   3183.0166              3187.1617              3197.2693
 Red. masses --      1.0894                 1.1064                 1.1071
 Frc consts  --      6.5028                 6.6219                 6.6680
 IR Inten    --      7.9929                 1.5221                 1.0948

 - Thermochemistry -
 -------------------
 Temperature   298.150 Kelvin.  Pressure   1.00000 Atm.
 Atom     1 has atomic number  6 and mass  12.00000

 Molecular mass:   162.07145 amu.
 Principal axes and moments of inertia in atomic units:
                           1         2         3
     Eigenvalues --   815.259033572.476953820.40042
           X            0.99996  -0.00867  -0.00329
           Y            0.00864   0.99992  -0.00873
           Z            0.00336   0.00871   0.99996
 This molecule is an asymmetric top.
 Rotational symmetry number  1.
 Warning -- assumption of classical behavior for rotation
           may cause significant error
 Rotational temperatures (Kelvin)      0.10624     0.02424     0.02267
 Rotational constants (GHZ):           2.21370     0.50518     0.47240
 Zero-point vibrational energy     539433.3 (Joules/Mol)
                                  128.92765 (Kcal/Mol)
 Warning -- explicit consideration of  17 degrees of freedom as
           vibrations may cause significant error
 Vibrational temperatures:     31.04    62.68   107.55   146.25   173.76
          (Kelvin)            269.77   303.24   349.74   380.04   419.70
                              445.96   446.89   508.13   631.24   667.13
                              705.43   783.52   942.41  1062.03  1102.61
                             1218.67  1261.78  1271.01  1326.57  1417.16
                             1423.51  1456.24  1474.91  1518.97  1576.91
                             1608.24  1621.90  1647.23  1722.88  1819.00
                             1829.35  1874.14  1905.26  1935.77  1956.93
                             1971.66  1987.28  2015.51  2078.40  2124.64
                             2136.80  2141.52  2176.13  2186.46  2204.62
                             2213.68  2513.64  4354.57  4373.30  4382.88
                             4423.64  4424.86  4436.70  4443.14  4476.38
                             4486.58  4510.90  4523.57  4579.65  4585.61
                             4600.16

 Zero-point correction=                           0.205459 (Hartree/Particle)
 Thermal correction to Energy=                    0.217854
 Thermal correction to Enthalpy=                  0.218799
 Thermal correction to Gibbs Free Energy=         0.165386
 Sum of electronic and zero-point Energies=           -823.575089
 Sum of electronic and thermal Energies=              -823.562694
 Sum of electronic and thermal Enthalpies=            -823.561750
 Sum of electronic and thermal Free Energies=         -823.615163

                     E (Thermal)             CV                S
                      KCal/Mol        Cal/Mol-Kelvin    Cal/Mol-Kelvin
 Total                  136.706             44.064            112.417
 Electronic               0.000              0.000              0.000
 Translational            0.889              2.981             41.157
 Rotational               0.889              2.981             30.788
 Vibrational            134.928             38.102             40.473
 Vibration     1          0.593              1.985              6.484
 Vibration     2          0.595              1.980              5.090
 Vibration     3          0.599              1.966              4.024
 Vibration     4          0.604              1.948              3.422
 Vibration     5          0.609              1.932              3.088
 Vibration     6          0.632              1.857              2.252
 Vibration     7          0.643              1.824              2.037
 Vibration     8          0.659              1.774              1.780
 Vibration     9          0.671              1.739              1.634
 Vibration    10          0.687              1.689              1.464
 Vibration    11          0.699              1.655              1.363
 Vibration    12          0.699              1.654              1.359
 Vibration    13          0.729              1.569              1.152
 Vibration    14          0.799              1.386              0.831
 Vibration    15          0.821              1.331              0.755
 Vibration    16          0.846              1.272              0.683
 Vibration    17          0.900              1.152              0.556

 Optimization completed.
    -- Stationary point found.
 Normal termination of Gaussian 16 at Mon Dec  7 21:35:26 2020.

 ----------------------------------------------------------------------
 # B3LYP/6-311++G(d,p) empiricaldispersion=gd3bj scf=xqc pop=npa geom=c
 heck
 ----------------------------------------------------------------------

 ------------------------------------
 CID_129668047_JID_1_Energie_neutraal
 ------------------------------------
 Structure from the checkpoint file:  "JID_1.chk"
 Charge =  0 Multiplicity = 1

 SCF Done:  E(RB3LYP) =  -823.934503535     A.U. after   14 cycles
 Normal termination of Gaussian 16 at Mon Dec  7 21:36:56 2020.

 ----------------------------------------------------------------------
 # B3LYP/6-311++G(d,p) empiricaldispersion=gd3bj scf=xqc pop=npa geom=c
 heck
 ----------------------------------------------------------------------

 ----------------------------------
 CID_129668047_JID_1_Energie_kation
 ----------------------------------
 Structure from the checkpoint file:  "JID_1.chk"
 Charge =  1 Multiplicity = 2

 SCF Done:  E(UB3LYP) =  -823.596558773     A.U. after   20 cycles
 Normal termination of Gaussian 16 at Mon Dec  7 21:39:40 2020.
 Gaussian 16:  ES64L-G16RevA.03 25-Dec-2016

 ----------------------------------------------------------------------
 # B3LYP/6-311++G(d,p) empiricaldispersion=gd3bj scf=xqc pop=npa geom=c
 heck
 ----------------------------------------------------------------------

 ---------------------------------
 CID_129668047_JID_1_Energie_anion
 ---------------------------------
 Structure from the checkpoint file:  "JID_1.chk"
 Charge = -1 Multiplicity = 2

                         Standard orientation:
 ---------------------------------------------------------------------
 Center     Atomic      Atomic             Coordinates (Angstroms)
 Number     Number       Type             X           Y           Z
 ---------------------------------------------------------------------
      1          6           0       -3.641393    1.308087   -0.423807
      2          6           0       -3.343877    0.296275    0.686086
      3          6           0       -2.773614   -1.044835    0.177021
      4          6           0       -1.466810   -0.892802   -0.546922
      5          6           0       -0.282862   -1.289738   -0.070242
      6          6           0        1.012200   -1.068963   -0.779072
      7         16           0        2.075447    0.142405    0.092133
      8          8           0        2.154898   -0.263545    1.504537
      9          8           0        3.296316    0.321095   -0.708994
     10          6           0        1.118937    1.673522    0.011551
     11          1           0       -2.729625    1.611019   -0.951082
     12          1           0       -4.101837    2.214396   -0.016271
     13          1           0       -4.330980    0.888446   -1.166624
     14          1           0       -2.634758    0.730285    1.403222
     15          1           0       -4.264793    0.088589    1.245563
     16          1           0       -2.642320   -1.724904    1.026994
     17          1           0       -3.511767   -1.508648   -0.493355
     18          1           0       -1.500734   -0.403797   -1.521668
     19          1           0       -0.217839   -1.772521    0.902906
     20          1           0        1.643839   -1.964079   -0.809712
     21          1           0        0.885288   -0.696112   -1.799753
     22          1           0        1.017378    1.980993   -1.031022
     23          1           0        0.144378    1.511920    0.473667
     24          1           0        1.691429    2.416266    0.570965
 ---------------------------------------------------------------------

 SCF Done:  E(UB3LYP) =  -823.926125862     A.U. after   31 cycles

 The electronic state is 2-A.
 Alpha  occ. eigenvalues --  -88.93986 -19.01268 -19.01210 -10.11407 -10.10224
 Alpha  occ. eigenvalues --  -10.07474 -10.07349 -10.06858 -10.06194 -10.04724
 Alpha  occ. eigenvalues --   -8.00553  -5.96804  -5.96687  -5.96648  -1.00469
 Alpha  occ. eigenvalues --   -0.90204  -0.72776  -0.69245  -0.66342  -0.62602
 Alpha  occ. eigenvalues --   -0.56882  -0.50689  -0.48344  -0.45408  -0.40495
 Alpha  occ. eigenvalues --   -0.39161  -0.37955  -0.36310  -0.35869  -0.33941
 Alpha  occ. eigenvalues --   -0.32828  -0.32091  -0.31747  -0.29973  -0.28070
 Alpha  occ. eigenvalues --   -0.27128  -0.24055  -0.23578  -0.23209  -0.22459
 Alpha  occ. eigenvalues --   -0.22029  -0.20505  -0.20054  -0.15467   0.04396
 Alpha virt. eigenvalues --    0.07083   0.07902   0.08142   0.08795   0.09618
 Alpha virt. eigenvalues --    0.10001   0.10409   0.11329   0.11834   0.12319
 Alpha virt. eigenvalues --    0.12554   0.13604   0.14152   0.14820   0.15503

  Beta  occ. eigenvalues --  -88.93965 -19.01253 -19.01202 -10.11383 -10.10159
  Beta  occ. eigenvalues --  -10.07405 -10.07266 -10.06851 -10.06161 -10.04661
  Beta  occ. eigenvalues --   -8.00527  -5.96787  -5.96660  -5.96625  -1.00424
  Beta  occ. eigenvalues --   -0.90167  -0.72640  -0.69155  -0.66240  -0.62492
  Beta  occ. eigenvalues --   -0.56777  -0.50546  -0.48231  -0.45268  -0.40438
  Beta  occ. eigenvalues --   -0.39109  -0.37895  -0.36244  -0.35809  -0.33863
  Beta  occ. eigenvalues --   -0.32771  -0.32019  -0.31670  -0.29905  -0.27995
  Beta  occ. eigenvalues --   -0.27036  -0.23966  -0.23526  -0.23138  -0.22408
  Beta  occ. eigenvalues --   -0.22001  -0.20464  -0.19956  -0.15125
  Beta virt. eigenvalues --    0.07010   0.07839   0.08390   0.08724   0.09551
  Beta virt. eigenvalues --    0.10049   0.10530   0.10911   0.11711   0.12171
  Beta virt. eigenvalues --    0.12743   0.12924   0.13790   0.14364   0.14972

 Mulliken charges and spin densities:
               1          2
     1  C    1.853130  -2.437109
     2  C   -1.018594   0.865147
     3  C    0.676179  -1.056787
     4  C    0.336164  -0.144772
     5  C   -0.513991   0.525620
     6  C   -0.215759  -0.642602
     7  S    0.251218   0.209149
     8  O   -0.248435   0.015055
     9  O   -0.222194   0.013185
    10  C    0.081190  -0.753150
    11  H   -0.411823   0.549908
    12  H   -0.532057   0.667781
    13  H   -0.316203   0.455290
    14  H   -0.045121   0.172398
    15  H   -0.392277   0.546911
    16  H   -0.035965   0.181065
    17  H   -0.288331   0.434392
    18  H   -0.095910   0.248276
    19  H    0.004730   0.178099
    20  H    0.118495   0.088337
    21  H    0.090056   0.156624
    22  H   -0.265395   0.469025
    23  H    0.310912  -0.085846
    24  H   -0.120020   0.344002
 Sum of Mulliken charges =  -1.00000   1.00000

 Dipole moment (field-independent basis, Debye):
    X=              4.6580    Y=             -3.5349    Z=              0.0054  Tot=              5.8474
 Quadrupole moment (field-independent basis, Debye-Ang):
   XX=           -157.1236   YY=           -104.5814   ZZ=            -98.9171
   XY=              5.6159   XZ=             -2.8475   YZ=              4.1065

 Summary of Natural Population Analysis:

                                       Natural Population
                Natural  -----------------------------------------------
    Atom  No    Charge         Core      Valence    Rydberg      Total
 -----------------------------------------------------------------------
      C    1   -0.28775      0.99967     2.28274    0.00534     3.28775
      C    2   -0.18430      0.99964     2.17625    0.00842     3.18430
      C    3   -0.20624      0.99961     2.19677    0.00986     3.20624
      C    4   -0.05817      0.99951     2.04827    0.01039     3.05817
      C    5   -0.11235      0.99950     2.10264    0.01021     3.11235
      C    6   -0.29550      0.99957     2.28235    0.01358     3.29550
      S    7    1.01938      4.99932     1.88774    0.09356     6.98062
      O    8   -0.47259      0.99991     3.46709    0.00559     4.47259
      O    9   -0.47345      0.99991     3.46773    0.00581     4.47345
      C   10   -0.39314      0.99961     2.38562    0.00791     3.39314
      H   11    0.09816      0.00000     0.39944    0.00239     0.40184
      H   12    0.10120      0.00000     0.39714    0.00166     0.39880
      H   13    0.09616      0.00000     0.40179    0.00205     0.40384
      H   14    0.09285      0.00000     0.40565    0.00150     0.40715
      H   15    0.09703      0.00000     0.40124    0.00173     0.40297
      H   16    0.09840      0.00000     0.40040    0.00119     0.40160
      H   17    0.10160      0.00000     0.39679    0.00160     0.39840
      H   18    0.09156      0.00000     0.40699    0.00145     0.40844
      H   19    0.10021      0.00000     0.39853    0.00126     0.39979
      H   20    0.11603      0.00000     0.38288    0.00109     0.38397
      H   21    0.11391      0.00000     0.38490    0.00118     0.38609
      H   22    0.11636      0.00000     0.38207    0.00157     0.38364
      H   23    0.12199      0.00000     0.37647    0.00153     0.37801
      H   24    0.11864      0.00000     0.38016    0.00120     0.38136
 =======================================================================
   * Total *   -0.00000     13.99625    29.81166    0.19209    44.00000

 Normal termination of Gaussian 16 at Mon Dec  7 21:43:53 2020.
