 Gaussian 16, Revision A.03,

 -----------------------------------------------------------
 # opt freq B3LYP/6-31G(d) empiricaldispersion=gd3bj scf=xqc
 -----------------------------------------------------------

 -----------------------------
 CID_84107064_JID_198_neutraal
 -----------------------------
 Symbolic Z-matrix:
 Charge =  0 Multiplicity = 1

 SCF Done:  E(RB3LYP) =  -475.964017813     A.U. after   14 cycles
 SCF Done:  E(RB3LYP) =  -475.968547350     A.U. after   12 cycles
 SCF Done:  E(RB3LYP) =  -475.969111145     A.U. after   12 cycles
 SCF Done:  E(RB3LYP) =  -475.969483002     A.U. after   11 cycles
 SCF Done:  E(RB3LYP) =  -475.969709451     A.U. after   11 cycles
 SCF Done:  E(RB3LYP) =  -475.969840513     A.U. after   11 cycles
 SCF Done:  E(RB3LYP) =  -475.969908270     A.U. after   10 cycles
 SCF Done:  E(RB3LYP) =  -475.969937742     A.U. after   10 cycles
 SCF Done:  E(RB3LYP) =  -475.969950979     A.U. after   10 cycles
 SCF Done:  E(RB3LYP) =  -475.969956422     A.U. after    9 cycles
 SCF Done:  E(RB3LYP) =  -475.969958748     A.U. after    8 cycles
 SCF Done:  E(RB3LYP) =  -475.969961603     A.U. after    9 cycles
 SCF Done:  E(RB3LYP) =  -475.969962063     A.U. after    8 cycles
 SCF Done:  E(RB3LYP) =  -475.969962129     A.U. after    7 cycles
 Optimization completed.
    -- Stationary point found.
 Normal termination of Gaussian 16 at Tue Dec  8 10:21:43 2020.

 --------------------------------------------------------------------
 #N Geom=AllCheck Guess=TCheck SCRF=Check GenChk RB3LYP/6-31G(d) Freq
 --------------------------------------------------------------------

 Structure from the checkpoint file:  "JID_198.chk"
 -----------------------------
 CID_84107064_JID_198_neutraal
 -----------------------------
 Charge =  0 Multiplicity = 1

 SCF Done:  E(RB3LYP) =  -475.969962129     A.U. after    1 cycles

  Exact polarizability:  95.267   4.851  81.993   3.333   2.741  70.321
 Approx polarizability: 127.930  12.302 118.683   7.932   7.611 102.700

                      1                      2                      3
                      A                      A                      A
 Frequencies --     78.9959                91.4435                98.0068
 Red. masses --      5.1640                 3.1282                 2.4832
 Frc consts  --      0.0190                 0.0154                 0.0141
 IR Inten    --      0.4334                 4.1506                 1.7939

                      4                      5                      6
                      A                      A                      A
 Frequencies --    153.3075               221.0601               239.9409
 Red. masses --      3.0144                 1.4561                 1.8369
 Frc consts  --      0.0417                 0.0419                 0.0623
 IR Inten    --      3.8151                50.6266                28.1717

                      7                      8                      9
                      A                      A                      A
 Frequencies --    284.8607               343.6586               389.3713
 Red. masses --      1.0937                 3.3059                 2.5314
 Frc consts  --      0.0523                 0.2300                 0.2261
 IR Inten    --      0.1905                 1.4525                 4.3671

                     10                     11                     12
                      A                      A                      A
 Frequencies --    420.8579               427.8163               466.2650
 Red. masses --      2.0613                 3.7146                 4.3972
 Frc consts  --      0.2151                 0.4006                 0.5632
 IR Inten    --      2.7386                28.2666                 2.2137

                     13                     14                     15
                      A                      A                      A
 Frequencies --    503.8717               537.1186               591.9236
 Red. masses --      2.8001                 3.5519                 2.9046
 Frc consts  --      0.4189                 0.6037                 0.5996
 IR Inten    --      0.1240                 7.2265                11.3439

                     16                     17                     18
                      A                      A                      A
 Frequencies --    699.1159               723.0274               828.2273
 Red. masses --      1.3370                 3.1084                 3.1551
 Frc consts  --      0.3850                 0.9574                 1.2752
 IR Inten    --    106.9640                10.4853                11.3729

                     19                     20                     21
                      A                      A                      A
 Frequencies --    834.5765               888.8795               904.8643
 Red. masses --      2.4153                 1.7906                 2.0317
 Frc consts  --      0.9912                 0.8336                 0.9801
 IR Inten    --     22.5809               101.3668                22.1480

                     22                     23                     24
                      A                      A                      A
 Frequencies --    953.4484               974.6702              1031.6148
 Red. masses --      2.1933                 2.0655                 2.1154
 Frc consts  --      1.1747                 1.1561                 1.3264
 IR Inten    --      1.5093                 6.7974                18.5038

                     25                     26                     27
                      A                      A                      A
 Frequencies --   1075.3508              1076.0053              1108.1717
 Red. masses --      2.1648                 2.4924                 1.6852
 Frc consts  --      1.4749                 1.7002                 1.2193
 IR Inten    --     15.0678                27.6117                 1.4588

                     28                     29                     30
                      A                      A                      A
 Frequencies --   1115.1478              1170.4076              1183.3425
 Red. masses --      2.4795                 1.3671                 1.8005
 Frc consts  --      1.8167                 1.1034                 1.4855
 IR Inten    --     14.6816                 5.9804                18.9122

                     31                     32                     33
                      A                      A                      A
 Frequencies --   1213.2392              1240.5207              1310.8984
 Red. masses --      1.3235                 1.6620                 1.6381
 Frc consts  --      1.1478                 1.5069                 1.6585
 IR Inten    --     11.8218                12.6628                19.6410

                     34                     35                     36
                      A                      A                      A
 Frequencies --   1322.9448              1343.5228              1353.2511
 Red. masses --      1.7828                 1.5916                 1.3715
 Frc consts  --      1.8384                 1.6926                 1.4798
 IR Inten    --      5.2529                64.6739                20.1876

                     37                     38                     39
                      A                      A                      A
 Frequencies --   1375.2560              1388.9911              1407.1367
 Red. masses --      1.5198                 1.4645                 1.3587
 Frc consts  --      1.6935                 1.6647                 1.5851
 IR Inten    --     40.7345                 7.7302                18.7355

                     40                     41                     42
                      A                      A                      A
 Frequencies --   1427.6557              1442.1867              1477.4881
 Red. masses --      1.3954                 1.3899                 1.1709
 Frc consts  --      1.6758                 1.7032                 1.5060
 IR Inten    --     11.1204                 8.5601                12.9762

                     43                     44                     45
                      A                      A                      A
 Frequencies --   1488.3771              1496.8759              1511.6598
 Red. masses --      1.3287                 1.6050                 1.0873
 Frc consts  --      1.7342                 2.1188                 1.4639
 IR Inten    --     32.5267                24.1296                10.0859

                     46                     47                     48
                      A                      A                      A
 Frequencies --   1514.9775              1524.0385              1550.6600
 Red. masses --      1.0767                 1.0823                 1.0532
 Frc consts  --      1.4560                 1.4811                 1.4920
 IR Inten    --      7.6039                 5.7463                 5.7051

                     49                     50                     51
                      A                      A                      A
 Frequencies --   1699.3547              1797.3584              2975.6923
 Red. masses --      1.0912                 8.6993                 1.0568
 Frc consts  --      1.8566                16.5579                 5.5135
 IR Inten    --     31.7101               395.9560                66.6662

                     52                     53                     54
                      A                      A                      A
 Frequencies --   3013.6842              3026.8689              3036.0941
 Red. masses --      1.0778                 1.0695                 1.0696
 Frc consts  --      5.7677                 5.7734                 5.8088
 IR Inten    --      8.9981                71.8491                21.1559

                     55                     56                     57
                      A                      A                      A
 Frequencies --   3049.4081              3077.2382              3086.1714
 Red. masses --      1.0634                 1.0766                 1.0992
 Frc consts  --      5.8259                 6.0068                 6.1682
 IR Inten    --     46.9564                43.3136                45.4074

                     58                     59                     60
                      A                      A                      A
 Frequencies --   3093.7828              3121.0286              3128.4864
 Red. masses --      1.1039                 1.1031                 1.0948
 Frc consts  --      6.2250                 6.3306                 6.3135
 IR Inten    --     30.3460                21.0113                19.6510

                     61                     62                     63
                      A                      A                      A
 Frequencies --   3487.2808              3569.6800              3584.2190
 Red. masses --      1.0506                 1.0923                 1.0755
 Frc consts  --      7.5275                 8.2007                 8.1408
 IR Inten    --      0.2535                 0.3831                23.7748

 - Thermochemistry -
 -------------------
 Temperature   298.150 Kelvin.  Pressure   1.00000 Atm.
 Atom     1 has atomic number  6 and mass  12.00000

 Molecular mass:   143.10586 amu.
 Principal axes and moments of inertia in atomic units:
                           1         2         3
     Eigenvalues --  1053.050601545.771052121.59877
           X            0.99918  -0.04022  -0.00502
           Y            0.04012   0.99901  -0.01942
           Z            0.00580   0.01920   0.99980
 This molecule is an asymmetric top.
 Rotational symmetry number  1.
 Warning -- assumption of classical behavior for rotation
           may cause significant error
 Rotational temperatures (Kelvin)      0.08225     0.05603     0.04082
 Rotational constants (GHZ):           1.71382     1.16753     0.85065
 Zero-point vibrational energy     535636.2 (Joules/Mol)
                                  128.02012 (Kcal/Mol)
 Warning -- explicit consideration of  15 degrees of freedom as
           vibrations may cause significant error
 Vibrational temperatures:    113.66   131.57   141.01   220.58   318.06
          (Kelvin)            345.22   409.85   494.45   560.22   605.52
                              615.53   670.85   724.96   772.79   851.65
                             1005.87  1040.28  1191.63  1200.77  1278.90
                             1301.90  1371.80  1402.33  1484.26  1547.19
                             1548.13  1594.41  1604.45  1683.96  1702.57
                             1745.58  1784.83  1886.09  1903.42  1933.03
                             1947.03  1978.69  1998.45  2024.56  2054.08
                             2074.99  2125.78  2141.44  2153.67  2174.94
                             2179.71  2192.75  2231.05  2444.99  2586.00
                             4281.36  4336.02  4354.99  4368.26  4387.42
                             4427.46  4440.31  4451.26  4490.46  4501.19
                             5017.42  5135.97  5156.89

 Zero-point correction=                           0.204013 (Hartree/Particle)
 Thermal correction to Energy=                    0.214177
 Thermal correction to Enthalpy=                  0.215121
 Thermal correction to Gibbs Free Energy=         0.168582
 Sum of electronic and zero-point Energies=           -475.765949
 Sum of electronic and thermal Energies=              -475.755785
 Sum of electronic and thermal Enthalpies=            -475.754841
 Sum of electronic and thermal Free Energies=         -475.801381

                     E (Thermal)             CV                S
                      KCal/Mol        Cal/Mol-Kelvin    Cal/Mol-Kelvin
 Total                  134.398             38.308             97.950
 Electronic               0.000              0.000              0.000
 Translational            0.889              2.981             40.786
 Rotational               0.889              2.981             29.625
 Vibrational            132.621             32.346             27.539
 Vibration     1          0.600              1.963              3.916
 Vibration     2          0.602              1.955              3.629
 Vibration     3          0.603              1.951              3.494
 Vibration     4          0.619              1.899              2.631
 Vibration     5          0.648              1.809              1.950
 Vibration     6          0.657              1.779              1.803
 Vibration     7          0.683              1.702              1.504
 Vibration     8          0.722              1.588              1.195
 Vibration     9          0.757              1.493              1.003
 Vibration    10          0.783              1.425              0.889
 Vibration    11          0.789              1.410              0.866
 Vibration    12          0.824              1.325              0.748
 Vibration    13          0.859              1.241              0.649
 Vibration    14          0.892              1.168              0.572
 Vibration    15          0.949              1.049              0.464

 Optimization completed.
    -- Stationary point found.
 Normal termination of Gaussian 16 at Tue Dec  8 10:26:22 2020.

 ----------------------------------------------------------------------
 # B3LYP/6-311++G(d,p) empiricaldispersion=gd3bj scf=xqc pop=npa geom=c
 heck
 ----------------------------------------------------------------------

 -------------------------------------
 CID_84107064_JID_198_Energie_neutraal
 -------------------------------------
 Structure from the checkpoint file:  "JID_198.chk"
 Charge =  0 Multiplicity = 1

 SCF Done:  E(RB3LYP) =  -476.119644162     A.U. after   13 cycles
 Normal termination of Gaussian 16 at Tue Dec  8 10:28:09 2020.

 ----------------------------------------------------------------------
 # B3LYP/6-311++G(d,p) empiricaldispersion=gd3bj scf=xqc pop=npa geom=c
 heck
 ----------------------------------------------------------------------

 -----------------------------------
 CID_84107064_JID_198_Energie_kation
 -----------------------------------
 Structure from the checkpoint file:  "JID_198.chk"
 Charge =  1 Multiplicity = 2

 SCF Done:  E(UB3LYP) =  -475.826154725     A.U. after   23 cycles
 Normal termination of Gaussian 16 at Tue Dec  8 10:33:39 2020.
 Gaussian 16:  ES64L-G16RevA.03 25-Dec-2016

 ----------------------------------------------------------------------
 # B3LYP/6-311++G(d,p) empiricaldispersion=gd3bj scf=xqc pop=npa geom=c
 heck
 ----------------------------------------------------------------------

 ----------------------------------
 CID_84107064_JID_198_Energie_anion
 ----------------------------------
 Structure from the checkpoint file:  "JID_198.chk"
 Charge = -1 Multiplicity = 2

                         Standard orientation:
 ---------------------------------------------------------------------
 Center     Atomic      Atomic             Coordinates (Angstroms)
 Number     Number       Type             X           Y           Z
 ---------------------------------------------------------------------
      1          6           0        0.890557   -1.700542    1.228655
      2          7           0        1.194740   -1.314262   -0.143622
      3          6           0        0.054354   -1.254712   -1.049615
      4          6           0       -0.932052   -0.090112   -0.801689
      5          7           0       -0.217131    1.071356   -0.273077
      6          6           0        1.118418    1.199546   -0.011431
      7          8           0        1.618850    2.259209    0.343651
      8          6           0        1.948014   -0.069006   -0.220443
      9          6           0       -2.103219   -0.462385    0.124000
     10          7           0       -2.903404    0.731649    0.422312
     11          1           0        0.349044   -0.935794    1.811901
     12          1           0        1.828300   -1.915465    1.752845
     13          1           0        0.289631   -2.615768    1.221961
     14          1           0        0.458283   -1.163091   -2.065365
     15          1           0       -0.489410   -2.205296   -1.003745
     16          1           0       -1.379493    0.200600   -1.762671
     17          1           0       -0.749226    1.931039   -0.200612
     18          1           0        2.753075   -0.065192    0.518840
     19          1           0        2.419536    0.006156   -1.210777
     20          1           0       -2.736183   -1.178573   -0.412859
     21          1           0       -1.726269   -0.972952    1.022414
     22          1           0       -3.843819    0.464554    0.702382
     23          1           0       -2.500134    1.218183    1.220327
 ---------------------------------------------------------------------

 SCF Done:  E(UB3LYP) =  -476.109021662     A.U. after   30 cycles

 The electronic state is 2-A.
 Alpha  occ. eigenvalues --  -18.98475 -14.23251 -14.21265 -14.18759 -10.16847
 Alpha  occ. eigenvalues --  -10.10857 -10.10421 -10.09975 -10.08766 -10.08503
 Alpha  occ. eigenvalues --   -0.93573  -0.84948  -0.80976  -0.77163  -0.66680
 Alpha  occ. eigenvalues --   -0.62711  -0.58860  -0.52518  -0.51623  -0.45827
 Alpha  occ. eigenvalues --   -0.41383  -0.39649  -0.38628  -0.37301  -0.35557
 Alpha  occ. eigenvalues --   -0.34783  -0.32878  -0.31862  -0.30382  -0.29878
 Alpha  occ. eigenvalues --   -0.28009  -0.27139  -0.26395  -0.25436  -0.24657
 Alpha  occ. eigenvalues --   -0.17277  -0.15992  -0.13805  -0.11357   0.04518
 Alpha virt. eigenvalues --    0.07124   0.07761   0.08338   0.09773   0.10016
 Alpha virt. eigenvalues --    0.10997   0.11200   0.11371   0.12422   0.13604
 Alpha virt. eigenvalues --    0.14096   0.14134   0.15344   0.15536   0.15967

  Beta  occ. eigenvalues --  -18.98469 -14.23238 -14.21265 -14.18702 -10.16843
  Beta  occ. eigenvalues --  -10.10846 -10.10408 -10.09954 -10.08728 -10.08459
  Beta  occ. eigenvalues --   -0.93560  -0.84930  -0.80951  -0.77076  -0.66633
  Beta  occ. eigenvalues --   -0.62670  -0.58785  -0.52474  -0.51523  -0.45775
  Beta  occ. eigenvalues --   -0.41343  -0.39611  -0.38592  -0.37228  -0.35507
  Beta  occ. eigenvalues --   -0.34741  -0.32815  -0.31831  -0.30336  -0.29833
  Beta  occ. eigenvalues --   -0.27956  -0.27097  -0.26366  -0.25384  -0.24617
  Beta  occ. eigenvalues --   -0.17264  -0.15953  -0.13752  -0.11344
  Beta virt. eigenvalues --    0.07047   0.08140   0.08470   0.09226   0.10285
  Beta virt. eigenvalues --    0.10691   0.11509   0.11601   0.11849   0.12862
  Beta virt. eigenvalues --    0.14132   0.14447   0.14643   0.15560   0.16081

 Mulliken charges and spin densities:
               1          2
     1  C    0.677108  -1.066951
     2  N   -0.070653   0.178375
     3  C    0.768253  -1.423750
     4  C   -2.009956   2.513446
     5  N   -0.173347  -0.122105
     6  C    0.198239  -0.084885
     7  O   -0.357562  -0.003474
     8  C   -0.134460  -0.267081
     9  C    3.146400  -3.897961
    10  N   -0.641140   0.243496
    11  H   -0.113021   0.264646
    12  H   -0.149240   0.274411
    13  H   -0.313947   0.490061
    14  H   -0.224604   0.409099
    15  H   -0.216323   0.403522
    16  H   -0.243139   0.443367
    17  H    0.203312   0.111941
    18  H    0.128852   0.061465
    19  H    0.014042   0.155845
    20  H   -0.672045   0.855705
    21  H   -0.422857   0.576921
    22  H   -0.349477   0.614997
    23  H   -0.044435   0.268910
 Sum of Mulliken charges =  -1.00000   1.00000

 Dipole moment (field-independent basis, Debye):
    X=              5.5808    Y=              1.3004    Z=             -1.6487  Tot=              5.9627
 Quadrupole moment (field-independent basis, Debye-Ang):
   XX=           -121.7113   YY=           -106.9532   ZZ=            -93.0981
   XY=             -8.6593   XZ=              1.6308   YZ=             -0.8649

 Summary of Natural Population Analysis:

                                       Natural Population
                Natural  -----------------------------------------------
    Atom  No    Charge         Core      Valence    Rydberg      Total
 -----------------------------------------------------------------------
      C    1   -0.17990      0.99963     2.17088    0.00938     3.17990
      N    2   -0.27859      0.99975     2.76384    0.01500     3.77859
      C    3   -0.08745      0.99959     2.07486    0.01301     3.08745
      C    4   -0.01868      0.99958     2.00552    0.01358     3.01868
      N    5   -0.32253      0.99966     2.81265    0.01022     3.82253
      C    6    0.33665      0.99967     1.64182    0.02186     2.66335
      O    7   -0.33083      0.99988     3.32460    0.00635     4.33083
      C    8   -0.12588      0.99958     2.11566    0.01065     3.12588
      C    9   -0.09170      0.99960     2.08005    0.01204     3.09170
      N   10   -0.43024      0.99977     2.91955    0.01091     3.93024
      H   11    0.08426      0.00000     0.41385    0.00189     0.41574
      H   12    0.09356      0.00000     0.40535    0.00108     0.40644
      H   13    0.09995      0.00000     0.39859    0.00146     0.40005
      H   14    0.09672      0.00000     0.40192    0.00136     0.40328
      H   15    0.10478      0.00000     0.39351    0.00171     0.39522
      H   16    0.09584      0.00000     0.40258    0.00158     0.40416
      H   17    0.19985      0.00000     0.29746    0.00269     0.30015
      H   18    0.10755      0.00000     0.39132    0.00113     0.39245
      H   19    0.10432      0.00000     0.39455    0.00113     0.39568
      H   20    0.09716      0.00000     0.39847    0.00437     0.40284
      H   21    0.08547      0.00000     0.41088    0.00365     0.41453
      H   22    0.18485      0.00000     0.30996    0.00519     0.31515
      H   23    0.17484      0.00000     0.32247    0.00269     0.32516
 =======================================================================
   * Total *    0.00000      9.99670    28.85036    0.15294    39.00000

 Normal termination of Gaussian 16 at Tue Dec  8 10:42:33 2020.
