 Gaussian 16, Revision A.03,

 -----------------------------------------------------------
 # opt freq B3LYP/6-31G(d) empiricaldispersion=gd3bj scf=xqc
 -----------------------------------------------------------

 -------------------------------
 CID_115096443_JID_2293_neutraal
 -------------------------------
 Symbolic Z-matrix:
 Charge =  0 Multiplicity = 1

 SCF Done:  E(RB3LYP) =  -857.923498413     A.U. after   14 cycles
 SCF Done:  E(RB3LYP) =  -857.927495208     A.U. after   12 cycles
 SCF Done:  E(RB3LYP) =  -857.928007249     A.U. after   11 cycles
 SCF Done:  E(RB3LYP) =  -857.928243148     A.U. after   11 cycles
 SCF Done:  E(RB3LYP) =  -857.928366283     A.U. after   11 cycles
 SCF Done:  E(RB3LYP) =  -857.928500989     A.U. after   12 cycles
 SCF Done:  E(RB3LYP) =  -857.928644029     A.U. after   12 cycles
 SCF Done:  E(RB3LYP) =  -857.928686422     A.U. after   11 cycles
 SCF Done:  E(RB3LYP) =  -857.928762078     A.U. after   11 cycles
 SCF Done:  E(RB3LYP) =  -857.928770807     A.U. after   10 cycles
 SCF Done:  E(RB3LYP) =  -857.928774695     A.U. after   10 cycles
 SCF Done:  E(RB3LYP) =  -857.928776391     A.U. after    9 cycles
 SCF Done:  E(RB3LYP) =  -857.928776862     A.U. after    8 cycles
 SCF Done:  E(RB3LYP) =  -857.928776935     A.U. after    8 cycles
 SCF Done:  E(RB3LYP) =  -857.928776989     A.U. after    7 cycles
 Optimization completed.
    -- Stationary point found.
 Normal termination of Gaussian 16 at Wed Dec  9 16:57:57 2020.

 --------------------------------------------------------------------
 #N Geom=AllCheck Guess=TCheck SCRF=Check GenChk RB3LYP/6-31G(d) Freq
 --------------------------------------------------------------------

 Structure from the checkpoint file:  "JID_2293.chk"
 -------------------------------
 CID_115096443_JID_2293_neutraal
 -------------------------------
 Charge =  0 Multiplicity = 1

 SCF Done:  E(RB3LYP) =  -857.928776989     A.U. after    1 cycles

  Exact polarizability: 169.762   1.319 136.272  -2.470  -1.393  62.634
 Approx polarizability: 245.033   5.648 232.709  -7.772  -3.830  99.832

                      1                      2                      3
                      A                      A                      A
 Frequencies --     34.1134               106.1783               194.5789
 Red. masses --      4.5511                 4.0595                 2.9723
 Frc consts  --      0.0031                 0.0270                 0.0663
 IR Inten    --      1.4446                 1.5444                 0.8150

                      4                      5                      6
                      A                      A                      A
 Frequencies --    222.5626               248.2463               251.0679
 Red. masses --      3.8182                 1.1429                 3.0210
 Frc consts  --      0.1114                 0.0415                 0.1122
 IR Inten    --      0.7279                 0.1708                 5.0695

                      7                      8                      9
                      A                      A                      A
 Frequencies --    279.5759               292.7904               328.5837
 Red. masses --      2.2474                 2.9523                 1.3754
 Frc consts  --      0.1035                 0.1491                 0.0875
 IR Inten    --     12.7362                 4.8767                24.0961

                     10                     11                     12
                      A                      A                      A
 Frequencies --    357.0680               399.1873               432.9741
 Red. masses --      4.4689                 3.1942                 5.4698
 Frc consts  --      0.3357                 0.2999                 0.6041
 IR Inten    --      6.0543                 2.1334                 1.0693

                     13                     14                     15
                      A                      A                      A
 Frequencies --    459.0564               509.9262               537.4960
 Red. masses --      3.4602                 3.9075                 3.2776
 Frc consts  --      0.4296                 0.5986                 0.5579
 IR Inten    --      6.8795                 6.4443                39.2024

                     16                     17                     18
                      A                      A                      A
 Frequencies --    546.9578               604.1856               612.6027
 Red. masses --      2.5488                 3.3170                 3.3278
 Frc consts  --      0.4493                 0.7134                 0.7358
 IR Inten    --     24.7071                59.6745                10.2786

                     19                     20                     21
                      A                      A                      A
 Frequencies --    645.2463               675.1117               707.5520
 Red. masses --      3.4518                 1.7105                 2.2512
 Frc consts  --      0.8467                 0.4593                 0.6640
 IR Inten    --     21.5577               215.3431                 6.7822

                     22                     23                     24
                      A                      A                      A
 Frequencies --    726.7247               771.8980               797.2201
 Red. masses --      2.3234                 2.5439                 3.3493
 Frc consts  --      0.7230                 0.8930                 1.2542
 IR Inten    --     42.4153                60.8482                34.2737

                     25                     26                     27
                      A                      A                      A
 Frequencies --    824.4886               910.7027               930.1898
 Red. masses --      1.4695                 1.8838                 1.2236
 Frc consts  --      0.5886                 0.9205                 0.6238
 IR Inten    --      7.3126                11.3062                 0.0549

                     28                     29                     30
                      A                      A                      A
 Frequencies --    958.5041              1025.6280              1065.2956
 Red. masses --      1.5768                 2.2537                 3.0953
 Frc consts  --      0.8535                 1.3968                 2.0696
 IR Inten    --      1.1451                 9.0416                 7.4622

                     31                     32                     33
                      A                      A                      A
 Frequencies --   1090.6044              1099.6401              1114.3441
 Red. masses --      2.5072                 2.5622                 2.1044
 Frc consts  --      1.7570                 1.8255                 1.5396
 IR Inten    --     23.1162                 7.6028                 2.3137

                     34                     35                     36
                      A                      A                      A
 Frequencies --   1136.9197              1162.2510              1177.1047
 Red. masses --      1.8442                 1.8151                 1.5025
 Frc consts  --      1.4045                 1.4446                 1.2265
 IR Inten    --      3.7478                 0.7859                22.7987

                     37                     38                     39
                      A                      A                      A
 Frequencies --   1212.0870              1252.4116              1299.2429
 Red. masses --      1.3517                 1.2587                 1.6223
 Frc consts  --      1.1700                 1.1632                 1.6134
 IR Inten    --      2.7019                 1.0637                23.5179

                     40                     41                     42
                      A                      A                      A
 Frequencies --   1329.1036              1336.8191              1347.2621
 Red. masses --      1.3049                 1.4246                 2.9087
 Frc consts  --      1.3581                 1.5000                 3.1106
 IR Inten    --     23.3376                14.9357                15.8021

                     43                     44                     45
                      A                      A                      A
 Frequencies --   1383.2063              1411.3741              1439.6604
 Red. masses --      2.8973                 1.6302                 1.2419
 Frc consts  --      3.2660                 1.9133                 1.5165
 IR Inten    --     29.0488                36.3214                 6.1731

                     46                     47                     48
                      A                      A                      A
 Frequencies --   1487.2056              1514.2064              1519.4248
 Red. masses --      2.0240                 1.3583                 1.1374
 Frc consts  --      2.6375                 1.8349                 1.5472
 IR Inten    --     14.6766                27.3598                18.0085

                     49                     50                     51
                      A                      A                      A
 Frequencies --   1527.8133              1535.4492              1550.4123
 Red. masses --      1.0432                 1.7684                 1.8850
 Frc consts  --      1.4347                 2.4564                 2.6697
 IR Inten    --      6.0894                35.2180                61.7417

                     52                     53                     54
                      A                      A                      A
 Frequencies --   1645.1675              1651.9917              1697.4887
 Red. masses --      4.3957                 5.5512                 1.2036
 Frc consts  --      7.0097                 8.9259                 2.0434
 IR Inten    --     11.4405                77.2678               117.0607

                     55                     56                     57
                      A                      A                      A
 Frequencies --   2985.1478              3050.2941              3079.8881
 Red. masses --      1.0698                 1.0364                 1.0898
 Frc consts  --      5.6168                 5.6812                 6.0909
 IR Inten    --     59.6523                29.2916                21.6179

                     58                     59                     60
                      A                      A                      A
 Frequencies --   3093.8565              3118.0054              3133.0795
 Red. masses --      1.0894                 1.1005                 1.1027
 Frc consts  --      6.1441                 6.3036                 6.3775
 IR Inten    --     16.3616                26.7453                24.4697

                     61                     62                     63
                      A                      A                      A
 Frequencies --   3172.9652              3180.0971              3203.4129
 Red. masses --      1.0862                 1.0897                 1.0961
 Frc consts  --      6.4431                 6.4926                 6.6272
 IR Inten    --      2.9985                27.0622                29.0968

                     64                     65                     66
                      A                      A                      A
 Frequencies --   3524.8825              3575.6443              3628.4775
 Red. masses --      1.0495                 1.0756                 1.0960
 Frc consts  --      7.6828                 8.1023                 8.5019
 IR Inten    --      8.3529                 5.6996                 9.8269

 - Thermochemistry -
 -------------------
 Temperature   298.150 Kelvin.  Pressure   1.00000 Atm.
 Atom     1 has atomic number  6 and mass  12.00000

 Molecular mass:   180.07212 amu.
 Principal axes and moments of inertia in atomic units:
                           1         2         3
     Eigenvalues --  1223.767022642.310193765.57622
           X            0.99995   0.00995   0.00295
           Y           -0.00994   0.99994  -0.00521
           Z           -0.00300   0.00518   0.99998
 This molecule is an asymmetric top.
 Rotational symmetry number  1.
 Warning -- assumption of classical behavior for rotation
           may cause significant error
 Rotational temperatures (Kelvin)      0.07078     0.03278     0.02300
 Rotational constants (GHZ):           1.47474     0.68302     0.47927
 Zero-point vibrational energy     527090.5 (Joules/Mol)
                                  125.97766 (Kcal/Mol)
 Warning -- explicit consideration of  18 degrees of freedom as
           vibrations may cause significant error
 Vibrational temperatures:     49.08   152.77   279.96   320.22   357.17
          (Kelvin)            361.23   402.25   421.26   472.76   513.74
                              574.34   622.95   660.48   733.67   773.34
                              786.95   869.29   881.40   928.37   971.34
                             1018.01  1045.59  1110.59  1147.02  1186.26
                             1310.30  1338.34  1379.07  1475.65  1532.72
                             1569.14  1582.14  1603.29  1635.77  1672.22
                             1693.59  1743.92  1801.94  1869.32  1912.28
                             1923.38  1938.41  1990.13  2030.65  2071.35
                             2139.76  2178.61  2186.11  2198.18  2209.17
                             2230.70  2367.03  2376.85  2442.31  4294.96
                             4388.69  4431.27  4451.37  4486.11  4507.80
                             4565.19  4575.45  4609.00  5071.52  5144.55
                             5220.57

 Zero-point correction=                           0.200758 (Hartree/Particle)
 Thermal correction to Energy=                    0.211802
 Thermal correction to Enthalpy=                  0.212746
 Thermal correction to Gibbs Free Energy=         0.164030
 Sum of electronic and zero-point Energies=           -857.728019
 Sum of electronic and thermal Energies=              -857.716975
 Sum of electronic and thermal Enthalpies=            -857.716031
 Sum of electronic and thermal Free Energies=         -857.764747

                     E (Thermal)             CV                S
                      KCal/Mol        Cal/Mol-Kelvin    Cal/Mol-Kelvin
 Total                  132.908             44.130            102.533
 Electronic               0.000              0.000              0.000
 Translational            0.889              2.981             41.471
 Rotational               0.889              2.981             30.877
 Vibrational            131.130             38.168             30.184
 Vibration     1          0.594              1.983              5.575
 Vibration     2          0.605              1.944              3.338
 Vibration     3          0.635              1.847              2.184
 Vibration     4          0.648              1.807              1.938
 Vibration     5          0.662              1.766              1.743
 Vibration     6          0.663              1.761              1.723
 Vibration     7          0.680              1.711              1.536
 Vibration     8          0.688              1.687              1.458
 Vibration     9          0.712              1.618              1.267
 Vibration    10          0.732              1.561              1.135
 Vibration    11          0.765              1.472              0.966
 Vibration    12          0.794              1.398              0.849
 Vibration    13          0.817              1.341              0.769
 Vibration    14          0.865              1.228              0.634
 Vibration    15          0.893              1.167              0.571
 Vibration    16          0.902              1.146              0.551
 Vibration    17          0.963              1.023              0.443
 Vibration    18          0.972              1.005              0.428

 Optimization completed.
    -- Stationary point found.
 Normal termination of Gaussian 16 at Wed Dec  9 17:03:39 2020.

 ----------------------------------------------------------------------
 # B3LYP/6-311++G(d,p) empiricaldispersion=gd3bj scf=xqc pop=npa geom=c
 heck
 ----------------------------------------------------------------------

 ---------------------------------------
 CID_115096443_JID_2293_Energie_neutraal
 ---------------------------------------
 Structure from the checkpoint file:  "JID_2293.chk"
 Charge =  0 Multiplicity = 1

 SCF Done:  E(RB3LYP) =  -858.087084901     A.U. after   16 cycles
 Normal termination of Gaussian 16 at Wed Dec  9 17:06:36 2020.

 ----------------------------------------------------------------------
 # B3LYP/6-311++G(d,p) empiricaldispersion=gd3bj scf=xqc pop=npa geom=c
 heck
 ----------------------------------------------------------------------

 -------------------------------------
 CID_115096443_JID_2293_Energie_kation
 -------------------------------------
 Structure from the checkpoint file:  "JID_2293.chk"
 Charge =  1 Multiplicity = 2

 SCF Done:  E(UB3LYP) =  -857.827287655     A.U. after   26 cycles
 Normal termination of Gaussian 16 at Wed Dec  9 17:13:31 2020.
 Gaussian 16:  ES64L-G16RevA.03 25-Dec-2016

 ----------------------------------------------------------------------
 # B3LYP/6-311++G(d,p) empiricaldispersion=gd3bj scf=xqc pop=npa geom=c
 heck
 ----------------------------------------------------------------------

 ------------------------------------
 CID_115096443_JID_2293_Energie_anion
 ------------------------------------
 Structure from the checkpoint file:  "JID_2293.chk"
 Charge = -1 Multiplicity = 2

                         Standard orientation:
 ---------------------------------------------------------------------
 Center     Atomic      Atomic             Coordinates (Angstroms)
 Number     Number       Type             X           Y           Z
 ---------------------------------------------------------------------
      1          6           0        3.595900   -0.506223    0.283384
      2          6           0        2.318209    0.077743   -0.313507
      3          6           0        1.858166    1.337697    0.410499
      4          7           0        0.664283    1.882288   -0.219204
      5          6           0       -0.522742    1.144914   -0.108704
      6          6           0       -1.754885    1.814078   -0.049841
      7          6           0       -2.938887    1.092831    0.046641
      8          6           0       -2.916501   -0.296685    0.116866
      9          6           0       -1.697009   -0.984587    0.058936
     10          6           0       -0.493717   -0.260495   -0.082455
     11         16           0        1.006731   -1.219755   -0.255354
     12          7           0       -1.669328   -2.383952    0.075393
     13          1           0        4.421632    0.206898    0.172010
     14          1           0        3.882676   -1.433509   -0.223025
     15          1           0        3.464844   -0.726877    1.347848
     16          1           0        2.473085    0.329887   -1.366462
     17          1           0        1.708524    1.108987    1.479207
     18          1           0        2.651049    2.090444    0.334854
     19          1           0        0.520963    2.862234   -0.008236
     20          1           0       -1.767891    2.900917   -0.080124
     21          1           0       -3.888132    1.619165    0.089276
     22          1           0       -3.839835   -0.861791    0.214934
     23          1           0       -0.863098   -2.784776    0.543687
     24          1           0       -2.527392   -2.799471    0.417464
 ---------------------------------------------------------------------

 SCF Done:  E(UB3LYP) =  -858.073124839     A.U. after   31 cycles

 The electronic state is 2-A.
 Alpha  occ. eigenvalues --  -88.74631 -14.21732 -14.21639 -10.11282 -10.11036
 Alpha  occ. eigenvalues --  -10.11029 -10.10364 -10.09360 -10.07387 -10.06900
 Alpha  occ. eigenvalues --  -10.05896 -10.05872  -7.83278  -5.79658  -5.79280
 Alpha  occ. eigenvalues --   -5.78677  -0.84081  -0.81910  -0.73104  -0.71916
 Alpha  occ. eigenvalues --   -0.66464  -0.62715  -0.59371  -0.56739  -0.51878
 Alpha  occ. eigenvalues --   -0.50364  -0.45842  -0.43060  -0.41520  -0.38982
 Alpha  occ. eigenvalues --   -0.38004  -0.36123  -0.34875  -0.33243  -0.32202
 Alpha  occ. eigenvalues --   -0.31394  -0.29479  -0.28662  -0.28300  -0.27166
 Alpha  occ. eigenvalues --   -0.26712  -0.24141  -0.22558  -0.20921  -0.19038
 Alpha  occ. eigenvalues --   -0.16290  -0.10035  -0.09368   0.04448
 Alpha virt. eigenvalues --    0.06041   0.06907   0.08083   0.08843   0.09160
 Alpha virt. eigenvalues --    0.09921   0.10272   0.10461   0.10820   0.11553
 Alpha virt. eigenvalues --    0.12428   0.12763   0.13528   0.14056   0.14807

  Beta  occ. eigenvalues --  -88.74626 -14.21707 -14.21603 -10.11283 -10.11034
  Beta  occ. eigenvalues --  -10.11020 -10.10325 -10.09351 -10.07358 -10.06892
  Beta  occ. eigenvalues --  -10.05885 -10.05855  -7.83272  -5.79653  -5.79276
  Beta  occ. eigenvalues --   -5.78672  -0.84038  -0.81862  -0.73069  -0.71882
  Beta  occ. eigenvalues --   -0.66432  -0.62676  -0.59326  -0.56679  -0.51830
  Beta  occ. eigenvalues --   -0.50322  -0.45794  -0.43002  -0.41477  -0.38930
  Beta  occ. eigenvalues --   -0.37944  -0.36075  -0.34833  -0.33198  -0.32169
  Beta  occ. eigenvalues --   -0.31353  -0.29443  -0.28618  -0.28268  -0.27133
  Beta  occ. eigenvalues --   -0.26676  -0.24108  -0.22528  -0.20892  -0.19003
  Beta  occ. eigenvalues --   -0.16263  -0.10005  -0.09344
  Beta virt. eigenvalues --    0.06840   0.07267   0.07772   0.08681   0.09375
  Beta virt. eigenvalues --    0.09579   0.10125   0.10404   0.10869   0.11335
  Beta virt. eigenvalues --    0.11976   0.12628   0.13102   0.13905   0.14400

 Mulliken charges and spin densities:
               1          2
     1  C    0.514617  -1.122563
     2  C   -0.379687   0.817178
     3  C    0.930292  -1.670251
     4  N   -0.185282   0.213928
     5  C   -0.151205   0.545002
     6  C   -0.576952   0.051804
     7  C    1.212450  -1.476857
     8  C   -0.927813   0.533196
     9  C   -1.220413   0.143300
    10  C    2.114304  -0.652001
    11  S    0.161124  -0.834901
    12  N   -0.213843  -0.038326
    13  H   -0.333567   0.483442
    14  H   -0.020291   0.163538
    15  H   -0.059218   0.198294
    16  H    0.073302   0.179817
    17  H    0.015580   0.174316
    18  H   -0.757505   0.942825
    19  H   -0.253247   0.522229
    20  H   -0.417753   0.544399
    21  H    0.106107   0.040543
    22  H   -0.440430   0.565005
    23  H   -0.029936   0.263866
    24  H   -0.160633   0.412217
 Sum of Mulliken charges =  -1.00000   1.00000

 Dipole moment (field-independent basis, Debye):
    X=             -1.4587    Y=             -2.5113    Z=             -0.3377  Tot=              2.9238
 Quadrupole moment (field-independent basis, Debye-Ang):
   XX=           -141.9595   YY=           -133.7037   ZZ=           -105.4224
   XY=            -18.3390   XZ=             -0.6202   YZ=             -0.5079

 Summary of Natural Population Analysis:

                                       Natural Population
                Natural  -----------------------------------------------
    Atom  No    Charge         Core      Valence    Rydberg      Total
 -----------------------------------------------------------------------
      C    1   -0.29023      0.99963     2.28373    0.00687     3.29023
      C    2   -0.16177      0.99957     2.14921    0.01299     3.16177
      C    3   -0.09112      0.99957     2.07814    0.01340     3.09112
      N    4   -0.31499      0.99968     2.80273    0.01258     3.81499
      C    5    0.08413      0.99943     1.90425    0.01219     2.91587
      C    6   -0.13594      0.99952     2.12648    0.00993     3.13594
      C    7   -0.09254      0.99957     2.08366    0.00930     3.09254
      C    8   -0.13976      0.99952     2.13032    0.00993     3.13976
      C    9    0.08026      0.99945     1.90818    0.01211     2.91974
      C   10   -0.12002      0.99933     2.11107    0.00963     3.12002
      S   11    0.11415      4.99955     2.86876    0.01755     7.88585
      N   12   -0.39822      0.99971     2.88804    0.01047     3.89822
      H   13    0.10642      0.00000     0.39198    0.00160     0.39358
      H   14    0.10137      0.00000     0.39771    0.00092     0.39863
      H   15    0.10212      0.00000     0.39672    0.00116     0.39788
      H   16    0.10240      0.00000     0.39592    0.00167     0.39760
      H   17    0.08657      0.00000     0.41161    0.00182     0.41343
      H   18    0.10803      0.00000     0.38635    0.00562     0.39197
      H   19    0.18862      0.00000     0.30614    0.00524     0.31138
      H   20    0.10015      0.00000     0.39867    0.00117     0.39985
      H   21    0.09765      0.00000     0.40155    0.00080     0.40235
      H   22    0.09882      0.00000     0.40002    0.00116     0.40118
      H   23    0.18791      0.00000     0.31014    0.00195     0.31209
      H   24    0.18598      0.00000     0.31080    0.00322     0.31402
 =======================================================================
   * Total *   -0.00000     15.99454    31.84218    0.16328    48.00000

 Normal termination of Gaussian 16 at Wed Dec  9 17:21:26 2020.
