 Gaussian 16, Revision A.03,

 -----------------------------------------------------------
 # opt freq B3LYP/6-31G(d) empiricaldispersion=gd3bj scf=xqc
 -----------------------------------------------------------

 ------------------------------
 CID_83845874_JID_2592_neutraal
 ------------------------------
 Symbolic Z-matrix:
 Charge =  0 Multiplicity = 1

 SCF Done:  E(RB3LYP) =  -536.133502756     A.U. after   15 cycles
 SCF Done:  E(RB3LYP) =  -536.138929165     A.U. after   12 cycles
 SCF Done:  E(RB3LYP) =  -536.140008959     A.U. after   11 cycles
 SCF Done:  E(RB3LYP) =  -536.140473364     A.U. after   12 cycles
 SCF Done:  E(RB3LYP) =  -536.140737689     A.U. after   11 cycles
 SCF Done:  E(RB3LYP) =  -536.140854458     A.U. after   10 cycles
 SCF Done:  E(RB3LYP) =  -536.140924706     A.U. after   11 cycles
 SCF Done:  E(RB3LYP) =  -536.140940904     A.U. after    9 cycles
 SCF Done:  E(RB3LYP) =  -536.140955649     A.U. after   10 cycles
 SCF Done:  E(RB3LYP) =  -536.140959092     A.U. after   10 cycles
 SCF Done:  E(RB3LYP) =  -536.140959625     A.U. after    8 cycles
 SCF Done:  E(RB3LYP) =  -536.140959717     A.U. after    7 cycles
 Optimization completed.
    -- Stationary point found.
 Normal termination of Gaussian 16 at Wed Dec  9 17:42:52 2020.

 --------------------------------------------------------------------
 #N Geom=AllCheck Guess=TCheck SCRF=Check GenChk RB3LYP/6-31G(d) Freq
 --------------------------------------------------------------------

 Structure from the checkpoint file:  "JID_2592.chk"
 ------------------------------
 CID_83845874_JID_2592_neutraal
 ------------------------------
 Charge =  0 Multiplicity = 1

 SCF Done:  E(RB3LYP) =  -536.140959717     A.U. after    1 cycles

  Exact polarizability: 117.450   2.825 124.612   4.675  -0.443  75.203
 Approx polarizability: 152.942   0.675 204.773  11.282  -0.880 115.878

                      1                      2                      3
                      A                      A                      A
 Frequencies --     63.0173                92.4483               142.3045
 Red. masses --      2.6739                 3.2160                 2.6072
 Frc consts  --      0.0063                 0.0162                 0.0311
 IR Inten    --      0.2205                 3.1191                 2.5623

                      4                      5                      6
                      A                      A                      A
 Frequencies --    175.3872               196.9244               243.7983
 Red. masses --      2.3941                 1.5698                 2.0631
 Frc consts  --      0.0434                 0.0359                 0.0722
 IR Inten    --      2.9843                 1.2559                 3.2429

                      7                      8                      9
                      A                      A                      A
 Frequencies --    249.6581               301.9414               317.9910
 Red. masses --      2.1775                 3.5341                 2.6442
 Frc consts  --      0.0800                 0.1898                 0.1575
 IR Inten    --      0.8872                 1.7408                 2.8237

                     10                     11                     12
                      A                      A                      A
 Frequencies --    359.4861               398.5033               413.2450
 Red. masses --      3.0546                 3.0454                 3.2989
 Frc consts  --      0.2326                 0.2849                 0.3319
 IR Inten    --      4.5280                10.3687                13.0965

                     13                     14                     15
                      A                      A                      A
 Frequencies --    507.0231               535.8086               582.0036
 Red. masses --      2.1367                 2.5266                 2.5071
 Frc consts  --      0.3236                 0.4274                 0.5004
 IR Inten    --      5.9248                41.9664                74.9670

                     16                     17                     18
                      A                      A                      A
 Frequencies --    618.5409               649.9964               681.3441
 Red. masses --      4.1742                 3.5476                 3.7058
 Frc consts  --      0.9409                 0.8831                 1.0136
 IR Inten    --     16.8389                12.3800                 2.9826

                     19                     20                     21
                      A                      A                      A
 Frequencies --    722.2756               757.5178               777.1893
 Red. masses --      2.6120                 3.0775                 2.1643
 Frc consts  --      0.8028                 1.0405                 0.7702
 IR Inten    --     55.6706                22.9685                10.4595

                     22                     23                     24
                      A                      A                      A
 Frequencies --    814.9384               847.5513               913.3932
 Red. masses --      2.2451                 1.9369                 2.5239
 Frc consts  --      0.8785                 0.8198                 1.2406
 IR Inten    --      2.1205                 1.8707                 0.5342

                     25                     26                     27
                      A                      A                      A
 Frequencies --    955.3079               979.2035              1014.5005
 Red. masses --      2.4867                 2.3227                 2.1376
 Frc consts  --      1.3371                 1.3122                 1.2962
 IR Inten    --      3.4294                 2.5694                 4.9081

                     28                     29                     30
                      A                      A                      A
 Frequencies --   1038.7402              1064.2948              1099.8987
 Red. masses --      2.1160                 2.3537                 1.8826
 Frc consts  --      1.3452                 1.5708                 1.3419
 IR Inten    --      3.4695                 2.1743                 2.6663

                     31                     32                     33
                      A                      A                      A
 Frequencies --   1110.0575              1136.6206              1150.2065
 Red. masses --      2.3516                 2.1348                 1.8883
 Frc consts  --      1.7072                 1.6249                 1.4719
 IR Inten    --      0.6207                32.3999                 2.8454

                     34                     35                     36
                      A                      A                      A
 Frequencies --   1178.0401              1194.6960              1214.0219
 Red. masses --      2.2749                 1.2969                 1.7637
 Frc consts  --      1.8601                 1.0906                 1.5315
 IR Inten    --     34.3883                10.8481                27.1769

                     37                     38                     39
                      A                      A                      A
 Frequencies --   1251.2091              1262.1620              1284.0206
 Red. masses --      1.7483                 1.4208                 1.3439
 Frc consts  --      1.6126                 1.3336                 1.3054
 IR Inten    --     19.6319                 2.0262                 2.9494

                     40                     41                     42
                      A                      A                      A
 Frequencies --   1300.8056              1318.5459              1358.7403
 Red. masses --      2.0288                 1.2054                 1.5050
 Frc consts  --      2.0226                 1.2347                 1.6370
 IR Inten    --     14.9943                 2.3600                19.8631

                     43                     44                     45
                      A                      A                      A
 Frequencies --   1371.2312              1387.6211              1403.6447
 Red. masses --      1.5368                 1.3276                 1.5284
 Frc consts  --      1.7025                 1.5061                 1.7742
 IR Inten    --      3.9940                 3.0609                 8.2126

                     46                     47                     48
                      A                      A                      A
 Frequencies --   1409.6115              1419.0580              1456.0710
 Red. masses --      1.4272                 1.6143                 2.2217
 Frc consts  --      1.6709                 1.9153                 2.7753
 IR Inten    --      0.7758                 7.0047                45.3064

                     49                     50                     51
                      A                      A                      A
 Frequencies --   1480.9327              1510.7025              1514.0609
 Red. masses --      1.3003                 1.0948                 1.0869
 Frc consts  --      1.6802                 1.4721                 1.4680
 IR Inten    --      2.5327                 1.0400                 1.9899

                     52                     53                     54
                      A                      A                      A
 Frequencies --   1518.7457              1521.1753              1533.7201
 Red. masses --      1.0582                 1.0962                 1.0930
 Frc consts  --      1.4380                 1.4945                 1.5148
 IR Inten    --     23.6852                 2.1855                 4.7260

                     55                     56                     57
                      A                      A                      A
 Frequencies --   1536.7543              1542.2593              1690.1916
 Red. masses --      1.0916                 1.0971                 8.4117
 Frc consts  --      1.5189                 1.5375                14.1582
 IR Inten    --      7.0234                 7.3121                57.7103

                     58                     59                     60
                      A                      A                      A
 Frequencies --   1804.8744              3028.6027              3038.8787
 Red. masses --     11.0732                 1.0613                 1.0453
 Frc consts  --     21.2528                 5.7356                 5.6876
 IR Inten    --    468.7763                25.3399                60.2154

                     61                     62                     63
                      A                      A                      A
 Frequencies --   3039.4669              3041.8367              3049.7979
 Red. masses --      1.0740                 1.0609                 1.0651
 Frc consts  --      5.8458                 5.7836                 5.8368
 IR Inten    --     10.7040                21.7117                30.8826

                     64                     65                     66
                      A                      A                      A
 Frequencies --   3055.4235              3064.0956              3076.3697
 Red. masses --      1.0916                 1.0695                 1.0996
 Frc consts  --      6.0044                 5.9163                 6.1316
 IR Inten    --     31.5919                12.9185                14.4305

                     67                     68                     69
                      A                      A                      A
 Frequencies --   3085.8751              3093.8869              3115.2642
 Red. masses --      1.0974                 1.1014                 1.0983
 Frc consts  --      6.1569                 6.2117                 6.2798
 IR Inten    --     69.8260                68.7203                17.1366

                     70                     71                     72
                      A                      A                      A
 Frequencies --   3127.8303              3167.7887              3570.4994
 Red. masses --      1.0935                 1.1008                 1.0778
 Frc consts  --      6.3032                 6.5083                 8.0952
 IR Inten    --     32.7741                18.8004                22.2798

 - Thermochemistry -
 -------------------
 Temperature   298.150 Kelvin.  Pressure   1.00000 Atm.
 Atom     1 has atomic number  6 and mass  12.00000

 Molecular mass:   166.11061 amu.
 Principal axes and moments of inertia in atomic units:
                           1         2         3
     Eigenvalues --  1368.948562062.953253141.61244
           X            0.99737   0.07235  -0.00396
           Y           -0.07236   0.99738   0.00002
           Z            0.00395   0.00026   0.99999
 This molecule is an asymmetric top.
 Rotational symmetry number  1.
 Warning -- assumption of classical behavior for rotation
           may cause significant error
 Rotational temperatures (Kelvin)      0.06327     0.04199     0.02757
 Rotational constants (GHZ):           1.31834     0.87483     0.57446
 Zero-point vibrational energy     597711.9 (Joules/Mol)
                                  142.85658 (Kcal/Mol)
 Warning -- explicit consideration of  16 degrees of freedom as
           vibrations may cause significant error
 Vibrational temperatures:     90.67   133.01   204.74   252.34   283.33
          (Kelvin)            350.77   359.20   434.43   457.52   517.22
                              573.36   594.57   729.49   770.91   837.37
                              889.94   935.20   980.30  1039.19  1089.90
                             1118.20  1172.51  1219.44  1314.17  1374.47
                             1408.86  1459.64  1494.52  1531.28  1582.51
                             1597.13  1635.34  1654.89  1694.94  1718.90
                             1746.71  1800.21  1815.97  1847.42  1871.57
                             1897.09  1954.92  1972.90  1996.48  2019.53
                             2028.12  2041.71  2094.96  2130.73  2173.56
                             2178.40  2185.14  2188.63  2206.68  2211.05
                             2218.97  2431.81  2596.81  4357.48  4372.27
                             4373.12  4376.52  4387.98  4396.07  4408.55
                             4426.21  4439.89  4451.41  4482.17  4500.25
                             4557.74  5137.15

 Zero-point correction=                           0.227656 (Hartree/Particle)
 Thermal correction to Energy=                    0.238564
 Thermal correction to Enthalpy=                  0.239508
 Thermal correction to Gibbs Free Energy=         0.191254
 Sum of electronic and zero-point Energies=           -535.913303
 Sum of electronic and thermal Energies=              -535.902396
 Sum of electronic and thermal Enthalpies=            -535.901452
 Sum of electronic and thermal Free Energies=         -535.949706

                     E (Thermal)             CV                S
                      KCal/Mol        Cal/Mol-Kelvin    Cal/Mol-Kelvin
 Total                  149.701             42.633            101.558
 Electronic               0.000              0.000              0.000
 Translational            0.889              2.981             41.231
 Rotational               0.889              2.981             30.563
 Vibrational            147.924             36.672             29.765
 Vibration     1          0.597              1.972              4.360
 Vibration     2          0.602              1.955              3.608
 Vibration     3          0.616              1.911              2.773
 Vibration     4          0.627              1.873              2.377
 Vibration     5          0.636              1.844              2.162
 Vibration     6          0.659              1.773              1.775
 Vibration     7          0.662              1.763              1.733
 Vibration     8          0.694              1.670              1.406
 Vibration     9          0.704              1.639              1.320
 Vibration    10          0.734              1.556              1.124
 Vibration    11          0.765              1.473              0.968
 Vibration    12          0.777              1.441              0.915
 Vibration    13          0.862              1.234              0.641
 Vibration    14          0.891              1.171              0.574
 Vibration    15          0.939              1.070              0.482
 Vibration    16          0.978              0.993              0.419

 Optimization completed.
    -- Stationary point found.
 Normal termination of Gaussian 16 at Wed Dec  9 17:50:03 2020.

 ----------------------------------------------------------------------
 # B3LYP/6-311++G(d,p) empiricaldispersion=gd3bj scf=xqc pop=npa geom=c
 heck
 ----------------------------------------------------------------------

 --------------------------------------
 CID_83845874_JID_2592_Energie_neutraal
 --------------------------------------
 Structure from the checkpoint file:  "JID_2592.chk"
 Charge =  0 Multiplicity = 1

 SCF Done:  E(RB3LYP) =  -536.291666338     A.U. after   15 cycles
 Normal termination of Gaussian 16 at Wed Dec  9 17:53:36 2020.

 ----------------------------------------------------------------------
 # B3LYP/6-311++G(d,p) empiricaldispersion=gd3bj scf=xqc pop=npa geom=c
 heck
 ----------------------------------------------------------------------

 ------------------------------------
 CID_83845874_JID_2592_Energie_kation
 ------------------------------------
 Structure from the checkpoint file:  "JID_2592.chk"
 Charge =  1 Multiplicity = 2

 SCF Done:  E(UB3LYP) =  -536.003310999     A.U. after   22 cycles
 Normal termination of Gaussian 16 at Wed Dec  9 18:00:58 2020.
 Gaussian 16:  ES64L-G16RevA.03 25-Dec-2016

 ----------------------------------------------------------------------
 # B3LYP/6-311++G(d,p) empiricaldispersion=gd3bj scf=xqc pop=npa geom=c
 heck
 ----------------------------------------------------------------------

 -----------------------------------
 CID_83845874_JID_2592_Energie_anion
 -----------------------------------
 Structure from the checkpoint file:  "JID_2592.chk"
 Charge = -1 Multiplicity = 2

                         Standard orientation:
 ---------------------------------------------------------------------
 Center     Atomic      Atomic             Coordinates (Angstroms)
 Number     Number       Type             X           Y           Z
 ---------------------------------------------------------------------
      1          6           0       -2.192622   -2.082507    0.354396
      2          7           0       -1.494298   -0.967836   -0.290073
      3          6           0       -0.219275   -0.590567    0.153261
      4          6           0       -0.116754    0.761566    0.260980
      5          6           0        1.076398    1.622541    0.548579
      6          6           0        2.436990    0.902496    0.493814
      7          6           0        2.576980   -0.009022   -0.738977
      8          6           0        2.074655   -1.454274   -0.531999
      9          6           0        0.855114   -1.606679    0.406597
     10          6           0       -1.409385    1.332081   -0.109031
     11          8           0       -1.743759    2.495400   -0.290517
     12          7           0       -2.266852    0.220876   -0.270047
     13          1           0       -2.413107   -1.874177    1.409955
     14          1           0       -1.584931   -2.984888    0.273204
     15          1           0       -3.131218   -2.258867   -0.176949
     16          1           0        0.952095    2.118137    1.521670
     17          1           0        1.069729    2.437275   -0.188612
     18          1           0        2.602098    0.322482    1.411179
     19          1           0        3.221957    1.667202    0.480667
     20          1           0        2.030446    0.450438   -1.571705
     21          1           0        3.625611   -0.057495   -1.055161
     22          1           0        1.830517   -1.889325   -1.508412
     23          1           0        2.880944   -2.068460   -0.111516
     24          1           0        1.183725   -1.505049    1.447140
     25          1           0        0.465873   -2.623460    0.308031
     26          1           0       -2.948230    0.277896   -1.020228
 ---------------------------------------------------------------------

 SCF Done:  E(UB3LYP) =  -536.276412740     A.U. after   33 cycles
 SCF Done:  E(UB3LYP) =  -536.276612267     a.u. after    4 cycles

 The electronic state is 2-A.
 Alpha  occ. eigenvalues --  -18.97013 -14.26867 -14.25088 -10.14829 -10.10899
 Alpha  occ. eigenvalues --  -10.09599 -10.08450 -10.07504 -10.07189 -10.07058
 Alpha  occ. eigenvalues --  -10.06752 -10.05706  -0.94227  -0.89609  -0.74443
 Alpha  occ. eigenvalues --   -0.72375  -0.67897  -0.66695  -0.59456  -0.57341
 Alpha  occ. eigenvalues --   -0.53786  -0.49052  -0.46134  -0.45075  -0.40257
 Alpha  occ. eigenvalues --   -0.38682  -0.37404  -0.35873  -0.34258  -0.33879
 Alpha  occ. eigenvalues --   -0.33406  -0.30973  -0.30678  -0.29628  -0.29113
 Alpha  occ. eigenvalues --   -0.28329  -0.26500  -0.25472  -0.23708  -0.23079
 Alpha  occ. eigenvalues --   -0.22539  -0.21969  -0.16050  -0.14291  -0.10900
 Alpha  occ. eigenvalues --    0.04763
 Alpha virt. eigenvalues --    0.05771   0.07769   0.08415   0.08648   0.09461
 Alpha virt. eigenvalues --    0.09922   0.10242   0.11323   0.11548   0.12172
 Alpha virt. eigenvalues --    0.12433   0.13363   0.14727   0.15088   0.15366

  Beta  occ. eigenvalues --  -18.96958 -14.26862 -14.25077 -10.14782 -10.10795
  Beta  occ. eigenvalues --  -10.09505 -10.08458 -10.07472 -10.07191 -10.07047
  Beta  occ. eigenvalues --  -10.06734 -10.05675  -0.94161  -0.89526  -0.74355
  Beta  occ. eigenvalues --   -0.72307  -0.67807  -0.66638  -0.59400  -0.57219
  Beta  occ. eigenvalues --   -0.53717  -0.48967  -0.46091  -0.44993  -0.40158
  Beta  occ. eigenvalues --   -0.38608  -0.37328  -0.35803  -0.34196  -0.33805
  Beta  occ. eigenvalues --   -0.33354  -0.30915  -0.30621  -0.29537  -0.28934
  Beta  occ. eigenvalues --   -0.28254  -0.26462  -0.25424  -0.23598  -0.23034
  Beta  occ. eigenvalues --   -0.22480  -0.21851  -0.15819  -0.14212  -0.10630
  Beta virt. eigenvalues --    0.06787   0.07716   0.08204   0.08544   0.09272
  Beta virt. eigenvalues --    0.10228   0.10435   0.10724   0.11505   0.11631
  Beta virt. eigenvalues --    0.12687   0.13000   0.13774   0.14674   0.15092

 Mulliken charges and spin densities:
               1          2
     1  C    1.779837  -2.086733
     2  N    0.067052   0.157508
     3  C   -0.226520   0.076301
     4  C    0.240177   0.151864
     5  C   -0.822314  -0.078886
     6  C    0.058921  -0.218562
     7  C    0.501326  -0.696247
     8  C   -0.064055  -0.363939
     9  C   -0.093866  -0.227133
    10  C    0.222165  -0.017271
    11  O   -0.415449   0.018187
    12  N   -0.398720   0.146212
    13  H   -0.366353   0.544577
    14  H   -0.458687   0.581699
    15  H   -1.054779   1.206289
    16  H    0.187974  -0.018015
    17  H    0.149834   0.013612
    18  H    0.100892   0.020421
    19  H   -0.150579   0.328619
    20  H    0.211800  -0.090566
    21  H   -0.774267   0.963968
    22  H    0.164221  -0.007141
    23  H   -0.330370   0.482625
    24  H    0.161885   0.023461
    25  H    0.090130   0.023742
    26  H    0.219745   0.065410
 Sum of Mulliken charges =  -1.00000   1.00000

 Dipole moment (field-independent basis, Debye):
    X=              2.6697    Y=              2.1455    Z=              0.1002  Tot=              3.4264
 Quadrupole moment (field-independent basis, Debye-Ang):
   XX=           -156.8083   YY=           -124.6856   ZZ=            -92.6775
   XY=             -8.8110   XZ=              6.8885   YZ=              2.4406

 Summary of Natural Population Analysis:

                                       Natural Population
                Natural  -----------------------------------------------
    Atom  No    Charge         Core      Valence    Rydberg      Total
 -----------------------------------------------------------------------
      C    1   -0.17373      0.99963     2.16474    0.00936     3.17373
      N    2   -0.15105      0.99965     2.63876    0.01264     3.65105
      C    3    0.13629      0.99944     1.85253    0.01174     2.86371
      C    4   -0.09061      0.99935     2.08215    0.00911     3.09061
      C    5   -0.19529      0.99961     2.18680    0.00888     3.19529
      C    6   -0.18999      0.99963     2.18139    0.00897     3.18999
      C    7   -0.19550      0.99963     2.18658    0.00929     3.19550
      C    8   -0.17888      0.99963     2.17034    0.00892     3.17888
      C    9   -0.21229      0.99959     2.20470    0.00800     3.21229
      C   10    0.32104      0.99960     1.65579    0.02356     2.67896
      O   11   -0.32967      0.99988     3.32423    0.00556     4.32967
      N   12   -0.23071      0.99968     2.71926    0.01176     3.73071
      H   13    0.09347      0.00000     0.40389    0.00264     0.40653
      H   14    0.09728      0.00000     0.40123    0.00150     0.40272
      H   15    0.10404      0.00000     0.39070    0.00526     0.39596
      H   16    0.10142      0.00000     0.39755    0.00102     0.39858
      H   17    0.10486      0.00000     0.39400    0.00114     0.39514
      H   18    0.09278      0.00000     0.40630    0.00092     0.40722
      H   19    0.09941      0.00000     0.39976    0.00084     0.40059
      H   20    0.09513      0.00000     0.40383    0.00104     0.40487
      H   21    0.10301      0.00000     0.39509    0.00190     0.39699
      H   22    0.09583      0.00000     0.40337    0.00081     0.40417
      H   23    0.09814      0.00000     0.40038    0.00148     0.40186
      H   24    0.10635      0.00000     0.39274    0.00090     0.39365
      H   25    0.10645      0.00000     0.39266    0.00089     0.39355
      H   26    0.19224      0.00000     0.30572    0.00204     0.30776
 =======================================================================
   * Total *    0.00003     11.99531    32.85450    0.15016    44.99997

 Normal termination of Gaussian 16 at Wed Dec  9 18:39:32 2020.
