 Gaussian 16, Revision A.03,

 -----------------------------------------------------------
 # opt freq B3LYP/6-31G(d) empiricaldispersion=gd3bj scf=xqc
 -----------------------------------------------------------

 -------------------------------
 CID_78957652_JID_10273_neutraal
 -------------------------------
 Symbolic Z-matrix:
 Charge =  0 Multiplicity = 1

 SCF Done:  E(RB3LYP) =  -1262.88354245     A.U. after   15 cycles
 SCF Done:  E(RB3LYP) =  -1262.88914481     A.U. after   13 cycles
 SCF Done:  E(RB3LYP) =  -1262.88022639     A.U. after   15 cycles
 SCF Done:  E(RB3LYP) =  -1262.88826846     A.U. after   13 cycles
 SCF Done:  E(RB3LYP) =  -1262.89149801     A.U. after   11 cycles
 SCF Done:  E(RB3LYP) =  -1262.89241208     A.U. after   14 cycles
 SCF Done:  E(RB3LYP) =  -1262.89238244     A.U. after   13 cycles
 SCF Done:  E(RB3LYP) =  -1262.89302642     A.U. after   13 cycles
 SCF Done:  E(RB3LYP) =  -1262.89343385     A.U. after   12 cycles
 SCF Done:  E(RB3LYP) =  -1262.89376527     A.U. after   14 cycles
 SCF Done:  E(RB3LYP) =  -1262.89605516     A.U. after   10 cycles
 SCF Done:  E(RB3LYP) =  -1262.89605300     A.U. after    9 cycles
 SCF Done:  E(RB3LYP) =  -1262.89605609     A.U. after   10 cycles
 SCF Done:  E(RB3LYP) =  -1262.89605628     A.U. after    7 cycles
 SCF Done:  E(RB3LYP) =  -1262.89605639     A.U. after    7 cycles
 Optimization completed.
    -- Stationary point found.
 Normal termination of Gaussian 16 at Mon Dec 14 14:12:03 2020.

 --------------------------------------------------------------------
 #N Geom=AllCheck Guess=TCheck SCRF=Check GenChk RB3LYP/6-31G(d) Freq
 --------------------------------------------------------------------

 Structure from the checkpoint file:  "JID_10273.chk"
 -------------------------------
 CID_78957652_JID_10273_neutraal
 -------------------------------
 Charge =  0 Multiplicity = 1

 SCF Done:  E(RB3LYP) =  -1262.89605639     A.U. after    1 cycles

  Exact polarizability: 220.460 -25.612 179.756  18.664  11.197 160.077
 Approx polarizability: 298.858 -37.992 263.078  43.762  32.865 276.510

                      1                      2                      3
                      A                      A                      A
 Frequencies --     15.8984                19.1888                40.1815
 Red. masses --      4.2069                 4.7687                 3.7111
 Frc consts  --      0.0006                 0.0010                 0.0035
 IR Inten    --      0.1800                 0.2672                 0.9886

                      4                      5                      6
                      A                      A                      A
 Frequencies --     49.0175                59.8500                74.5551
 Red. masses --      4.5830                 4.2278                 5.5722
 Frc consts  --      0.0065                 0.0089                 0.0182
 IR Inten    --      2.5562                 1.6265                 1.2262

                      7                      8                      9
                      A                      A                      A
 Frequencies --     81.4205                88.5162               112.6401
 Red. masses --      5.0474                 4.4077                 4.0150
 Frc consts  --      0.0197                 0.0203                 0.0300
 IR Inten    --      1.5093                 2.6049                 0.6266

                     10                     11                     12
                      A                      A                      A
 Frequencies --    130.8107               140.2490               189.6466
 Red. masses --      3.7630                 5.8921                 2.5419
 Frc consts  --      0.0379                 0.0683                 0.0539
 IR Inten    --      5.8972                 2.3327                 1.5257

                     13                     14                     15
                      A                      A                      A
 Frequencies --    202.0968               232.5231               239.5337
 Red. masses --      1.6712                 1.1641                 3.1889
 Frc consts  --      0.0402                 0.0371                 0.1078
 IR Inten    --      0.3480                 0.5254                 0.8537

                     16                     17                     18
                      A                      A                      A
 Frequencies --    246.2860               262.0063               305.1491
 Red. masses --      2.5173                 2.5515                 2.1614
 Frc consts  --      0.0900                 0.1032                 0.1186
 IR Inten    --      0.7127                 0.0608                 1.2661

                     19                     20                     21
                      A                      A                      A
 Frequencies --    332.0027               344.0846               351.5755
 Red. masses --      6.0185                 5.1634                 3.5719
 Frc consts  --      0.3909                 0.3602                 0.2601
 IR Inten    --      0.4169                 1.1899                 0.6164

                     22                     23                     24
                      A                      A                      A
 Frequencies --    360.6263               383.6770               419.1465
 Red. masses --      2.2056                 2.5055                 3.7278
 Frc consts  --      0.1690                 0.2173                 0.3859
 IR Inten    --      1.2725                 3.3824                 1.7201

                     25                     26                     27
                      A                      A                      A
 Frequencies --    424.4119               436.9960               487.8642
 Red. masses --      3.4746                 2.7375                 3.1714
 Frc consts  --      0.3688                 0.3080                 0.4447
 IR Inten    --      2.9347                 1.4202                 5.7413

                     28                     29                     30
                      A                      A                      A
 Frequencies --    512.9169               544.5733               548.1183
 Red. masses --      2.8370                 3.1165                 2.5302
 Frc consts  --      0.4398                 0.5445                 0.4479
 IR Inten    --      8.9352                 6.0886                 9.9552

                     31                     32                     33
                      A                      A                      A
 Frequencies --    599.5286               628.7803               651.3829
 Red. masses --      1.8639                 5.4713                 5.8805
 Frc consts  --      0.3947                 1.2745                 1.4701
 IR Inten    --     57.8377                14.7625                 1.8612

                     34                     35                     36
                      A                      A                      A
 Frequencies --    675.1577               686.3692               711.7194
 Red. masses --      3.3837                 3.1633                 4.1384
 Frc consts  --      0.9088                 0.8780                 1.2351
 IR Inten    --     47.3701                20.0896                 2.5246

                     37                     38                     39
                      A                      A                      A
 Frequencies --    785.0736               805.8873               817.2775
 Red. masses --      5.0786                 2.7147                 1.3034
 Frc consts  --      1.8442                 1.0388                 0.5129
 IR Inten    --      1.9567                 2.8997                11.7385

                     40                     41                     42
                      A                      A                      A
 Frequencies --    832.4723               835.7426               844.0008
 Red. masses --      1.4142                 1.5558                 3.3264
 Frc consts  --      0.5774                 0.6403                 1.3961
 IR Inten    --      4.1056                47.3652                 7.0105

                     43                     44                     45
                      A                      A                      A
 Frequencies --    854.7802               902.3308               920.7752
 Red. masses --      3.5962                 1.9499                 2.3967
 Frc consts  --      1.5481                 0.9354                 1.1972
 IR Inten    --      3.3942                 4.6499                 6.8832

                     46                     47                     48
                      A                      A                      A
 Frequencies --    924.3564               926.4917               939.0676
 Red. masses --      1.8870                 1.9547                 1.3024
 Frc consts  --      0.9500                 0.9886                 0.6767
 IR Inten    --     12.2659                14.1888                 0.7193

                     49                     50                     51
                      A                      A                      A
 Frequencies --    956.4780               957.9182               993.3168
 Red. masses --      1.3665                 1.4880                 2.0315
 Frc consts  --      0.7366                 0.8045                 1.1810
 IR Inten    --      0.2539                 1.8164                 8.2830

                     52                     53                     54
                      A                      A                      A
 Frequencies --   1019.4094              1027.1793              1030.5289
 Red. masses --      1.7784                 1.9996                 3.2083
 Frc consts  --      1.0889                 1.2431                 2.0075
 IR Inten    --      5.5137                 5.0099                 4.0965

                     55                     56                     57
                      A                      A                      A
 Frequencies --   1042.4308              1074.6507              1118.7507
 Red. masses --      9.7240                 4.3161                 2.9429
 Frc consts  --      6.2257                 2.9368                 2.1702
 IR Inten    --     70.2535                51.5918                16.2086

                     58                     59                     60
                      A                      A                      A
 Frequencies --   1132.1302              1132.5556              1156.0017
 Red. masses --      2.1033                 2.1943                 1.4096
 Frc consts  --      1.5883                 1.6583                 1.1098
 IR Inten    --     24.1065                22.4083                12.9177

                     61                     62                     63
                      A                      A                      A
 Frequencies --   1167.7167              1173.6473              1181.0231
 Red. masses --      1.0917                 1.2500                 1.2988
 Frc consts  --      0.8771                 1.0145                 1.0674
 IR Inten    --      0.3402                 3.3895                40.3004

                     64                     65                     66
                      A                      A                      A
 Frequencies --   1203.1116              1205.9387              1219.9803
 Red. masses --      2.6648                 1.6223                 1.1883
 Frc consts  --      2.2726                 1.3900                 1.0420
 IR Inten    --      0.5813                 5.8963                49.6838

                     67                     68                     69
                      A                      A                      A
 Frequencies --   1225.8317              1286.3395              1288.9976
 Red. masses --      1.9845                 1.3357                 2.6643
 Frc consts  --      1.7570                 1.3022                 2.6082
 IR Inten    --     27.4206                67.9722               231.6128

                     70                     71                     72
                      A                      A                      A
 Frequencies --   1305.6177              1319.3399              1327.8397
 Red. masses --      2.0111                 1.3510                 1.7958
 Frc consts  --      2.0198                 1.3855                 1.8655
 IR Inten    --      1.1483                 2.6609                10.3469

                     73                     74                     75
                      A                      A                      A
 Frequencies --   1335.2548              1350.2659              1356.2441
 Red. masses --      1.5518                 1.4731                 1.9986
 Frc consts  --      1.6301                 1.5824                 2.1660
 IR Inten    --      4.6144                30.8686                66.8844

                     76                     77                     78
                      A                      A                      A
 Frequencies --   1382.7476              1403.9060              1421.2563
 Red. masses --      1.7444                 1.5969                 1.2746
 Frc consts  --      1.9651                 1.8544                 1.5170
 IR Inten    --    104.6848                10.8853                 0.2097

                     79                     80                     81
                      A                      A                      A
 Frequencies --   1425.3572              1443.6622              1447.4344
 Red. masses --      1.6596                 1.2960                 1.3298
 Frc consts  --      1.9865                 1.5914                 1.6415
 IR Inten    --     38.7972                22.9089                15.0176

                     82                     83                     84
                      A                      A                      A
 Frequencies --   1460.6452              1496.0971              1510.3126
 Red. masses --      2.9639                 1.1120                 1.7024
 Frc consts  --      3.7257                 1.4665                 2.2879
 IR Inten    --      2.2758                17.9228                52.7520

                     85                     86                     87
                      A                      A                      A
 Frequencies --   1515.3965              1516.6309              1523.0796
 Red. masses --      1.1042                 1.0435                 1.1150
 Frc consts  --      1.4939                 1.4141                 1.5240
 IR Inten    --     12.7924                 4.9733                26.7462

                     88                     89                     90
                      A                      A                      A
 Frequencies --   1527.1543              1532.1171              1541.8223
 Red. masses --      1.0548                 1.0541                 1.0836
 Frc consts  --      1.4495                 1.4579                 1.5178
 IR Inten    --     13.4551                 4.0529                 5.4931

                     91                     92                     93
                      A                      A                      A
 Frequencies --   1546.0909              1552.6590              1565.8013
 Red. masses --      1.2934                 1.6773                 1.1115
 Frc consts  --      1.8216                 2.3824                 1.6055
 IR Inten    --     44.3888               112.7303                 3.7198

                     94                     95                     96
                      A                      A                      A
 Frequencies --   1625.0731              1663.7611              1777.8313
 Red. masses --      6.4308                 5.6915                 7.5045
 Frc consts  --     10.0060                 9.2823                13.9751
 IR Inten    --      8.6120                57.8143               344.5385

                     97                     98                     99
                      A                      A                      A
 Frequencies --   3018.6593              3020.6620              3031.7315
 Red. masses --      1.0528                 1.0716                 1.0580
 Frc consts  --      5.6522                 5.7611                 5.7296
 IR Inten    --    107.4807                40.1933                19.4508

                    100                    101                    102
                      A                      A                      A
 Frequencies --   3045.9660              3057.2151              3061.4816
 Red. masses --      1.0680                 1.0423                 1.0362
 Frc consts  --      5.8381                 5.7398                 5.7220
 IR Inten    --     45.4360                 3.3340                14.1449

                    103                    104                    105
                      A                      A                      A
 Frequencies --   3062.7601              3073.9168              3084.5349
 Red. masses --      1.1063                 1.1109                 1.0642
 Frc consts  --      6.1144                 6.1847                 5.9653
 IR Inten    --     52.9971                56.4403                 8.2964

                    106                    107                    108
                      A                      A                      A
 Frequencies --   3113.1407              3124.2930              3131.0293
 Red. masses --      1.0980                 1.1022                 1.1010
 Frc consts  --      6.2696                 6.3390                 6.3593
 IR Inten    --     15.9908                30.6803                33.6916

                    109                    110                    111
                      A                      A                      A
 Frequencies --   3137.6311              3145.0192              3145.2321
 Red. masses --      1.1011                 1.0910                 1.1034
 Frc consts  --      6.3866                 6.3580                 6.4312
 IR Inten    --     12.7854                 5.2723                43.5502

                    112                    113                    114
                      A                      A                      A
 Frequencies --   3156.6386              3193.5728              3215.8890
 Red. masses --      1.1013                 1.0891                 1.0896
 Frc consts  --      6.4654                 6.5443                 6.6393
 IR Inten    --      3.3831                 8.8916                 4.7011

                    115                    116                    117
                      A                      A                      A
 Frequencies --   3230.8620              3243.5561              3579.8289
 Red. masses --      1.0913                 1.0928                 1.0749
 Frc consts  --      6.7115                 6.7739                 8.1159
 IR Inten    --     13.9908                 1.2279                15.6496

 - Thermochemistry -
 -------------------
 Temperature   298.150 Kelvin.  Pressure   1.00000 Atm.
 Atom     1 has atomic number  6 and mass  12.00000

 Molecular mass:   295.12422 amu.
 Principal axes and moments of inertia in atomic units:
                           1         2         3
     Eigenvalues --  4341.27091********************
           X            0.99980  -0.01986   0.00356
           Y            0.01983   0.99978   0.00607
           Z           -0.00368  -0.00600   0.99998
 This molecule is an asymmetric top.
 Rotational symmetry number  1.
 Warning -- assumption of classical behavior for rotation
           may cause significant error
 Rotational temperatures (Kelvin)      0.01995     0.00851     0.00706
 Rotational constants (GHZ):           0.41572     0.17722     0.14701
 Zero-point vibrational energy     905080.9 (Joules/Mol)
                                  216.31953 (Kcal/Mol)
 Warning -- explicit consideration of  31 degrees of freedom as
           vibrations may cause significant error
 Vibrational temperatures:     22.87    27.61    57.81    70.53    86.11
          (Kelvin)            107.27   117.15   127.36   162.06   188.21
                              201.79   272.86   290.77   334.55   344.64
                              354.35   376.97   439.04   477.68   495.06
                              505.84   518.86   552.03   603.06   610.63
                              628.74   701.93   737.97   783.52   788.62
                              862.59   904.67   937.19   971.40   987.53
                             1024.01  1129.55  1159.49  1175.88  1197.74
                             1202.45  1214.33  1229.84  1298.25  1324.79
                             1329.94  1333.01  1351.11  1376.16  1378.23
                             1429.16  1466.70  1477.88  1482.70  1499.83
                             1546.18  1609.63  1628.88  1629.49  1663.23
                             1680.08  1688.62  1699.23  1731.01  1735.08
                             1755.28  1763.70  1850.76  1854.58  1878.49
                             1898.24  1910.47  1921.13  1942.73  1951.33
                             1989.47  2019.91  2044.87  2050.77  2077.11
                             2082.54  2101.54  2152.55  2173.00  2180.32
                             2182.09  2191.37  2197.23  2204.37  2218.34
                             2224.48  2233.93  2252.84  2338.12  2393.78
                             2557.90  4343.18  4346.06  4361.99  4382.47
                             4398.65  4404.79  4406.63  4422.68  4437.96
                             4479.12  4495.16  4504.85  4514.35  4524.98
                             4525.29  4541.70  4594.84  4626.95  4648.49
                             4666.75  5150.58

 Zero-point correction=                           0.344727 (Hartree/Particle)
 Thermal correction to Energy=                    0.365441
 Thermal correction to Enthalpy=                  0.366385
 Thermal correction to Gibbs Free Energy=         0.292315
 Sum of electronic and zero-point Energies=          -1262.551329
 Sum of electronic and thermal Energies=             -1262.530616
 Sum of electronic and thermal Enthalpies=           -1262.529671
 Sum of electronic and thermal Free Energies=        -1262.603741

                     E (Thermal)             CV                S
                      KCal/Mol        Cal/Mol-Kelvin    Cal/Mol-Kelvin
 Total                  229.318             76.950            155.892
 Electronic               0.000              0.000              0.000
 Translational            0.889              2.981             42.944
 Rotational               0.889              2.981             34.650
 Vibrational            227.540             70.988             78.298
 Vibration     1          0.593              1.986              7.090
 Vibration     2          0.593              1.986              6.716
 Vibration     3          0.594              1.981              5.250
 Vibration     4          0.595              1.978              4.857
 Vibration     5          0.597              1.973              4.462
 Vibration     6          0.599              1.966              4.029
 Vibration     7          0.600              1.962              3.856
 Vibration     8          0.601              1.957              3.693
 Vibration     9          0.607              1.939              3.223
 Vibration    10          0.612              1.923              2.934
 Vibration    11          0.615              1.913              2.800
 Vibration    12          0.633              1.854              2.231
 Vibration    13          0.639              1.837              2.114
 Vibration    14          0.653              1.791              1.859
 Vibration    15          0.657              1.780              1.806
 Vibration    16          0.661              1.769              1.757
 Vibration    17          0.669              1.742              1.648
 Vibration    18          0.696              1.664              1.389
 Vibration    19          0.714              1.612              1.250
 Vibration    20          0.723              1.587              1.193
 Vibration    21          0.728              1.572              1.159
 Vibration    22          0.735              1.553              1.119
 Vibration    23          0.753              1.505              1.025
 Vibration    24          0.782              1.429              0.895
 Vibration    25          0.786              1.417              0.877
 Vibration    26          0.797              1.390              0.836
 Vibration    27          0.844              1.277              0.689
 Vibration    28          0.868              1.221              0.627
 Vibration    29          0.900              1.152              0.556
 Vibration    30          0.903              1.144              0.548
 Vibration    31          0.958              1.033              0.450

                           ! Non-Optimized Parameters !
 Normal termination of Gaussian 16 at Mon Dec 14 14:33:34 2020.

 ----------------------------------------------------------------------
 # B3LYP/6-311++G(d,p) empiricaldispersion=gd3bj scf=xqc pop=npa geom=c
 heck
 ----------------------------------------------------------------------

 ---------------------------------------
 CID_78957652_JID_10273_Energie_neutraal
 ---------------------------------------
 Structure from the checkpoint file:  "JID_10273.chk"
 Charge =  0 Multiplicity = 1

 SCF Done:  E(RB3LYP) =  -1263.16786146     A.U. after   17 cycles
 Normal termination of Gaussian 16 at Mon Dec 14 14:45:20 2020.

 ----------------------------------------------------------------------
 # B3LYP/6-311++G(d,p) empiricaldispersion=gd3bj scf=xqc pop=npa geom=c
 heck
 ----------------------------------------------------------------------

 -------------------------------------
 CID_78957652_JID_10273_Energie_kation
 -------------------------------------
 Structure from the checkpoint file:  "JID_10273.chk"
 Charge =  1 Multiplicity = 2

 SCF Done:  E(UB3LYP) =  -1262.89616739     A.U. after   26 cycles
 Normal termination of Gaussian 16 at Mon Dec 14 15:09:56 2020.
 Gaussian 16:  ES64L-G16RevA.03 25-Dec-2016

 ----------------------------------------------------------------------
 # B3LYP/6-311++G(d,p) empiricaldispersion=gd3bj scf=xqc pop=npa geom=c
 heck
 ----------------------------------------------------------------------

 ------------------------------------
 CID_78957652_JID_10273_Energie_anion
 ------------------------------------
 Structure from the checkpoint file:  "JID_10273.chk"
 Charge = -1 Multiplicity = 2

                         Standard orientation:
 ---------------------------------------------------------------------
 Center     Atomic      Atomic             Coordinates (Angstroms)
 Number     Number       Type             X           Y           Z
 ---------------------------------------------------------------------
      1          6           0        4.370499   -2.857689    0.561783
      2          6           0        5.093631   -1.594717    0.108401
      3          8           0        4.507794   -0.409061    0.647038
      4          6           0        3.350528    0.070790    0.105452
      5          6           0        2.715279   -0.444362   -1.030319
      6          6           0        1.534188    0.140553   -1.487673
      7          6           0        0.979879    1.249204   -0.842067
      8          6           0        1.627022    1.769750    0.288088
      9          6           0        2.789631    1.175386    0.760300
     10         16           0       -0.491992    1.959286   -1.565365
     11          6           0       -1.358012    2.730003   -0.137905
     12          6           0       -1.469346    1.892675    1.135127
     13          8           0       -0.896516    2.255636    2.156913
     14          7           0       -2.216398    0.752463    1.110017
     15          6           0       -3.061386    0.209154    0.059196
     16          6           0       -2.840439   -1.297600   -0.127847
     17          6           0       -3.997165   -1.932107   -0.935868
     18          8           0       -4.600750   -2.472889    0.260160
     19          6           0       -3.432777   -2.133658    1.036657
     20          6           0       -1.422812   -1.625799   -0.572075
     21          1           0        4.356542   -2.910193    1.654792
     22          1           0        4.885255   -3.745530    0.177421
     23          1           0        3.336047   -2.879436    0.206725
     24          1           0        6.118959   -1.585637    0.487733
     25          1           0        5.147090   -1.528056   -0.986079
     26          1           0        3.112904   -1.302622   -1.558041
     27          1           0        1.039925   -0.280059   -2.358528
     28          1           0        1.213471    2.613488    0.826119
     29          1           0        3.288386    1.560637    1.643512
     30          1           0       -0.860284    3.656392    0.150155
     31          1           0       -2.346707    2.984301   -0.534665
     32          1           0       -2.250813    0.295921    2.014502
     33          1           0       -2.828188    0.720893   -0.875768
     34          1           0       -4.120722    0.390314    0.292681
     35          1           0       -4.671227   -1.244696   -1.463138
     36          1           0       -3.675987   -2.722998   -1.627442
     37          1           0       -2.838953   -3.021124    1.295477
     38          1           0       -3.698451   -1.602123    1.960919
     39          1           0       -1.282634   -2.708670   -0.660426
     40          1           0       -1.211109   -1.169286   -1.544533
     41          1           0       -0.683393   -1.236334    0.133904
 ---------------------------------------------------------------------

 SCF Done:  E(UB3LYP) =  -1263.15892495     A.U. after   33 cycles
 SCF Done:  E(UB3LYP) =  -1263.15892495     a.u. after    1 cycles

 The electronic state is 2-A.
 Alpha  occ. eigenvalues --  -88.77395 -19.06875 -19.04210 -19.01160 -14.26107
 Alpha  occ. eigenvalues --  -10.20131 -10.15299 -10.14398 -10.14062 -10.13786
 Alpha  occ. eigenvalues --  -10.13320 -10.13144 -10.12096 -10.11279 -10.09851
 Alpha  occ. eigenvalues --  -10.09634 -10.09284 -10.09060 -10.07941 -10.07497
 Alpha  occ. eigenvalues --   -7.85986  -5.82403  -5.82000  -5.81343  -0.98494
 Alpha  occ. eigenvalues --   -0.96813  -0.96358  -0.85013  -0.78365  -0.72841
 Alpha  occ. eigenvalues --   -0.71913  -0.69163  -0.66996  -0.65601  -0.62121
 Alpha  occ. eigenvalues --   -0.61755  -0.59498  -0.58110  -0.55659  -0.53392
 Alpha  occ. eigenvalues --   -0.51112  -0.49301  -0.47018  -0.45300  -0.43394
 Alpha  occ. eigenvalues --   -0.42449  -0.41461  -0.40674  -0.39388  -0.37986
 Alpha  occ. eigenvalues --   -0.37689  -0.37290  -0.36989  -0.35691  -0.35131
 Alpha  occ. eigenvalues --   -0.34529  -0.34093  -0.33236  -0.32954  -0.32368
 Alpha  occ. eigenvalues --   -0.31942  -0.31346  -0.30813  -0.30099  -0.29774
 Alpha  occ. eigenvalues --   -0.28402  -0.27577  -0.26755  -0.25934  -0.24469
 Alpha  occ. eigenvalues --   -0.24292  -0.23897  -0.22667  -0.18721  -0.18518
 Alpha  occ. eigenvalues --   -0.17968  -0.17742  -0.17157  -0.12360   0.03626
 Alpha virt. eigenvalues --    0.04966   0.05912   0.06212   0.06570   0.07105
 Alpha virt. eigenvalues --    0.07195   0.07587   0.07663   0.08136   0.08807
 Alpha virt. eigenvalues --    0.08895   0.09439   0.09686   0.10198   0.10582

  Beta  occ. eigenvalues --  -88.77392 -19.06872 -19.04207 -19.01158 -14.26098
  Beta  occ. eigenvalues --  -10.20128 -10.15299 -10.14379 -10.14044 -10.13767
  Beta  occ. eigenvalues --  -10.13301 -10.13120 -10.12096 -10.11278 -10.09843
  Beta  occ. eigenvalues --  -10.09630 -10.09268 -10.09060 -10.07904 -10.07474
  Beta  occ. eigenvalues --   -7.85983  -5.82401  -5.81995  -5.81341  -0.98483
  Beta  occ. eigenvalues --   -0.96804  -0.96352  -0.84997  -0.78355  -0.72823
  Beta  occ. eigenvalues --   -0.71896  -0.69134  -0.66978  -0.65572  -0.62079
  Beta  occ. eigenvalues --   -0.61716  -0.59466  -0.58080  -0.55610  -0.53368
  Beta  occ. eigenvalues --   -0.51083  -0.49275  -0.46968  -0.45275  -0.43367
  Beta  occ. eigenvalues --   -0.42423  -0.41441  -0.40635  -0.39367  -0.37961
  Beta  occ. eigenvalues --   -0.37667  -0.37268  -0.36951  -0.35668  -0.35114
  Beta  occ. eigenvalues --   -0.34505  -0.34076  -0.33218  -0.32933  -0.32345
  Beta  occ. eigenvalues --   -0.31919  -0.31320  -0.30788  -0.30065  -0.29747
  Beta  occ. eigenvalues --   -0.28375  -0.27552  -0.26734  -0.25914  -0.24447
  Beta  occ. eigenvalues --   -0.24271  -0.23874  -0.22648  -0.18710  -0.18503
  Beta  occ. eigenvalues --   -0.17955  -0.17729  -0.17144  -0.12351
  Beta virt. eigenvalues --    0.05730   0.05883   0.06081   0.06645   0.06905
  Beta virt. eigenvalues --    0.07359   0.07514   0.07861   0.08091   0.08250
  Beta virt. eigenvalues --    0.08897   0.09110   0.09792   0.10090   0.10291

 Mulliken charges and spin densities:
               1          2
     1  C    0.886486  -1.257598
     2  C   -0.402736   0.152602
     3  O   -0.093672   0.005515
     4  C   -0.921669   0.133691
     5  C    0.154217  -0.118322
     6  C    0.282909  -0.109587
     7  C    0.938747  -0.528807
     8  C   -0.002715  -0.117256
     9  C   -0.827008   0.457320
    10  S    0.978338  -1.175071
    11  C   -0.010673  -0.307766
    12  C   -0.266601   0.127963
    13  O   -0.300021   0.003531
    14  N   -0.116152   0.039463
    15  C    0.828277  -1.267502
    16  C   -0.607426   1.084055
    17  C    0.548902  -0.877581
    18  O   -0.164334   0.030336
    19  C    0.405774  -0.598465
    20  C   -0.783987  -0.131917
    21  H    0.048325   0.098506
    22  H   -0.372986   0.506484
    23  H   -0.188305   0.330981
    24  H   -0.302666   0.492614
    25  H   -0.013691   0.139181
    26  H   -0.319673   0.542667
    27  H   -0.239704   0.434304
    28  H    0.175030   0.033305
    29  H    0.138611   0.050406
    30  H    0.209128   0.046964
    31  H   -0.261278   0.513691
    32  H    0.164379   0.125201
    33  H   -0.096734   0.263650
    34  H   -0.266644   0.488359
    35  H   -0.184218   0.360354
    36  H   -0.025831   0.190425
    37  H   -0.052800   0.216790
    38  H    0.028969   0.124280
    39  H   -0.189918   0.371210
    40  H   -0.017177   0.177526
    41  H    0.240528  -0.051500
 Sum of Mulliken charges =  -1.00000   1.00000

 Dipole moment (field-independent basis, Debye):
    X=             -0.3542    Y=              3.9300    Z=              1.1466  Tot=              4.1091
 Quadrupole moment (field-independent basis, Debye-Ang):
   XX=           -231.6753   YY=           -190.0270   ZZ=           -168.8205
   XY=             15.4342   XZ=             -1.0375   YZ=             -5.6370

 Summary of Natural Population Analysis:

                                       Natural Population
                Natural  -----------------------------------------------
    Atom  No    Charge         Core      Valence    Rydberg      Total
 -----------------------------------------------------------------------
      C    1   -0.30079      0.99966     2.29633    0.00479     3.30079
      C    2   -0.01218      0.99958     2.00042    0.01217     3.01218
      O    3   -0.27658      0.99986     3.26745    0.00927     4.27658
      C    4    0.15914      0.99938     1.82762    0.01387     2.84086
      C    5   -0.13877      0.99951     2.13062    0.00864     3.13877
      C    6   -0.09715      0.99951     2.08678    0.01086     3.09715
      C    7   -0.10818      0.99940     2.09755    0.01124     3.10818
      C    8   -0.10136      0.99950     2.09323    0.00863     3.10136
      C    9   -0.11312      0.99953     2.10528    0.00832     3.11312
      S   10    0.12612      4.99954     2.85504    0.01929     7.87388
      C   11   -0.29545      0.99954     2.28607    0.00984     3.29545
      C   12    0.33545      0.99965     1.64125    0.02365     2.66455
      O   13   -0.32039      0.99988     3.31503    0.00549     4.32039
      N   14   -0.31412      0.99966     2.80451    0.00995     3.81412
      C   15   -0.08850      0.99955     2.07615    0.01280     3.08850
      C   16   -0.06763      0.99956     2.05557    0.01250     3.06763
      C   17    0.00262      0.99958     1.98508    0.01273     2.99738
      O   18   -0.30497      0.99991     3.29654    0.00852     4.30497
      C   19    0.00122      0.99958     1.98830    0.01090     2.99878
      C   20   -0.28910      0.99962     2.28179    0.00769     3.28910
      H   21    0.10085      0.00000     0.39821    0.00094     0.39915
      H   22    0.10473      0.00000     0.39352    0.00175     0.39527
      H   23    0.10358      0.00000     0.39477    0.00165     0.39642
      H   24    0.09156      0.00000     0.40720    0.00124     0.40844
      H   25    0.08387      0.00000     0.41456    0.00158     0.41613
      H   26    0.10867      0.00000     0.38975    0.00158     0.39133
      H   27    0.10541      0.00000     0.39291    0.00168     0.39459
      H   28    0.11157      0.00000     0.38687    0.00156     0.38843
      H   29    0.10632      0.00000     0.39251    0.00117     0.39368
      H   30    0.11391      0.00000     0.38476    0.00134     0.38609
      H   31    0.12008      0.00000     0.37818    0.00173     0.37992
      H   32    0.19373      0.00000     0.30379    0.00248     0.30627
      H   33    0.10893      0.00000     0.38875    0.00232     0.39107
      H   34    0.09677      0.00000     0.40129    0.00194     0.40323
      H   35    0.08654      0.00000     0.41172    0.00175     0.41346
      H   36    0.08490      0.00000     0.41355    0.00156     0.41510
      H   37    0.08493      0.00000     0.41352    0.00155     0.41507
      H   38    0.08145      0.00000     0.41699    0.00156     0.41855
      H   39    0.10290      0.00000     0.39571    0.00139     0.39710
      H   40    0.10511      0.00000     0.39327    0.00162     0.39489
      H   41    0.10793      0.00000     0.39034    0.00173     0.39207
 =======================================================================
   * Total *   -0.00000     23.99199    54.75276    0.25525    79.00000

 Normal termination of Gaussian 16 at Mon Dec 14 15:41:14 2020.
