 Gaussian 16, Revision A.03,

 -----------------------------------------------------------
 # opt freq B3LYP/6-31G(d) empiricaldispersion=gd3bj scf=xqc
 -----------------------------------------------------------

 -------------------------------
 CID_129980829_JID_2169_neutraal
 -------------------------------
 Symbolic Z-matrix:
 Charge =  0 Multiplicity = 1

 SCF Done:  E(RB3LYP) =  -545.889134121     A.U. after   15 cycles
 SCF Done:  E(RB3LYP) =  -545.894244738     A.U. after   13 cycles
 SCF Done:  E(RB3LYP) =  -545.895823370     A.U. after   12 cycles
 SCF Done:  E(RB3LYP) =  -545.896576864     A.U. after   13 cycles
 SCF Done:  E(RB3LYP) =  -545.896847683     A.U. after   13 cycles
 SCF Done:  E(RB3LYP) =  -545.897042542     A.U. after   11 cycles
 SCF Done:  E(RB3LYP) =  -545.897115232     A.U. after   11 cycles
 SCF Done:  E(RB3LYP) =  -545.897151857     A.U. after   10 cycles
 SCF Done:  E(RB3LYP) =  -545.897163303     A.U. after   10 cycles
 SCF Done:  E(RB3LYP) =  -545.897213978     A.U. after   11 cycles
 SCF Done:  E(RB3LYP) =  -545.899067090     A.U. after   12 cycles
 SCF Done:  E(RB3LYP) =  -545.899139888     A.U. after   11 cycles
 SCF Done:  E(RB3LYP) =  -545.899161979     A.U. after   11 cycles
 SCF Done:  E(RB3LYP) =  -545.899167033     A.U. after    9 cycles
 SCF Done:  E(RB3LYP) =  -545.899167769     A.U. after    8 cycles
 Optimization completed.
    -- Stationary point found.
 Normal termination of Gaussian 16 at Wed Dec  9 16:57:11 2020.

 --------------------------------------------------------------------
 #N Geom=AllCheck Guess=TCheck SCRF=Check GenChk RB3LYP/6-31G(d) Freq
 --------------------------------------------------------------------

 Structure from the checkpoint file:  "JID_2169.chk"
 -------------------------------
 CID_129980829_JID_2169_neutraal
 -------------------------------
 Charge =  0 Multiplicity = 1

 SCF Done:  E(RB3LYP) =  -545.899167769     A.U. after    1 cycles

  Exact polarizability: 146.173  -0.987 115.575  -0.003  -0.006  49.110
 Approx polarizability: 251.353   1.744 205.049   0.046   0.004  75.728

                      1                      2                      3
                      A                      A                      A
 Frequencies --     51.5742                67.7320               113.3443
 Red. masses --      2.4586                 2.3516                 2.0836
 Frc consts  --      0.0039                 0.0064                 0.0158
 IR Inten    --      0.0572                 2.0841                 0.0126

                      4                      5                      6
                      A                      A                      A
 Frequencies --    195.0893               220.2103               235.5900
 Red. masses --      1.2823                 3.7516                 2.4984
 Frc consts  --      0.0288                 0.1072                 0.0817
 IR Inten    --      0.1303                 0.1106                 0.6515

                      7                      8                      9
                      A                      A                      A
 Frequencies --    252.6797               297.6739               362.2444
 Red. masses --      2.7307                 4.5040                 4.0081
 Frc consts  --      0.1027                 0.2351                 0.3099
 IR Inten    --      0.0369                 3.0898                 4.0559

                     10                     11                     12
                      A                      A                      A
 Frequencies --    373.4761               462.7856               515.9991
 Red. masses --      3.6640                 1.5270                 5.8326
 Frc consts  --      0.3011                 0.1927                 0.9150
 IR Inten    --      0.3584                86.0756                 0.3423

                     13                     14                     15
                      A                      A                      A
 Frequencies --    551.3514               586.2746               652.7082
 Red. masses --      3.9743                 5.6904                 5.6461
 Frc consts  --      0.7118                 1.1524                 1.4172
 IR Inten    --      0.8999                 2.9445                 0.7428

                     16                     17                     18
                      A                      A                      A
 Frequencies --    655.9997               680.6102               681.9540
 Red. masses --      4.9407                 8.0228                 3.7364
 Frc consts  --      1.2527                 2.1897                 1.0238
 IR Inten    --      5.4517                10.9522                20.1905

                     19                     20                     21
                      A                      A                      A
 Frequencies --    790.1233               848.6158               856.4246
 Red. masses --      4.1751                 1.4265                 1.3724
 Frc consts  --      1.5357                 0.6053                 0.5931
 IR Inten    --      6.5730                 9.1065                20.4672

                     22                     23                     24
                      A                      A                      A
 Frequencies --    872.1439               945.0446               963.5009
 Red. masses --      6.9055                 4.7738                 4.2046
 Frc consts  --      3.0947                 2.5120                 2.2997
 IR Inten    --      8.7308                22.3584                36.8102

                     25                     26                     27
                      A                      A                      A
 Frequencies --   1091.7286              1118.6649              1137.8669
 Red. masses --      1.5532                 2.7071                 3.6282
 Frc consts  --      1.0907                 1.9960                 2.7677
 IR Inten    --     24.3643                15.2316                12.2302

                     28                     29                     30
                      A                      A                      A
 Frequencies --   1152.3402              1153.6558              1158.9912
 Red. masses --      1.3107                 4.7854                 1.2307
 Frc consts  --      1.0254                 3.7525                 0.9740
 IR Inten    --      0.6961                63.2944                 0.0085

                     31                     32                     33
                      A                      A                      A
 Frequencies --   1244.3053              1252.6801              1270.6981
 Red. masses --      2.7030                 1.8531                 3.9818
 Frc consts  --      2.4657                 1.7133                 3.7880
 IR Inten    --     11.6522                 3.6959                98.5499

                     34                     35                     36
                      A                      A                      A
 Frequencies --   1315.9595              1345.1915              1372.4751
 Red. masses --      2.7210                 2.6090                 3.2832
 Frc consts  --      2.7763                 2.7816                 3.6438
 IR Inten    --     12.4526                 7.2604                13.7935

                     37                     38                     39
                      A                      A                      A
 Frequencies --   1420.5862              1458.9355              1472.4094
 Red. masses --      2.5875                 4.1438                 1.1739
 Frc consts  --      3.0766                 5.1966                 1.4995
 IR Inten    --     88.4755                26.4165                 2.0695

                     40                     41                     42
                      A                      A                      A
 Frequencies --   1497.9090              1501.5608              1510.0591
 Red. masses --      4.8294                 1.4449                 1.0396
 Frc consts  --      6.3843                 1.9194                 1.3967
 IR Inten    --     10.6231                58.9760                 0.0133

                     43                     44                     45
                      A                      A                      A
 Frequencies --   1519.2104              1537.7264              1544.9495
 Red. masses --      1.0453                 1.7981                 1.1354
 Frc consts  --      1.4214                 2.5051                 1.5967
 IR Inten    --     12.9000                 7.6076                 5.1525

                     46                     47                     48
                      A                      A                      A
 Frequencies --   1563.3390              1606.0419              1631.3592
 Red. masses --      1.2135                 5.4216                 5.7772
 Frc consts  --      1.7474                 8.2393                 9.0587
 IR Inten    --     64.7603                68.1092               318.0981

                     49                     50                     51
                      A                      A                      A
 Frequencies --   3031.6364              3039.0419              3082.4098
 Red. masses --      1.0367                 1.0394                 1.1049
 Frc consts  --      5.6136                 5.6559                 6.1853
 IR Inten    --     68.9536                29.0828                22.6974

                     52                     53                     54
                      A                      A                      A
 Frequencies --   3089.5911              3156.4747              3169.0742
 Red. masses --      1.1056                 1.0991                 1.0964
 Frc consts  --      6.2180                 6.4521                 6.4875
 IR Inten    --     32.2398                 1.9982                32.2440

                     55                     56                     57
                      A                      A                      A
 Frequencies --   3231.1427              3284.4876              3672.8980
 Red. masses --      1.0891                 1.0952                 1.0812
 Frc consts  --      6.6993                 6.9611                 8.5936
 IR Inten    --     14.3375                 5.6626               105.4819

 - Thermochemistry -
 -------------------
 Temperature   298.150 Kelvin.  Pressure   1.00000 Atm.
 Atom     1 has atomic number  6 and mass  12.00000

 Molecular mass:   163.08580 amu.
 Principal axes and moments of inertia in atomic units:
                           1         2         3
     Eigenvalues --  1132.024892075.459683184.68932
           X            0.99994   0.01078  -0.00004
           Y           -0.01078   0.99994   0.00002
           Z            0.00004  -0.00002   1.00000
 This molecule is an asymmetric top.
 Rotational symmetry number  1.
 Warning -- assumption of classical behavior for rotation
           may cause significant error
 Rotational temperatures (Kelvin)      0.07651     0.04173     0.02720
 Rotational constants (GHZ):           1.59426     0.86956     0.56669
 Zero-point vibrational energy     441832.0 (Joules/Mol)
                                  105.60039 (Kcal/Mol)
 Warning -- explicit consideration of  14 degrees of freedom as
           vibrations may cause significant error
 Vibrational temperatures:     74.20    97.45   163.08   280.69   316.83
          (Kelvin)            338.96   363.55   428.29   521.19   537.35
                              665.85   742.41   793.27   843.52   939.10
                              943.84   979.25   981.18  1136.81  1220.97
                             1232.20  1254.82  1359.71  1386.26  1570.75
                             1609.51  1637.14  1657.96  1659.85  1667.53
                             1790.28  1802.33  1828.25  1893.37  1935.43
                             1974.69  2043.91  2099.08  2118.47  2155.16
                             2160.41  2172.64  2185.80  2212.45  2222.84
                             2249.30  2310.74  2347.16  4361.85  4372.50
                             4434.90  4445.23  4541.46  4559.59  4648.89
                             4725.65  5284.48

 Zero-point correction=                           0.168285 (Hartree/Particle)
 Thermal correction to Energy=                    0.178592
 Thermal correction to Enthalpy=                  0.179536
 Thermal correction to Gibbs Free Energy=         0.131840
 Sum of electronic and zero-point Energies=           -545.730883
 Sum of electronic and thermal Energies=              -545.720576
 Sum of electronic and thermal Enthalpies=            -545.719632
 Sum of electronic and thermal Free Energies=         -545.767328

                     E (Thermal)             CV                S
                      KCal/Mol        Cal/Mol-Kelvin    Cal/Mol-Kelvin
 Total                  112.068             38.575            100.385
 Electronic               0.000              0.000              0.000
 Translational            0.889              2.981             41.176
 Rotational               0.889              2.981             30.393
 Vibrational            110.291             32.614             28.816
 Vibration     1          0.596              1.977              4.756
 Vibration     2          0.598              1.970              4.218
 Vibration     3          0.607              1.938              3.211
 Vibration     4          0.636              1.847              2.179
 Vibration     5          0.647              1.810              1.957
 Vibration     6          0.655              1.786              1.836
 Vibration     7          0.664              1.758              1.712
 Vibration     8          0.691              1.678              1.430
 Vibration     9          0.736              1.550              1.112
 Vibration    10          0.745              1.527              1.065
 Vibration    11          0.820              1.333              0.758
 Vibration    12          0.871              1.215              0.619
 Vibration    13          0.907              1.137              0.541
 Vibration    14          0.943              1.061              0.474

                           ! Non-Optimized Parameters !
 Normal termination of Gaussian 16 at Wed Dec  9 17:01:35 2020.

 ----------------------------------------------------------------------
 # B3LYP/6-311++G(d,p) empiricaldispersion=gd3bj scf=xqc pop=npa geom=c
 heck
 ----------------------------------------------------------------------

 ---------------------------------------
 CID_129980829_JID_2169_Energie_neutraal
 ---------------------------------------
 Structure from the checkpoint file:  "JID_2169.chk"
 Charge =  0 Multiplicity = 1

 SCF Done:  E(RB3LYP) =  -546.043151355     A.U. after   14 cycles
 Normal termination of Gaussian 16 at Wed Dec  9 17:03:31 2020.

 ----------------------------------------------------------------------
 # B3LYP/6-311++G(d,p) empiricaldispersion=gd3bj scf=xqc pop=npa geom=c
 heck
 ----------------------------------------------------------------------

 -------------------------------------
 CID_129980829_JID_2169_Energie_kation
 -------------------------------------
 Structure from the checkpoint file:  "JID_2169.chk"
 Charge =  1 Multiplicity = 2

 SCF Done:  E(UB3LYP) =  -545.755152491     A.U. after   21 cycles
 Normal termination of Gaussian 16 at Wed Dec  9 17:07:28 2020.
 Gaussian 16:  ES64L-G16RevA.03 25-Dec-2016

 ----------------------------------------------------------------------
 # B3LYP/6-311++G(d,p) empiricaldispersion=gd3bj scf=xqc pop=npa geom=c
 heck
 ----------------------------------------------------------------------

 ------------------------------------
 CID_129980829_JID_2169_Energie_anion
 ------------------------------------
 Structure from the checkpoint file:  "JID_2169.chk"
 Charge = -1 Multiplicity = 2

                         Standard orientation:
 ---------------------------------------------------------------------
 Center     Atomic      Atomic             Coordinates (Angstroms)
 Number     Number       Type             X           Y           Z
 ---------------------------------------------------------------------
      1          6           0       -3.218187    0.418141    0.002588
      2          7           0       -1.993005   -0.367343   -0.002937
      3          6           0       -2.063884   -1.819141   -0.000400
      4          6           0       -0.782371    0.262819   -0.001337
      5          6           0       -0.673594    1.677850   -0.000089
      6          7           0        0.466814    2.381748    0.000119
      7          7           0        1.650907    1.784078   -0.000385
      8          6           0        1.606598    0.446673   -0.000765
      9          6           0        0.468165   -0.401316   -0.001483
     10          6           0        1.024245   -1.722948    0.000236
     11          7           0        2.346053   -1.692648    0.001513
     12          7           0        2.690585   -0.380583    0.000469
     13          1           0       -4.073496   -0.258016   -0.001392
     14          1           0       -3.285590    1.063030   -0.882758
     15          1           0       -3.285358    1.052813    0.895490
     16          1           0       -1.588010   -2.242048    0.893032
     17          1           0       -3.110192   -2.126200   -0.005670
     18          1           0       -1.578798   -2.244249   -0.887618
     19          1           0       -1.562670    2.296450    0.000858
     20          1           0        0.526599   -2.680741    0.000237
     21          1           0        3.662211   -0.110281    0.003876
 ---------------------------------------------------------------------

 SCF Done:  E(UB3LYP) =  -546.037477654     A.U. after   33 cycles
 SCF Done:  E(UB3LYP) =  -546.037478672     a.u. after    3 cycles

 The electronic state is 2-A.
 Alpha  occ. eigenvalues --  -14.21129 -14.19838 -14.16107 -14.13369 -14.13181
 Alpha  occ. eigenvalues --  -10.08756 -10.08749 -10.06298 -10.04947 -10.03249
 Alpha  occ. eigenvalues --  -10.02164 -10.01365  -0.88484  -0.82576  -0.81314
 Alpha  occ. eigenvalues --   -0.67157  -0.64358  -0.62620  -0.60770  -0.55777
 Alpha  occ. eigenvalues --   -0.48299  -0.46943  -0.45465  -0.40306  -0.36907
 Alpha  occ. eigenvalues --   -0.34905  -0.34891  -0.32156  -0.30009  -0.29817
 Alpha  occ. eigenvalues --   -0.29702  -0.29370  -0.27293  -0.25699  -0.24853
 Alpha  occ. eigenvalues --   -0.22779  -0.18123  -0.14562  -0.12962  -0.11730
 Alpha  occ. eigenvalues --   -0.10191  -0.05599  -0.05341   0.06886
 Alpha virt. eigenvalues --    0.07463   0.09348   0.10702   0.11632   0.11682
 Alpha virt. eigenvalues --    0.13031   0.13082   0.13806   0.15288   0.16192
 Alpha virt. eigenvalues --    0.16371   0.17180   0.17990   0.18437   0.19284

  Beta  occ. eigenvalues --  -14.21014 -14.19727 -14.15569 -14.12754 -14.12687
  Beta  occ. eigenvalues --  -10.08765 -10.08750 -10.06376 -10.04556 -10.03233
  Beta  occ. eigenvalues --  -10.02327 -10.01305  -0.88011  -0.82079  -0.80540
  Beta  occ. eigenvalues --   -0.66684  -0.63811  -0.62290  -0.60600  -0.55437
  Beta  occ. eigenvalues --   -0.47704  -0.46728  -0.45319  -0.40128  -0.36709
  Beta  occ. eigenvalues --   -0.34614  -0.34589  -0.31975  -0.29875  -0.29728
  Beta  occ. eigenvalues --   -0.29565  -0.28352  -0.27220  -0.25588  -0.24724
  Beta  occ. eigenvalues --   -0.20791  -0.16385  -0.13954  -0.12347  -0.10641
  Beta  occ. eigenvalues --   -0.08626  -0.04541  -0.04061
  Beta virt. eigenvalues --    0.07397   0.09307   0.10670   0.11570   0.11680
  Beta virt. eigenvalues --    0.12952   0.13069   0.13711   0.14154   0.15245
  Beta virt. eigenvalues --    0.16363   0.16534   0.17660   0.17990   0.18407

 Mulliken charges and spin densities:
               1          2
     1  C   -0.248217  -0.052149
     2  N    0.037658   0.017615
     3  C   -0.382584  -0.000030
     4  C   -0.177589   0.344869
     5  C   -0.282746  -0.189351
     6  N   -0.158282   0.308702
     7  N   -0.201551   0.181300
     8  C    0.005136  -0.012780
     9  C    0.038394   0.042631
    10  C   -0.478558  -0.016869
    11  N   -0.253264   0.257625
    12  N   -0.150166   0.023447
    13  H    0.086029  -0.000485
    14  H    0.092973   0.048782
    15  H    0.098161   0.043651
    16  H    0.159705   0.004924
    17  H    0.091937  -0.000049
    18  H    0.160424   0.003946
    19  H    0.161209   0.001176
    20  H    0.103363  -0.003286
    21  H    0.297968  -0.003668
 Sum of Mulliken charges =  -1.00000   1.00000

 Dipole moment (field-independent basis, Debye):
    X=             -5.8334    Y=             -4.4698    Z=              0.0120  Tot=              7.3490
 Quadrupole moment (field-independent basis, Debye-Ang):
   XX=            -85.1717   YY=           -103.4523   ZZ=            -79.2539
   XY=              2.9090   XZ=             -0.0362   YZ=              0.0385

 Summary of Natural Population Analysis:

                                       Natural Population
                Natural  -----------------------------------------------
    Atom  No    Charge         Core      Valence    Rydberg      Total
 -----------------------------------------------------------------------
      C    1   -0.17073      0.99966     2.16438    0.00669     3.17073
      N    2   -0.23187      0.99964     2.72502    0.00721     3.73187
      C    3   -0.17112      0.99966     2.16498    0.00648     3.17112
      C    4    0.15587      0.99948     1.83575    0.00890     2.84413
      C    5   -0.08548      0.99960     2.07201    0.01388     3.08548
      N    6   -0.03743      0.99973     2.51950    0.01819     3.53743
      N    7   -0.12797      0.99968     2.60482    0.02348     3.62797
      C    8    0.15650      0.99951     1.82643    0.01755     2.84350
      C    9   -0.09380      0.99947     2.08622    0.00811     3.09380
      C   10   -0.03248      0.99963     2.01731    0.01554     3.03248
      N   11   -0.08205      0.99972     2.56665    0.01568     3.58205
      N   12   -0.17815      0.99965     2.66529    0.01321     3.67815
      H   13    0.08757      0.00000     0.41163    0.00080     0.41243
      H   14    0.09058      0.00000     0.40735    0.00207     0.40942
      H   15    0.09028      0.00000     0.40764    0.00207     0.40972
      H   16    0.09202      0.00000     0.40650    0.00148     0.40798
      H   17    0.08768      0.00000     0.41149    0.00083     0.41232
      H   18    0.09232      0.00000     0.40621    0.00147     0.40768
      H   19    0.08423      0.00000     0.41447    0.00130     0.41577
      H   20    0.08572      0.00000     0.41312    0.00115     0.41428
      H   21    0.18831      0.00000     0.30940    0.00229     0.31169
 =======================================================================
   * Total *    0.00000     11.99545    30.83615    0.16840    43.00000

 Normal termination of Gaussian 16 at Wed Dec  9 17:23:40 2020.
