 Gaussian 16, Revision A.03,

 -----------------------------------------------------------
 # opt freq B3LYP/6-31G(d) empiricaldispersion=gd3bj scf=xqc
 -----------------------------------------------------------

 -------------------------------
 CID_140043537_JID_3362_neutraal
 -------------------------------
 Symbolic Z-matrix:
 Charge =  0 Multiplicity = 1

 SCF Done:  E(RB3LYP) =  -998.705388006     A.U. after   16 cycles
 SCF Done:  E(RB3LYP) =  -998.711923859     A.U. after   13 cycles
 SCF Done:  E(RB3LYP) =  -998.712675576     A.U. after   13 cycles
 SCF Done:  E(RB3LYP) =  -998.712771737     A.U. after   12 cycles
 SCF Done:  E(RB3LYP) =  -998.712790182     A.U. after   10 cycles
 Optimization completed.
    -- Stationary point found.
 Normal termination of Gaussian 16 at Wed Dec  9 22:55:37 2020.

 --------------------------------------------------------------------
 #N Geom=AllCheck Guess=TCheck SCRF=Check GenChk RB3LYP/6-31G(d) Freq
 --------------------------------------------------------------------

 Structure from the checkpoint file:  "JID_3362.chk"
 -------------------------------
 CID_140043537_JID_3362_neutraal
 -------------------------------
 Charge =  0 Multiplicity = 1

 SCF Done:  E(RB3LYP) =  -998.712790182     A.U. after    1 cycles

  Exact polarizability: 162.066  -1.810 141.475   0.001  -0.001  42.999
 Approx polarizability: 327.546 -40.816 265.997  -0.008   0.002  69.422

                      1                      2                      3
                      A                      A                      A
 Frequencies --     66.7030               106.6810               133.9195
 Red. masses --      6.6458                13.2990                 7.5527
 Frc consts  --      0.0174                 0.0892                 0.0798
 IR Inten    --      0.7294                 2.9533                 1.8175

                      4                      5                      6
                      A                      A                      A
 Frequencies --    166.2131               189.2920               273.5945
 Red. masses --      6.9561                12.0683                 9.6943
 Frc consts  --      0.1132                 0.2548                 0.4275
 IR Inten    --      0.7677                 8.6440                 0.8594

                      7                      8                      9
                      A                      A                      A
 Frequencies --    313.1406               321.8364               381.2435
 Red. masses --     14.2930                 9.0347                 4.1577
 Frc consts  --      0.8258                 0.5514                 0.3560
 IR Inten    --      0.9480                13.9187                 0.0413

                     10                     11                     12
                      A                      A                      A
 Frequencies --    436.7767               475.9188               509.5094
 Red. masses --     13.4239                 9.9222                 8.5135
 Frc consts  --      1.5089                 1.3241                 1.3022
 IR Inten    --      6.8201                11.6630                15.9194

                     13                     14                     15
                      A                      A                      A
 Frequencies --    523.8255               573.8047               609.0002
 Red. masses --      4.2031                 1.5091                 2.0267
 Frc consts  --      0.6795                 0.2927                 0.4429
 IR Inten    --      8.3058                20.0905                 0.0070

                     16                     17                     18
                      A                      A                      A
 Frequencies --    638.8193               639.7948               675.8284
 Red. masses --      1.3063                 6.7150                 9.3439
 Frc consts  --      0.3141                 1.6195                 2.5145
 IR Inten    --    139.2937                11.1752                 8.8055

                     19                     20                     21
                      A                      A                      A
 Frequencies --    731.8181               800.3248               807.8556
 Red. masses --      8.6051                 6.7458                 7.1904
 Frc consts  --      2.7153                 2.5457                 2.7648
 IR Inten    --     70.7959                 9.5775                 5.5191

                     22                     23                     24
                      A                      A                      A
 Frequencies --    901.7741               962.0777               992.4594
 Red. masses --      6.7849                 1.4835                 4.3030
 Frc consts  --      3.2508                 0.8090                 2.4972
 IR Inten    --     10.4658                 4.6365                16.0729

                     25                     26                     27
                      A                      A                      A
 Frequencies --   1017.6821              1024.3847              1058.6466
 Red. masses --      1.4540                 7.0868                13.9261
 Frc consts  --      0.8872                 4.3815                 9.1956
 IR Inten    --      0.9063                79.5821               152.2676

                     28                     29                     30
                      A                      A                      A
 Frequencies --   1173.5021              1223.6050              1264.3797
 Red. masses --      3.3874                 2.5506                 3.5276
 Frc consts  --      2.7484                 2.2499                 3.3226
 IR Inten    --     13.4458                17.6624                14.8567

                     31                     32                     33
                      A                      A                      A
 Frequencies --   1292.3160              1319.2046              1340.6423
 Red. masses --      4.3599                 5.9686                 2.7031
 Frc consts  --      4.2901                 6.1199                 2.8624
 IR Inten    --     22.2006               177.2776                11.3102

                     34                     35                     36
                      A                      A                      A
 Frequencies --   1392.6596              1445.6263              1468.8883
 Red. masses --      2.0423                 1.5953                 4.7597
 Frc consts  --      2.3338                 1.9642                 6.0508
 IR Inten    --    126.5060                 2.8041                13.0113

                     37                     38                     39
                      A                      A                      A
 Frequencies --   1490.2945              1550.2373              1613.4900
 Red. masses --      2.0243                 3.1353                 6.7091
 Frc consts  --      2.6489                 4.4394                10.2907
 IR Inten    --     12.4156               119.6594               355.4875

                     40                     41                     42
                      A                      A                      A
 Frequencies --   1635.5752              1855.8623              3204.1027
 Red. masses --      5.7959                 8.1009                 1.0916
 Frc consts  --      9.1351                16.4389                 6.6026
 IR Inten    --    215.9292               799.3899                20.8250

                     43                     44                     45
                      A                      A                      A
 Frequencies --   3247.8257              3588.2347              3614.2209
 Red. masses --      1.0944                 1.0765                 1.0779
 Frc consts  --      6.8015                 8.1665                 8.2956
 IR Inten    --      2.1731                53.1200               120.5405

 - Thermochemistry -
 -------------------
 Temperature   298.150 Kelvin.  Pressure   1.00000 Atm.
 Atom     1 has atomic number  6 and mass  12.00000

 Molecular mass:   196.00550 amu.
 Principal axes and moments of inertia in atomic units:
                           1         2         3
     Eigenvalues --  2139.885302280.039044419.92419
           X            0.99006   0.14066   0.00001
           Y           -0.14066   0.99006  -0.00000
           Z           -0.00001  -0.00000   1.00000
 This molecule is an asymmetric top.
 Rotational symmetry number  1.
 Warning -- assumption of classical behavior for rotation
           may cause significant error
 Rotational temperatures (Kelvin)      0.04048     0.03799     0.01960
 Rotational constants (GHZ):           0.84338     0.79154     0.40832
 Zero-point vibrational energy     293405.6 (Joules/Mol)
                                   70.12563 (Kcal/Mol)
 Warning -- explicit consideration of  15 degrees of freedom as
           vibrations may cause significant error
 Vibrational temperatures:     95.97   153.49   192.68   239.14   272.35
          (Kelvin)            393.64   450.54   463.05   548.52   628.42
                              684.74   733.07   753.67   825.58   876.22
                              919.12   920.52   972.37  1052.92  1151.49
                             1162.32  1297.45  1384.22  1427.93  1464.22
                             1473.86  1523.16  1688.41  1760.49  1819.16
                             1859.35  1898.04  1928.89  2003.73  2079.93
                             2113.40  2144.20  2230.45  2321.45  2353.23
                             2670.17  4609.99  4672.90  5162.67  5200.06

 Zero-point correction=                           0.111752 (Hartree/Particle)
 Thermal correction to Energy=                    0.121826
 Thermal correction to Enthalpy=                  0.122770
 Thermal correction to Gibbs Free Energy=         0.075266
 Sum of electronic and zero-point Energies=           -998.601038
 Sum of electronic and thermal Energies=              -998.590964
 Sum of electronic and thermal Enthalpies=            -998.590020
 Sum of electronic and thermal Free Energies=         -998.637524

                     E (Thermal)             CV                S
                      KCal/Mol        Cal/Mol-Kelvin    Cal/Mol-Kelvin
 Total                   76.447             37.970             99.981
 Electronic               0.000              0.000              0.000
 Translational            0.889              2.981             41.724
 Rotational               0.889              2.981             31.445
 Vibrational             74.670             32.008             26.812
 Vibration     1          0.598              1.970              4.248
 Vibration     2          0.606              1.944              3.328
 Vibration     3          0.613              1.919              2.889
 Vibration     4          0.624              1.884              2.478
 Vibration     5          0.633              1.855              2.235
 Vibration     6          0.676              1.722              1.573
 Vibration     7          0.701              1.649              1.346
 Vibration     8          0.707              1.632              1.301
 Vibration     9          0.751              1.510              1.034
 Vibration    10          0.797              1.390              0.837
 Vibration    11          0.833              1.303              0.721
 Vibration    12          0.865              1.229              0.635
 Vibration    13          0.879              1.197              0.601
 Vibration    14          0.930              1.088              0.497
 Vibration    15          0.968              1.013              0.434

 Optimization completed.
    -- Stationary point found.
 Normal termination of Gaussian 16 at Wed Dec  9 22:59:55 2020.

 ----------------------------------------------------------------------
 # B3LYP/6-311++G(d,p) empiricaldispersion=gd3bj scf=xqc pop=npa geom=c
 heck
 ----------------------------------------------------------------------

 ---------------------------------------
 CID_140043537_JID_3362_Energie_neutraal
 ---------------------------------------
 Structure from the checkpoint file:  "JID_3362.chk"
 Charge =  0 Multiplicity = 1

 SCF Done:  E(RB3LYP) =  -998.909956773     A.U. after   17 cycles
 Normal termination of Gaussian 16 at Wed Dec  9 23:01:55 2020.

 ----------------------------------------------------------------------
 # B3LYP/6-311++G(d,p) empiricaldispersion=gd3bj scf=xqc pop=npa geom=c
 heck
 ----------------------------------------------------------------------

 -------------------------------------
 CID_140043537_JID_3362_Energie_kation
 -------------------------------------
 Structure from the checkpoint file:  "JID_3362.chk"
 Charge =  1 Multiplicity = 2

 SCF Done:  E(UB3LYP) =  -998.605249267     A.U. after   24 cycles
 Normal termination of Gaussian 16 at Wed Dec  9 23:05:43 2020.
 Gaussian 16:  ES64L-G16RevA.03 25-Dec-2016

 ----------------------------------------------------------------------
 # B3LYP/6-311++G(d,p) empiricaldispersion=gd3bj scf=xqc pop=npa geom=c
 heck
 ----------------------------------------------------------------------

 ------------------------------------
 CID_140043537_JID_3362_Energie_anion
 ------------------------------------
 Structure from the checkpoint file:  "JID_3362.chk"
 Charge = -1 Multiplicity = 2

                         Standard orientation:
 ---------------------------------------------------------------------
 Center     Atomic      Atomic             Coordinates (Angstroms)
 Number     Number       Type             X           Y           Z
 ---------------------------------------------------------------------
      1          6           0       -0.084614   -1.946999    0.000414
      2          6           0       -0.147573   -0.541499    0.000198
      3          6           0       -1.453840    0.004102   -0.000156
      4          7           0       -2.555832   -0.743435   -0.000277
      5          6           0       -2.355266   -2.065504   -0.000056
      6          7           0       -1.184626   -2.708895    0.000282
      7          7           0       -1.622319    1.370132   -0.000440
      8          6           0       -0.592271    2.298089    0.000042
      9          8           0       -0.766834    3.498890    0.000036
     10          7           0        0.673806    1.721134    0.000650
     11          6           0        0.977945    0.365917    0.000232
     12         16           0        2.613605   -0.046097   -0.000296
     13          8           0        2.823728   -1.552714   -0.000234
     14          1           0        0.878698   -2.443589    0.000684
     15          1           0       -3.250889   -2.682026   -0.000178
     16          1           0       -2.568054    1.732966   -0.000662
     17          1           0        1.423926    2.403596    0.000924
 ---------------------------------------------------------------------

 SCF Done:  E(UB3LYP) =  -998.964231420     A.U. after   24 cycles

 The electronic state is 2-A.
 Alpha  occ. eigenvalues --  -88.75804 -18.99459 -18.93308 -14.25165 -14.24790
 Alpha  occ. eigenvalues --  -14.18888 -14.17865 -10.20905 -10.14127 -10.09898
 Alpha  occ. eigenvalues --  -10.09325 -10.06807 -10.06757  -7.83951  -5.80326
 Alpha  occ. eigenvalues --   -5.79841  -5.79690  -0.96656  -0.88405  -0.85789
 Alpha  occ. eigenvalues --   -0.84328  -0.81971  -0.75113  -0.68324  -0.61414
 Alpha  occ. eigenvalues --   -0.57305  -0.54275  -0.49921  -0.47580  -0.44873
 Alpha  occ. eigenvalues --   -0.42720  -0.37705  -0.36567  -0.35878  -0.34078
 Alpha  occ. eigenvalues --   -0.32109  -0.30439  -0.29523  -0.27413  -0.27033
 Alpha  occ. eigenvalues --   -0.23231  -0.23083  -0.21147  -0.18773  -0.18171
 Alpha  occ. eigenvalues --   -0.17501  -0.14652  -0.13495  -0.10905  -0.07362
 Alpha  occ. eigenvalues --    0.00850
 Alpha virt. eigenvalues --    0.08717   0.09027   0.09845   0.10868   0.10969
 Alpha virt. eigenvalues --    0.12488   0.13683   0.14080   0.14752   0.15208
 Alpha virt. eigenvalues --    0.16261   0.16521   0.16675   0.17765   0.17784

  Beta  occ. eigenvalues --  -88.75668 -18.99455 -18.93010 -14.25123 -14.24721
  Beta  occ. eigenvalues --  -14.18916 -14.18032 -10.20908 -10.14011 -10.09468
  Beta  occ. eigenvalues --  -10.08927 -10.06826 -10.06432  -7.83829  -5.80257
  Beta  occ. eigenvalues --   -5.79779  -5.79255  -0.96611  -0.88231  -0.85292
  Beta  occ. eigenvalues --   -0.84052  -0.81738  -0.75029  -0.67893  -0.60913
  Beta  occ. eigenvalues --   -0.57057  -0.53849  -0.49492  -0.47265  -0.44679
  Beta  occ. eigenvalues --   -0.42487  -0.37522  -0.36184  -0.35585  -0.33906
  Beta  occ. eigenvalues --   -0.31939  -0.29801  -0.29216  -0.27173  -0.25651
  Beta  occ. eigenvalues --   -0.22698  -0.22589  -0.19839  -0.18731  -0.18129
  Beta  occ. eigenvalues --   -0.16555  -0.14163  -0.13532  -0.10552  -0.05189
  Beta virt. eigenvalues --    0.07137   0.09025   0.09187   0.09843   0.10864
  Beta virt. eigenvalues --    0.12513   0.12534   0.13727   0.14084   0.14760
  Beta virt. eigenvalues --    0.15238   0.16418   0.16531   0.17108   0.17810

 Mulliken charges and spin densities:
               1          2
     1  C   -0.289863   0.259757
     2  C    1.178158  -0.007853
     3  C   -0.166702   0.060379
     4  N   -0.132360  -0.035257
     5  C   -0.004791   0.281536
     6  N   -0.122439  -0.093825
     7  N   -0.494201   0.022907
     8  C    0.345808   0.004791
     9  O   -0.378186   0.001488
    10  N   -0.350981   0.036440
    11  C   -0.892632   0.227293
    12  S   -0.266051   0.214640
    13  O   -0.558555   0.073078
    14  H    0.314053  -0.017400
    15  H    0.167932  -0.021818
    16  H    0.341993  -0.000439
    17  H    0.308817  -0.005717
 Sum of Mulliken charges =  -1.00000   1.00000

 Dipole moment (field-independent basis, Debye):
    X=             -2.6832    Y=              3.6376    Z=              0.0007  Tot=              4.5201
 Quadrupole moment (field-independent basis, Debye-Ang):
   XX=           -112.5427   YY=           -120.3791   ZZ=            -86.0819
   XY=              8.0541   XZ=              0.0033   YZ=              0.0005

 Summary of Natural Population Analysis:

                                       Natural Population
                Natural  -----------------------------------------------
    Atom  No    Charge         Core      Valence    Rydberg      Total
 -----------------------------------------------------------------------
      C    1    0.12508      0.99957     1.86191    0.01344     2.87492
      C    2   -0.11841      0.99946     2.10772    0.01123     3.11841
      C    3    0.23783      0.99951     1.74859    0.01407     2.76217
      N    4   -0.28635      0.99967     2.77557    0.01111     3.78635
      C    5    0.21549      0.99968     1.76501    0.01981     2.78451
      N    6   -0.28839      0.99972     2.77780    0.01087     3.78839
      N    7   -0.30473      0.99963     2.79689    0.00822     3.80473
      C    8    0.40746      0.99972     1.57073    0.02208     2.59254
      O    9   -0.33454      0.99987     3.32848    0.00618     4.33454
      N   10   -0.30089      0.99963     2.79045    0.01081     3.80089
      C   11    0.04082      0.99956     1.94296    0.01666     2.95918
      S   12    0.47447      4.99932     2.46880    0.05741     7.52553
      O   13   -0.45279      0.99994     3.44064    0.01221     4.45279
      H   14    0.11304      0.00000     0.38580    0.00116     0.38696
      H   15    0.06954      0.00000     0.42921    0.00125     0.43046
      H   16    0.20309      0.00000     0.29439    0.00251     0.29691
      H   17    0.19926      0.00000     0.29895    0.00179     0.30074
 =======================================================================
   * Total *    0.00000     16.99529    32.78391    0.22080    50.00000

 Normal termination of Gaussian 16 at Wed Dec  9 23:09:31 2020.
