 Gaussian 16, Revision A.03,

 -----------------------------------------------------------
 # opt freq B3LYP/6-31G(d) empiricaldispersion=gd3bj scf=xqc
 -----------------------------------------------------------

 -------------------------------
 CID_102536461_JID_9148_neutraal
 -------------------------------
 Symbolic Z-matrix:
 Charge =  0 Multiplicity = 1

 SCF Done:  E(RB3LYP) =  -1161.57492458     A.U. after   14 cycles
 SCF Done:  E(RB3LYP) =  -1161.58301866     A.U. after   12 cycles
 SCF Done:  E(RB3LYP) =  -1161.58428391     A.U. after   12 cycles
 SCF Done:  E(RB3LYP) =  -1161.58489420     A.U. after   12 cycles
 SCF Done:  E(RB3LYP) =  -1161.58518762     A.U. after   11 cycles
 SCF Done:  E(RB3LYP) =  -1161.58534534     A.U. after   11 cycles
 SCF Done:  E(RB3LYP) =  -1161.58545753     A.U. after   11 cycles
 SCF Done:  E(RB3LYP) =  -1161.58549786     A.U. after   11 cycles
 SCF Done:  E(RB3LYP) =  -1161.58553280     A.U. after   11 cycles
 SCF Done:  E(RB3LYP) =  -1161.58554856     A.U. after   11 cycles
 SCF Done:  E(RB3LYP) =  -1161.58555958     A.U. after    9 cycles
 SCF Done:  E(RB3LYP) =  -1161.58555965     A.U. after    8 cycles
 SCF Done:  E(RB3LYP) =  -1161.58555968     A.U. after    7 cycles
 SCF Done:  E(RB3LYP) =  -1161.58555970     A.U. after    8 cycles
 SCF Done:  E(RB3LYP) =  -1161.58555971     A.U. after    7 cycles
 Optimization completed.
    -- Stationary point found.
 Normal termination of Gaussian 16 at Sat Dec 12 09:26:04 2020.

 --------------------------------------------------------------------
 #N Geom=AllCheck Guess=TCheck SCRF=Check GenChk RB3LYP/6-31G(d) Freq
 --------------------------------------------------------------------

 Structure from the checkpoint file:  "JID_9148.chk"
 -------------------------------
 CID_102536461_JID_9148_neutraal
 -------------------------------
 Charge =  0 Multiplicity = 1

 SCF Done:  E(RB3LYP) =  -1161.58555971     A.U. after    1 cycles

  Exact polarizability: 266.779  11.563 165.893   1.031   5.328 140.941
 Approx polarizability: 320.537  25.832 283.941   1.551  14.482 243.220

                      1                      2                      3
                      A                      A                      A
 Frequencies --     17.3657                18.5293                30.6290
 Red. masses --      4.5759                 4.9977                 4.8381
 Frc consts  --      0.0008                 0.0010                 0.0027
 IR Inten    --      0.1972                 0.1752                 0.9034

                      4                      5                      6
                      A                      A                      A
 Frequencies --     33.9710                66.0402                86.0276
 Red. masses --      4.3170                 3.8280                 5.7886
 Frc consts  --      0.0029                 0.0098                 0.0252
 IR Inten    --      0.0942                 0.9703                 0.1934

                      7                      8                      9
                      A                      A                      A
 Frequencies --    111.2174               128.9484               160.8156
 Red. masses --      3.3771                 3.0806                 3.8635
 Frc consts  --      0.0246                 0.0302                 0.0589
 IR Inten    --      0.1019                 3.9728                 1.8693

                     10                     11                     12
                      A                      A                      A
 Frequencies --    162.5215               189.5197               216.0196
 Red. masses --      3.5782                 3.6028                 5.1264
 Frc consts  --      0.0557                 0.0762                 0.1409
 IR Inten    --      0.4206                 1.0258                 1.4631

                     13                     14                     15
                      A                      A                      A
 Frequencies --    254.3648               307.6891               316.8652
 Red. masses --      1.6076                 2.7332                 3.1057
 Frc consts  --      0.0613                 0.1525                 0.1837
 IR Inten    --      0.0233                 1.6290                 0.2030

                     16                     17                     18
                      A                      A                      A
 Frequencies --    345.6733               383.9067               425.5226
 Red. masses --      4.6856                 3.5072                 4.2750
 Frc consts  --      0.3299                 0.3046                 0.4561
 IR Inten    --      0.8223                 2.0705                 0.4598

                     19                     20                     21
                      A                      A                      A
 Frequencies --    445.0553               506.0876               511.8508
 Red. masses --      5.0959                 4.9209                 4.6740
 Frc consts  --      0.5947                 0.7426                 0.7215
 IR Inten    --      0.1510                15.4425                 5.8316

                     22                     23                     24
                      A                      A                      A
 Frequencies --    544.7906               568.2133               584.2124
 Red. masses --      2.8148                 3.5169                 1.8476
 Frc consts  --      0.4922                 0.6690                 0.3715
 IR Inten    --      5.7997                 2.1469                 0.5270

                     25                     26                     27
                      A                      A                      A
 Frequencies --    624.3454               668.2248               671.3939
 Red. masses --      4.7471                 4.4431                 8.3784
 Frc consts  --      1.0903                 1.1689                 2.2252
 IR Inten    --      4.3787                 2.5612                 3.9537

                     28                     29                     30
                      A                      A                      A
 Frequencies --    689.1697               708.6529               747.8962
 Red. masses --      2.8401                 1.3165                 6.1033
 Frc consts  --      0.7948                 0.3895                 2.0114
 IR Inten    --      1.0496                73.2244                 3.3005

                     31                     32                     33
                      A                      A                      A
 Frequencies --    774.7529               798.5940               816.2778
 Red. masses --      2.2649                 1.8689                 4.6130
 Frc consts  --      0.8010                 0.7022                 1.8110
 IR Inten    --      0.8391                97.5252                47.0215

                     34                     35                     36
                      A                      A                      A
 Frequencies --    837.8306               846.0843               866.1684
 Red. masses --      1.7548                 2.4993                 3.9010
 Frc consts  --      0.7258                 1.0541                 1.7244
 IR Inten    --     10.5447                 4.5099                 4.7936

                     37                     38                     39
                      A                      A                      A
 Frequencies --    877.5498               887.8440               909.2679
 Red. masses --      2.1489                 1.9682                 1.3241
 Frc consts  --      0.9750                 0.9141                 0.6450
 IR Inten    --     10.0000                 1.5988                 0.4663

                     40                     41                     42
                      A                      A                      A
 Frequencies --    927.1067               928.5410               937.8199
 Red. masses --      2.4744                 2.2673                 1.4300
 Frc consts  --      1.2531                 1.1518                 0.7410
 IR Inten    --      2.8992                 4.8119                 1.2019

                     43                     44                     45
                      A                      A                      A
 Frequencies --    962.4711               985.5796               990.2822
 Red. masses --      1.5441                 1.6093                 1.8530
 Frc consts  --      0.8427                 0.9210                 1.0706
 IR Inten    --     13.3733                 2.5733                16.5246

                     46                     47                     48
                      A                      A                      A
 Frequencies --   1001.8322              1025.7903              1057.1426
 Red. masses --      1.3698                 2.7151                 3.8318
 Frc consts  --      0.8100                 1.6832                 2.5230
 IR Inten    --      0.2789                 5.0857                 1.8994

                     49                     50                     51
                      A                      A                      A
 Frequencies --   1060.1386              1080.6187              1093.2185
 Red. masses --      1.7945                 2.1937                 1.6887
 Frc consts  --      1.1883                 1.5093                 1.1891
 IR Inten    --     19.4004                 2.6459                 5.2323

                     52                     53                     54
                      A                      A                      A
 Frequencies --   1117.1170              1133.8913              1161.5253
 Red. masses --      1.2392                 4.5875                 1.7231
 Frc consts  --      0.9112                 3.4751                 1.3697
 IR Inten    --      1.8654                63.7210                 4.3024

                     55                     56                     57
                      A                      A                      A
 Frequencies --   1169.9295              1192.2527              1213.7363
 Red. masses --      2.8764                 1.7422                 1.4804
 Frc consts  --      2.3197                 1.4591                 1.2849
 IR Inten    --     10.5518                 6.9881                 0.7128

                     58                     59                     60
                      A                      A                      A
 Frequencies --   1220.9400              1231.9871              1260.1131
 Red. masses --      2.2536                 1.3823                 1.8649
 Frc consts  --      1.9793                 1.2362                 1.7447
 IR Inten    --     10.3190                 4.9555                27.1298

                     61                     62                     63
                      A                      A                      A
 Frequencies --   1260.4637              1270.8912              1276.3679
 Red. masses --      1.3839                 1.9957                 1.3380
 Frc consts  --      1.2955                 1.8992                 1.2843
 IR Inten    --     13.1154                 5.1660                 6.3423

                     64                     65                     66
                      A                      A                      A
 Frequencies --   1290.0348              1326.2108              1333.7525
 Red. masses --      1.9438                 1.3511                 1.5364
 Frc consts  --      1.9060                 1.4001                 1.6103
 IR Inten    --      0.6790                19.5982                12.9049

                     67                     68                     69
                      A                      A                      A
 Frequencies --   1336.6874              1365.4731              1376.9053
 Red. masses --      1.4143                 1.2770                 1.2776
 Frc consts  --      1.4889                 1.4029                 1.4271
 IR Inten    --      2.8076                 1.5032                91.1241

                     70                     71                     72
                      A                      A                      A
 Frequencies --   1387.0122              1389.7576              1405.4485
 Red. masses --      1.4820                 1.5432                 2.0044
 Frc consts  --      1.6798                 1.7561                 2.3327
 IR Inten    --    107.1394                10.4911                 1.8372

                     73                     74                     75
                      A                      A                      A
 Frequencies --   1411.6739              1444.9984              1455.5902
 Red. masses --      1.6104                 2.5844                 2.4244
 Frc consts  --      1.8908                 3.1794                 3.0264
 IR Inten    --     27.1928                 6.3704                 1.4855

                     76                     77                     78
                      A                      A                      A
 Frequencies --   1494.6679              1496.1333              1512.8152
 Red. masses --      1.1466                 4.8205                 1.2220
 Frc consts  --      1.5092                 6.3575                 1.6477
 IR Inten    --      6.0772                 4.5889               109.1624

                     79                     80                     81
                      A                      A                      A
 Frequencies --   1520.0341              1527.0932              1544.5388
 Red. masses --      1.0906                 1.1103                 1.0908
 Frc consts  --      1.4846                 1.5255                 1.5332
 IR Inten    --      2.9551                42.9963                 1.3487

                     82                     83                     84
                      A                      A                      A
 Frequencies --   1547.7913              1556.8285              1579.9083
 Red. masses --      1.0824                 1.2203                 4.9016
 Frc consts  --      1.5278                 1.7427                 7.2086
 IR Inten    --      0.9755               202.8835               517.1861

                     85                     86                     87
                      A                      A                      A
 Frequencies --   1588.1343              1597.7926              1670.4279
 Red. masses --      5.8699                 5.1652                 5.6046
 Frc consts  --      8.7227                 7.7692                 9.2140
 IR Inten    --    261.3751                 0.4198               416.5745

                     88                     89                     90
                      A                      A                      A
 Frequencies --   2977.9041              3027.0458              3027.0715
 Red. masses --      1.0669                 1.0722                 1.0927
 Frc consts  --      5.5742                 5.7883                 5.8992
 IR Inten    --     40.2388                78.4385                34.0384

                     91                     92                     93
                      A                      A                      A
 Frequencies --   3029.8145              3053.0204              3060.1642
 Red. masses --      1.0739                 1.0593                 1.0691
 Frc consts  --      5.8085                 5.8177                 5.8988
 IR Inten    --     12.4925                38.5212                21.0157

                     94                     95                     96
                      A                      A                      A
 Frequencies --   3065.7152              3095.9008              3109.7738
 Red. masses --      1.0619                 1.1057                 1.0922
 Frc consts  --      5.8801                 6.2438                 6.2233
 IR Inten    --     30.9585                17.3692                33.7936

                     97                     98                     99
                      A                      A                      A
 Frequencies --   3111.4773              3118.7085              3126.3364
 Red. masses --      1.0912                 1.0983                 1.1052
 Frc consts  --      6.2243                 6.2942                 6.3646
 IR Inten    --     16.5703                37.3513                49.8992

                    100                    101                    102
                      A                      A                      A
 Frequencies --   3145.0035              3174.6240              3206.0827
 Red. masses --      1.0906                 1.0910                 1.0899
 Frc consts  --      6.3554                 6.4780                 6.6008
 IR Inten    --     35.0273                21.0631                 7.7742

                    103                    104                    105
                      A                      A                      A
 Frequencies --   3226.4126              3271.1408              3487.1258
 Red. masses --      1.0937                 1.0970                 1.0741
 Frc consts  --      6.7081                 6.9160                 7.6951
 IR Inten    --      9.5909                 1.4574                 0.1861

 - Thermochemistry -
 -------------------
 Temperature   298.150 Kelvin.  Pressure   1.00000 Atm.
 Atom     1 has atomic number  6 and mass  12.00000

 Molecular mass:   274.12522 amu.
 Principal axes and moments of inertia in atomic units:
                           1         2         3
     Eigenvalues --  1535.14186********************
           X            0.99999  -0.00287  -0.00142
           Y            0.00286   0.99997  -0.00748
           Z            0.00144   0.00748   0.99997
 This molecule is an asymmetric top.
 Rotational symmetry number  1.
 Warning -- assumption of classical behavior for rotation
           may cause significant error
 Rotational temperatures (Kelvin)      0.05642     0.00512     0.00494
 Rotational constants (GHZ):           1.17562     0.10669     0.10297
 Zero-point vibrational energy     814493.5 (Joules/Mol)
                                  194.66862 (Kcal/Mol)
 Warning -- explicit consideration of  24 degrees of freedom as
           vibrations may cause significant error
 Vibrational temperatures:     24.99    26.66    44.07    48.88    95.02
          (Kelvin)            123.77   160.02   185.53   231.38   233.83
                              272.68   310.80   365.97   442.70   455.90
                              497.35   552.36   612.23   640.34   728.15
                              736.44   783.83   817.53   840.55   898.29
                              961.43   965.99   991.56  1019.59  1076.06
                             1114.70  1149.00  1174.44  1205.45  1217.33
                             1246.22  1262.60  1277.41  1308.23  1333.90
                             1335.96  1349.31  1384.78  1418.03  1424.80
                             1441.41  1475.88  1520.99  1525.30  1554.77
                             1572.90  1607.28  1631.42  1671.18  1683.27
                             1715.39  1746.30  1756.66  1772.55  1813.02
                             1813.53  1828.53  1836.41  1856.07  1908.12
                             1918.97  1923.20  1964.61  1981.06  1995.60
                             1999.55  2022.13  2031.08  2079.03  2094.27
                             2150.49  2152.60  2176.60  2186.99  2197.15
                             2222.25  2226.93  2239.93  2273.14  2284.97
                             2298.87  2403.37  4284.54  4355.24  4355.28
                             4359.23  4392.62  4402.89  4410.88  4454.31
                             4474.27  4476.72  4487.13  4498.10  4524.96
                             4567.58  4612.84  4642.09  4706.44  5017.20

 Zero-point correction=                           0.310224 (Hartree/Particle)
 Thermal correction to Energy=                    0.327549
 Thermal correction to Enthalpy=                  0.328493
 Thermal correction to Gibbs Free Energy=         0.260830
 Sum of electronic and zero-point Energies=          -1161.275336
 Sum of electronic and thermal Energies=             -1161.258010
 Sum of electronic and thermal Enthalpies=           -1161.257066
 Sum of electronic and thermal Free Energies=        -1161.324730

                     E (Thermal)             CV                S
                      KCal/Mol        Cal/Mol-Kelvin    Cal/Mol-Kelvin
 Total                  205.540             65.319            142.410
 Electronic               0.000              0.000              0.000
 Translational            0.889              2.981             42.724
 Rotational               0.889              2.981             34.475
 Vibrational            203.763             59.358             65.211
 Vibration     1          0.593              1.986              6.915
 Vibration     2          0.593              1.986              6.786
 Vibration     3          0.594              1.984              5.788
 Vibration     4          0.594              1.983              5.583
 Vibration     5          0.597              1.970              4.268
 Vibration     6          0.601              1.959              3.748
 Vibration     7          0.607              1.940              3.248
 Vibration     8          0.611              1.924              2.962
 Vibration     9          0.622              1.890              2.540
 Vibration    10          0.623              1.888              2.520
 Vibration    11          0.633              1.854              2.233
 Vibration    12          0.645              1.817              1.992
 Vibration    13          0.665              1.755              1.700
 Vibration    14          0.698              1.659              1.375
 Vibration    15          0.704              1.641              1.326
 Vibration    16          0.724              1.584              1.186
 Vibration    17          0.753              1.505              1.024
 Vibration    18          0.787              1.415              0.873
 Vibration    19          0.804              1.372              0.811
 Vibration    20          0.861              1.237              0.643
 Vibration    21          0.867              1.224              0.629
 Vibration    22          0.900              1.151              0.555
 Vibration    23          0.924              1.100              0.508
 Vibration    24          0.941              1.065              0.478

 Optimization completed.
    -- Stationary point found.
 Normal termination of Gaussian 16 at Sat Dec 12 09:40:30 2020.

 ----------------------------------------------------------------------
 # B3LYP/6-311++G(d,p) empiricaldispersion=gd3bj scf=xqc pop=npa geom=c
 heck
 ----------------------------------------------------------------------

 ---------------------------------------
 CID_102536461_JID_9148_Energie_neutraal
 ---------------------------------------
 Structure from the checkpoint file:  "JID_9148.chk"
 Charge =  0 Multiplicity = 1

 SCF Done:  E(RB3LYP) =  -1161.81350643     A.U. after   15 cycles
 Normal termination of Gaussian 16 at Sat Dec 12 09:46:21 2020.

 ----------------------------------------------------------------------
 # B3LYP/6-311++G(d,p) empiricaldispersion=gd3bj scf=xqc pop=npa geom=c
 heck
 ----------------------------------------------------------------------

 -------------------------------------
 CID_102536461_JID_9148_Energie_kation
 -------------------------------------
 Structure from the checkpoint file:  "JID_9148.chk"
 Charge =  1 Multiplicity = 2

 SCF Done:  E(UB3LYP) =  -1161.54907490     A.U. after   25 cycles
 Normal termination of Gaussian 16 at Sat Dec 12 09:59:45 2020.
 Gaussian 16:  ES64L-G16RevA.03 25-Dec-2016

 ----------------------------------------------------------------------
 # B3LYP/6-311++G(d,p) empiricaldispersion=gd3bj scf=xqc pop=npa geom=c
 heck
 ----------------------------------------------------------------------

 ------------------------------------
 CID_102536461_JID_9148_Energie_anion
 ------------------------------------
 Structure from the checkpoint file:  "JID_9148.chk"
 Charge = -1 Multiplicity = 2

                         Standard orientation:
 ---------------------------------------------------------------------
 Center     Atomic      Atomic             Coordinates (Angstroms)
 Number     Number       Type             X           Y           Z
 ---------------------------------------------------------------------
      1          6           0        6.159649   -1.180338    0.630172
      2          6           0        6.426289    0.247163    0.125015
      3          6           0        5.058425    0.931031    0.259191
      4          7           0        4.119159   -0.172516    0.059714
      5          6           0        4.755130   -1.489183    0.092692
      6          6           0        2.790557    0.006092   -0.133293
      7          7           0        2.041753   -1.102563   -0.334727
      8          6           0        0.739917   -0.893219   -0.525868
      9          6           0        0.146249    0.369429   -0.535860
     10          6           0        1.026639    1.434247   -0.304049
     11          7           0        2.331727    1.282286   -0.102319
     12          6           0       -1.326904    0.576904   -0.759572
     13          7           0       -1.900242    1.387563    0.318365
     14          6           0       -3.327591    1.690209    0.171018
     15          6           0       -4.276382    0.526427    0.317954
     16          6           0       -4.892927    0.094151    1.464839
     17          6           0       -5.687470   -1.078119    1.283067
     18          6           0       -5.671661   -1.531380   -0.006990
     19         16           0       -4.680426   -0.527399   -1.017961
     20          1           0        6.904815   -1.906068    0.292170
     21          1           0        6.149801   -1.193743    1.726611
     22          1           0        6.727635    0.221208   -0.928999
     23          1           0        7.209090    0.766144    0.685447
     24          1           0        4.921186    1.380381    1.252809
     25          1           0        4.888736    1.720039   -0.478174
     26          1           0        4.789305   -1.926821   -0.914977
     27          1           0        4.185421   -2.176482    0.723858
     28          1           0        0.130599   -1.784907   -0.681586
     29          1           0        0.645173    2.453668   -0.269217
     30          1           0       -1.502573    1.126438   -1.696164
     31          1           0       -1.812788   -0.405804   -0.885127
     32          1           0       -1.749251    0.907470    1.204632
     33          1           0       -3.588343    2.431956    0.934772
     34          1           0       -3.460939    2.177166   -0.802293
     35          1           0       -4.785184    0.609691    2.414186
     36          1           0       -6.250261   -1.557180    2.076717
     37          1           0       -6.181903   -2.388649   -0.424429
 ---------------------------------------------------------------------

 SCF Done:  E(UB3LYP) =  -1161.80369817     A.U. after   33 cycles
 SCF Done:  E(UB3LYP) =  -1161.80369817     a.u. after    1 cycles

 The electronic state is 2-A.
 Alpha  occ. eigenvalues --  -88.77381 -14.22913 -14.20658 -14.19007 -14.18917
 Alpha  occ. eigenvalues --  -10.15617 -10.11183 -10.10302 -10.10283 -10.10169
 Alpha  occ. eigenvalues --  -10.09758 -10.09704 -10.09662 -10.09542 -10.08026
 Alpha  occ. eigenvalues --  -10.07867 -10.07844 -10.07531 -10.06648  -7.86020
 Alpha  occ. eigenvalues --   -5.82302  -5.81941  -5.81636  -0.89438  -0.83144
 Alpha  occ. eigenvalues --   -0.81739  -0.77838  -0.77216  -0.71062  -0.67592
 Alpha  occ. eigenvalues --   -0.64318  -0.64158  -0.63652  -0.59176  -0.55703
 Alpha  occ. eigenvalues --   -0.54628  -0.52667  -0.49501  -0.48082  -0.46693
 Alpha  occ. eigenvalues --   -0.44429  -0.43984  -0.41991  -0.41328  -0.39922
 Alpha  occ. eigenvalues --   -0.39109  -0.35986  -0.34990  -0.33925  -0.33242
 Alpha  occ. eigenvalues --   -0.33038  -0.31541  -0.30893  -0.30476  -0.30151
 Alpha  occ. eigenvalues --   -0.29692  -0.29212  -0.29022  -0.28412  -0.27407
 Alpha  occ. eigenvalues --   -0.26516  -0.25818  -0.25785  -0.24488  -0.24101
 Alpha  occ. eigenvalues --   -0.20386  -0.19858  -0.19227  -0.16088  -0.15112
 Alpha  occ. eigenvalues --   -0.13590  -0.13088  -0.10574   0.04262
 Alpha virt. eigenvalues --    0.05367   0.06048   0.06474   0.07332   0.07618
 Alpha virt. eigenvalues --    0.07878   0.07969   0.08643   0.08735   0.09628
 Alpha virt. eigenvalues --    0.10217   0.10349   0.10733   0.10886   0.11346

  Beta  occ. eigenvalues --  -88.77361 -14.22917 -14.20643 -14.18901 -14.18820
  Beta  occ. eigenvalues --  -10.15630 -10.11184 -10.10294 -10.10275 -10.10167
  Beta  occ. eigenvalues --  -10.09646 -10.09553 -10.09504 -10.09395 -10.08026
  Beta  occ. eigenvalues --  -10.07842 -10.07819 -10.07512 -10.06696  -7.86001
  Beta  occ. eigenvalues --   -5.82296  -5.81934  -5.81565  -0.89344  -0.83061
  Beta  occ. eigenvalues --   -0.81684  -0.77692  -0.76970  -0.70996  -0.67520
  Beta  occ. eigenvalues --   -0.64145  -0.64100  -0.63535  -0.59074  -0.55636
  Beta  occ. eigenvalues --   -0.54365  -0.52613  -0.49402  -0.48026  -0.46518
  Beta  occ. eigenvalues --   -0.44264  -0.43927  -0.41928  -0.41254  -0.39881
  Beta  occ. eigenvalues --   -0.39044  -0.35905  -0.34882  -0.33798  -0.33221
  Beta  occ. eigenvalues --   -0.32949  -0.31459  -0.30823  -0.30408  -0.30066
  Beta  occ. eigenvalues --   -0.29589  -0.29126  -0.28894  -0.28244  -0.27083
  Beta  occ. eigenvalues --   -0.26463  -0.25778  -0.25741  -0.24359  -0.24062
  Beta  occ. eigenvalues --   -0.19725  -0.19585  -0.18989  -0.15756  -0.14719
  Beta  occ. eigenvalues --   -0.13395  -0.12734  -0.10375
  Beta virt. eigenvalues --    0.06189   0.06321   0.06892   0.07516   0.07707
  Beta virt. eigenvalues --    0.08080   0.08166   0.08206   0.08729   0.08854
  Beta virt. eigenvalues --    0.09634   0.10294   0.10482   0.10779   0.10991

 Mulliken charges and spin densities:
               1          2
     1  C    0.119174  -0.521884
     2  C    0.204166  -0.618395
     3  C    0.037453  -0.205029
     4  N    0.027592   0.078702
     5  C    0.049545  -0.220672
     6  C   -0.546169   0.127941
     7  N   -0.155346   0.053972
     8  C   -0.226242   0.240516
     9  C    0.081894  -0.068965
    10  C   -0.153835   0.056412
    11  N   -0.145145   0.061108
    12  C   -0.288553  -0.142452
    13  N    0.112071   0.014166
    14  C   -0.391111  -0.539489
    15  C    0.108409   0.378689
    16  C    0.079920  -0.047835
    17  C   -0.223712  -0.294321
    18  C   -0.161167   0.105949
    19  S   -0.010480   0.167836
    20  H   -0.347069   0.505655
    21  H    0.004241   0.136320
    22  H    0.000549   0.138560
    23  H   -0.360721   0.521046
    24  H    0.075063   0.100897
    25  H    0.121733   0.060700
    26  H    0.100493   0.071170
    27  H    0.106965   0.078482
    28  H    0.160437   0.009198
    29  H    0.144340   0.049563
    30  H    0.128920   0.022598
    31  H    0.049632  -0.048512
    32  H    0.180926   0.013892
    33  H   -0.064888   0.255761
    34  H    0.049348   0.115749
    35  H   -0.083278   0.234133
    36  H    0.045893   0.068916
    37  H    0.168951   0.039619
 Sum of Mulliken charges =  -1.00000   1.00000

 Dipole moment (field-independent basis, Debye):
    X=             -5.1034    Y=             -0.6599    Z=             -1.1628  Tot=              5.2756
 Quadrupole moment (field-independent basis, Debye-Ang):
   XX=           -266.5714   YY=           -148.7355   ZZ=           -139.9663
   XY=              9.0417   XZ=             -1.3882   YZ=             -2.8537

 Summary of Natural Population Analysis:

                                       Natural Population
                Natural  -----------------------------------------------
    Atom  No    Charge         Core      Valence    Rydberg      Total
 -----------------------------------------------------------------------
      C    1   -0.19603      0.99964     2.18777    0.00863     3.19603
      C    2   -0.19589      0.99964     2.18766    0.00859     3.19589
      C    3   -0.07939      0.99963     2.06858    0.01118     3.07939
      N    4   -0.24712      0.99963     2.73852    0.00898     3.74712
      C    5   -0.07945      0.99963     2.06864    0.01118     3.07945
      C    6    0.30272      0.99958     1.68118    0.01652     2.69728
      N    7   -0.26317      0.99968     2.75411    0.00937     3.76317
      C    8    0.07641      0.99955     1.90976    0.01428     2.92359
      C    9   -0.10081      0.99949     2.09314    0.00818     3.10081
      C   10    0.07777      0.99955     1.90883    0.01385     2.92223
      N   11   -0.25998      0.99968     2.75096    0.00934     3.75998
      C   12   -0.09372      0.99960     2.08407    0.01005     3.09372
      N   13   -0.33076      0.99976     2.81956    0.01145     3.83076
      C   14   -0.10610      0.99956     2.09163    0.01490     3.10610
      C   15   -0.08587      0.99950     2.07374    0.01264     3.08587
      C   16   -0.13377      0.99946     2.12332    0.01099     3.13377
      C   17   -0.13258      0.99954     2.12296    0.01008     3.13258
      C   18   -0.17797      0.99955     2.16692    0.01151     3.17797
      S   19    0.20187      4.99940     2.77777    0.02095     7.79813
      H   20    0.10225      0.00000     0.39645    0.00130     0.39775
      H   21    0.09632      0.00000     0.40247    0.00121     0.40368
      H   22    0.09585      0.00000     0.40296    0.00119     0.40415
      H   23    0.10259      0.00000     0.39605    0.00137     0.39741
      H   24    0.09196      0.00000     0.40666    0.00138     0.40804
      H   25    0.10344      0.00000     0.39509    0.00147     0.39656
      H   26    0.09133      0.00000     0.40728    0.00138     0.40867
      H   27    0.10375      0.00000     0.39475    0.00150     0.39625
      H   28    0.08442      0.00000     0.41424    0.00134     0.41558
      H   29    0.09084      0.00000     0.40771    0.00145     0.40916
      H   30    0.09102      0.00000     0.40772    0.00126     0.40898
      H   31    0.08779      0.00000     0.41010    0.00211     0.41221
      H   32    0.17206      0.00000     0.32539    0.00256     0.32794
      H   33    0.10267      0.00000     0.39610    0.00123     0.39733
      H   34    0.09703      0.00000     0.40181    0.00116     0.40297
      H   35    0.10399      0.00000     0.39494    0.00107     0.39601
      H   36    0.10259      0.00000     0.39655    0.00086     0.39741
      H   37    0.10395      0.00000     0.39519    0.00086     0.39605
 =======================================================================
   * Total *    0.00000     22.99208    49.76058    0.24734    73.00000

 Normal termination of Gaussian 16 at Sat Dec 12 10:17:10 2020.
