 Gaussian 16, Revision A.03,

 -----------------------------------------------------------
 # opt freq B3LYP/6-31G(d) empiricaldispersion=gd3bj scf=xqc
 -----------------------------------------------------------

 -------------------------------
 CID_130420312_JID_6365_neutraal
 -------------------------------
 Symbolic Z-matrix:
 Charge =  0 Multiplicity = 1

 SCF Done:  E(RB3LYP) =  -802.396762739     A.U. after   14 cycles
 SCF Done:  E(RB3LYP) =  -802.402549931     A.U. after   12 cycles
 SCF Done:  E(RB3LYP) =  -802.403654181     A.U. after   12 cycles
 SCF Done:  E(RB3LYP) =  -802.403937312     A.U. after   12 cycles
 SCF Done:  E(RB3LYP) =  -802.404277871     A.U. after   12 cycles
 SCF Done:  E(RB3LYP) =  -802.404472928     A.U. after   11 cycles
 SCF Done:  E(RB3LYP) =  -802.404494505     A.U. after   11 cycles
 SCF Done:  E(RB3LYP) =  -802.404523532     A.U. after   10 cycles
 SCF Done:  E(RB3LYP) =  -802.404529068     A.U. after    8 cycles
 SCF Done:  E(RB3LYP) =  -802.404531087     A.U. after    8 cycles
 SCF Done:  E(RB3LYP) =  -802.404531674     A.U. after    8 cycles
 SCF Done:  E(RB3LYP) =  -802.404531977     A.U. after    8 cycles
 SCF Done:  E(RB3LYP) =  -802.404532094     A.U. after    7 cycles
 Optimization completed.
    -- Stationary point found.
 Normal termination of Gaussian 16 at Thu Dec 10 22:25:14 2020.

 --------------------------------------------------------------------
 #N Geom=AllCheck Guess=TCheck SCRF=Check GenChk RB3LYP/6-31G(d) Freq
 --------------------------------------------------------------------

 Structure from the checkpoint file:  "JID_6365.chk"
 -------------------------------
 CID_130420312_JID_6365_neutraal
 -------------------------------
 Charge =  0 Multiplicity = 1

 SCF Done:  E(RB3LYP) =  -802.404532094     A.U. after    1 cycles

  Exact polarizability: 148.839  -9.128 119.348  -1.824  -3.943 109.863
 Approx polarizability: 181.814 -13.963 178.273  -0.280 -10.838 171.966

                      1                      2                      3
                      A                      A                      A
 Frequencies --     37.2524                43.9829                61.8628
 Red. masses --      4.2676                 3.9750                 5.4132
 Frc consts  --      0.0035                 0.0045                 0.0122
 IR Inten    --      1.5259                 1.1836                 1.3216

                      4                      5                      6
                      A                      A                      A
 Frequencies --     87.9505                98.4634               120.6098
 Red. masses --      5.8568                 5.0201                 6.2060
 Frc consts  --      0.0267                 0.0287                 0.0532
 IR Inten    --      0.6699                 0.2173                 0.8116

                      7                      8                      9
                      A                      A                      A
 Frequencies --    141.0656               188.2354               212.8383
 Red. masses --      3.7585                 2.6226                 1.1029
 Frc consts  --      0.0441                 0.0548                 0.0294
 IR Inten    --      0.4884                 3.1184                 0.1023

                     10                     11                     12
                      A                      A                      A
 Frequencies --    217.7897               254.4573               276.9013
 Red. masses --      3.5778                 1.0701                 1.3222
 Frc consts  --      0.1000                 0.0408                 0.0597
 IR Inten    --      4.3566                 0.2251                 0.9072

                     13                     14                     15
                      A                      A                      A
 Frequencies --    278.2508               322.6324               329.7887
 Red. masses --      2.5429                 3.2898                 4.9115
 Frc consts  --      0.1160                 0.2018                 0.3147
 IR Inten    --      3.9086                 3.2199                19.6633

                     16                     17                     18
                      A                      A                      A
 Frequencies --    333.0742               352.8989               388.8417
 Red. masses --      2.2184                 2.5181                 3.0358
 Frc consts  --      0.1450                 0.1848                 0.2704
 IR Inten    --      2.1493                 1.6010                 6.3473

                     19                     20                     21
                      A                      A                      A
 Frequencies --    415.9916               435.7314               462.9351
 Red. masses --      5.0521                 2.8347                 2.9686
 Frc consts  --      0.5151                 0.3171                 0.3748
 IR Inten    --      1.7416                 1.3804                 2.3039

                     22                     23                     24
                      A                      A                      A
 Frequencies --    487.1295               511.1591               523.1281
 Red. masses --      2.1502                 2.1141                 1.8299
 Frc consts  --      0.3006                 0.3255                 0.2950
 IR Inten    --     27.0116                16.0211                94.0316

                     25                     26                     27
                      A                      A                      A
 Frequencies --    541.6129               577.2986               616.9604
 Red. masses --      3.1085                 3.6657                 2.2540
 Frc consts  --      0.5372                 0.7198                 0.5055
 IR Inten    --     42.3627                 1.7604                20.8984

                     28                     29                     30
                      A                      A                      A
 Frequencies --    653.8052               670.3363               714.5914
 Red. masses --      1.8518                 2.7537                 2.5393
 Frc consts  --      0.4664                 0.7290                 0.7640
 IR Inten    --     55.5947                 6.1081                75.0684

                     31                     32                     33
                      A                      A                      A
 Frequencies --    744.6352               768.1156               803.3069
 Red. masses --      2.0648                 7.9705                 3.8167
 Frc consts  --      0.6746                 2.7707                 1.4511
 IR Inten    --     14.0368                26.3945                18.8511

                     34                     35                     36
                      A                      A                      A
 Frequencies --    860.6775               881.2083               898.2493
 Red. masses --      5.0167                 3.5082                 2.6525
 Frc consts  --      2.1895                 1.6050                 1.2610
 IR Inten    --     21.0395                 3.3459                 4.2576

                     37                     38                     39
                      A                      A                      A
 Frequencies --    911.0350               939.0841               939.4984
 Red. masses --      2.5113                 1.6286                 1.6273
 Frc consts  --      1.2281                 0.8462                 0.8463
 IR Inten    --      8.9549                 0.0632                 0.2421

                     40                     41                     42
                      A                      A                      A
 Frequencies --    985.7649              1006.2536              1009.6497
 Red. masses --      1.1994                 2.8134                 2.0416
 Frc consts  --      0.6867                 1.6784                 1.2262
 IR Inten    --      0.2918                 6.7525                35.3402

                     43                     44                     45
                      A                      A                      A
 Frequencies --   1060.1227              1068.7670              1075.8503
 Red. masses --      2.3261                 1.4072                 1.5744
 Frc consts  --      1.5402                 0.9470                 1.0736
 IR Inten    --     19.6196                 0.4188                 0.1079

                     46                     47                     48
                      A                      A                      A
 Frequencies --   1098.8626              1128.5694              1161.0856
 Red. masses --      2.3969                 1.9080                 3.1275
 Frc consts  --      1.7052                 1.4318                 2.4841
 IR Inten    --     86.5173                 6.7192                 8.8401

                     49                     50                     51
                      A                      A                      A
 Frequencies --   1176.3568              1224.7003              1241.9373
 Red. masses --      2.9894                 2.2179                 1.7243
 Frc consts  --      2.4373                 1.9599                 1.5670
 IR Inten    --     97.0254               289.2102                19.9181

                     52                     53                     54
                      A                      A                      A
 Frequencies --   1263.8178              1271.9455              1288.8912
 Red. masses --      1.1959                 1.3178                 2.6985
 Frc consts  --      1.1255                 1.2561                 2.6412
 IR Inten    --     14.9942                10.4064                17.4147

                     55                     56                     57
                      A                      A                      A
 Frequencies --   1299.6761              1331.1940              1334.3690
 Red. masses --      2.6638                 1.2981                 1.6160
 Frc consts  --      2.6511                 1.3553                 1.6953
 IR Inten    --     42.2027                16.5017               133.3366

                     58                     59                     60
                      A                      A                      A
 Frequencies --   1366.3756              1381.9365              1385.2846
 Red. masses --      1.2905                 3.0009                 1.6054
 Frc consts  --      1.4196                 3.3765                 1.8151
 IR Inten    --     16.9045               454.1942                17.3748

                     61                     62                     63
                      A                      A                      A
 Frequencies --   1410.7071              1423.1951              1425.2243
 Red. masses --      1.5695                 1.3943                 1.4358
 Frc consts  --      1.8403                 1.6639                 1.7183
 IR Inten    --    114.0179                 5.8884                21.9944

                     64                     65                     66
                      A                      A                      A
 Frequencies --   1428.6686              1452.3018              1475.0427
 Red. masses --      1.4346                 1.2368                 1.4895
 Frc consts  --      1.7253                 1.5370                 1.9094
 IR Inten    --     52.2812                29.2378                33.8416

                     67                     68                     69
                      A                      A                      A
 Frequencies --   1499.4114              1502.4304              1504.7278
 Red. masses --      1.0471                 1.4600                 1.4969
 Frc consts  --      1.3870                 1.9417                 1.9970
 IR Inten    --      1.0904                25.8710                 6.9553

                     70                     71                     72
                      A                      A                      A
 Frequencies --   1515.1766              1521.0453              1521.2868
 Red. masses --      1.4122                 1.0515                 1.0505
 Frc consts  --      1.9102                 1.4333                 1.4324
 IR Inten    --     13.3241                 0.8326                 1.1885

                     73                     74                     75
                      A                      A                      A
 Frequencies --   1523.9210              1536.2276              1558.7982
 Red. masses --      1.0647                 1.0519                 1.0562
 Frc consts  --      1.4568                 1.4626                 1.5121
 IR Inten    --     12.0389                 1.3846                17.1029

                     76                     77                     78
                      A                      A                      A
 Frequencies --   1564.0592              1784.0479              1815.3733
 Red. masses --      1.1294                 8.0091                 8.3456
 Frc consts  --      1.6279                15.0192                16.2047
 IR Inten    --      9.6315               277.4258               413.0961

                     79                     80                     81
                      A                      A                      A
 Frequencies --   2965.1267              3023.5670              3056.6292
 Red. masses --      1.0814                 1.0711                 1.0361
 Frc consts  --      5.6016                 5.7693                 5.7035
 IR Inten    --     47.2293                40.1605                12.2486

                     82                     83                     84
                      A                      A                      A
 Frequencies --   3060.2148              3068.2779              3068.8090
 Red. masses --      1.0374                 1.0650                 1.0398
 Frc consts  --      5.7238                 5.9071                 5.7693
 IR Inten    --     21.8674                13.1735                23.9039

                     85                     86                     87
                      A                      A                      A
 Frequencies --   3090.1732              3119.8676              3123.8529
 Red. masses --      1.0918                 1.1024                 1.1021
 Frc consts  --      6.1429                 6.3219                 6.3363
 IR Inten    --     46.2537                13.1122                18.5887

                     88                     89                     90
                      A                      A                      A
 Frequencies --   3132.7061              3133.2289              3139.9607
 Red. masses --      1.1018                 1.1031                 1.1013
 Frc consts  --      6.3710                 6.3802                 6.3974
 IR Inten    --     21.3839                14.8471                50.1610

                     91                     92                     93
                      A                      A                      A
 Frequencies --   3152.9518              3171.6451              3176.3522
 Red. masses --      1.0862                 1.1013                 1.0991
 Frc consts  --      6.3617                 6.5269                 6.5336
 IR Inten    --      4.7867                 3.2713                 8.7165

                     94                     95                     96
                      A                      A                      A
 Frequencies --   3576.3670              3590.6784              3602.9665
 Red. masses --      1.0757                 1.0748                 1.0645
 Frc consts  --      8.1064                 8.1648                 8.1420
 IR Inten    --     23.9703                10.8967                93.2633

 - Thermochemistry -
 -------------------
 Temperature   298.150 Kelvin.  Pressure   1.00000 Atm.
 Atom     1 has atomic number  6 and mass  12.00000

 Molecular mass:   230.12666 amu.
 Principal axes and moments of inertia in atomic units:
                           1         2         3
     Eigenvalues --  1742.579245794.964706170.64176
           X            0.99979  -0.02014  -0.00378
           Y            0.02007   0.99964  -0.01769
           Z            0.00414   0.01762   0.99984
 This molecule is an asymmetric top.
 Rotational symmetry number  1.
 Warning -- assumption of classical behavior for rotation
           may cause significant error
 Rotational temperatures (Kelvin)      0.04970     0.01495     0.01404
 Rotational constants (GHZ):           1.03567     0.31143     0.29247
 Zero-point vibrational energy     765489.3 (Joules/Mol)
                                  182.95633 (Kcal/Mol)
 Warning -- explicit consideration of  27 degrees of freedom as
           vibrations may cause significant error
 Vibrational temperatures:     53.60    63.28    89.01   126.54   141.67
          (Kelvin)            173.53   202.96   270.83   306.23   313.35
                              366.11   398.40   400.34   464.20   474.49
                              479.22   507.74   559.46   598.52   626.92
                              666.06   700.87   735.44   752.66   779.26
                              830.60   887.67   940.68   964.46  1028.14
                             1071.36  1105.15  1155.78  1238.32  1267.86
                             1292.38  1310.78  1351.13  1351.73  1418.30
                             1447.77  1452.66  1525.28  1537.72  1547.91
                             1581.02  1623.76  1670.54  1692.52  1762.07
                             1786.87  1818.35  1830.05  1854.43  1869.94
                             1915.29  1919.86  1965.91  1988.30  1993.12
                             2029.69  2047.66  2050.58  2055.54  2089.54
                             2122.26  2157.32  2161.66  2164.97  2180.00
                             2188.44  2188.79  2192.58  2210.29  2242.76
                             2250.33  2566.85  2611.92  4266.16  4350.24
                             4397.81  4402.97  4414.57  4415.33  4446.07
                             4488.79  4494.53  4507.27  4508.02  4517.70
                             4536.39  4563.29  4570.06  5145.59  5166.19
                             5183.87

 Zero-point correction=                           0.291559 (Hartree/Particle)
 Thermal correction to Energy=                    0.308063
 Thermal correction to Enthalpy=                  0.309007
 Thermal correction to Gibbs Free Energy=         0.247587
 Sum of electronic and zero-point Energies=           -802.112973
 Sum of electronic and thermal Energies=              -802.096469
 Sum of electronic and thermal Enthalpies=            -802.095525
 Sum of electronic and thermal Free Energies=         -802.156945

                     E (Thermal)             CV                S
                      KCal/Mol        Cal/Mol-Kelvin    Cal/Mol-Kelvin
 Total                  193.313             62.969            129.271
 Electronic               0.000              0.000              0.000
 Translational            0.889              2.981             42.202
 Rotational               0.889              2.981             32.499
 Vibrational            191.535             57.008             54.569
 Vibration     1          0.594              1.982              5.400
 Vibration     2          0.595              1.980              5.071
 Vibration     3          0.597              1.973              4.397
 Vibration     4          0.601              1.958              3.705
 Vibration     5          0.604              1.950              3.485
 Vibration     6          0.609              1.932              3.091
 Vibration     7          0.615              1.912              2.789
 Vibration     8          0.633              1.856              2.245
 Vibration     9          0.644              1.821              2.019
 Vibration    10          0.646              1.814              1.977
 Vibration    11          0.665              1.755              1.699
 Vibration    12          0.678              1.716              1.553
 Vibration    13          0.679              1.714              1.544
 Vibration    14          0.708              1.630              1.297
 Vibration    15          0.713              1.616              1.261
 Vibration    16          0.715              1.609              1.245
 Vibration    17          0.729              1.569              1.153
 Vibration    18          0.757              1.494              1.005
 Vibration    19          0.779              1.436              0.906
 Vibration    20          0.796              1.392              0.840
 Vibration    21          0.821              1.332              0.758
 Vibration    22          0.843              1.279              0.691
 Vibration    23          0.866              1.225              0.631
 Vibration    24          0.878              1.199              0.603
 Vibration    25          0.897              1.158              0.562
 Vibration    26          0.934              1.080              0.490
 Vibration    27          0.977              0.996              0.421

                           ! Non-Optimized Parameters !
 Normal termination of Gaussian 16 at Thu Dec 10 22:38:13 2020.

 ----------------------------------------------------------------------
 # B3LYP/6-311++G(d,p) empiricaldispersion=gd3bj scf=xqc pop=npa geom=c
 heck
 ----------------------------------------------------------------------

 ---------------------------------------
 CID_130420312_JID_6365_Energie_neutraal
 ---------------------------------------
 Structure from the checkpoint file:  "JID_6365.chk"
 Charge =  0 Multiplicity = 1

 SCF Done:  E(RB3LYP) =  -802.652621653     A.U. after   15 cycles
 Normal termination of Gaussian 16 at Thu Dec 10 22:44:37 2020.

 ----------------------------------------------------------------------
 # B3LYP/6-311++G(d,p) empiricaldispersion=gd3bj scf=xqc pop=npa geom=c
 heck
 ----------------------------------------------------------------------

 -------------------------------------
 CID_130420312_JID_6365_Energie_kation
 -------------------------------------
 Structure from the checkpoint file:  "JID_6365.chk"
 Charge =  1 Multiplicity = 2

 SCF Done:  E(UB3LYP) =  -802.322893905     A.U. after   30 cycles
 Normal termination of Gaussian 16 at Thu Dec 10 23:02:51 2020.
 Gaussian 16:  ES64L-G16RevA.03 25-Dec-2016

 ----------------------------------------------------------------------
 # B3LYP/6-311++G(d,p) empiricaldispersion=gd3bj scf=xqc pop=npa geom=c
 heck
 ----------------------------------------------------------------------

 ------------------------------------
 CID_130420312_JID_6365_Energie_anion
 ------------------------------------
 Structure from the checkpoint file:  "JID_6365.chk"
 Charge = -1 Multiplicity = 2

                         Standard orientation:
 ---------------------------------------------------------------------
 Center     Atomic      Atomic             Coordinates (Angstroms)
 Number     Number       Type             X           Y           Z
 ---------------------------------------------------------------------
      1          6           0       -3.410838   -0.041368    1.684716
      2          6           0       -2.999301    0.046788    0.215585
      3          6           0       -3.928373   -0.788909   -0.666004
      4          6           0       -2.914916    1.506226   -0.235715
      5          8           0       -1.656061   -0.547536    0.228573
      6          6           0       -0.895882   -0.541548   -0.881827
      7          8           0       -1.264255   -0.292678   -2.015952
      8          7           0        0.396836   -0.943200   -0.593680
      9          6           0        1.016150   -0.728839    0.707887
     10          6           0        2.191464   -1.686721    0.931259
     11          6           0        3.296264   -1.481227   -0.107948
     12          7           0        3.579652   -0.058448   -0.319972
     13          6           0        2.722076    0.971388   -0.082817
     14          8           0        2.874523    2.093174   -0.560161
     15          6           0        1.546204    0.706918    0.866219
     16          8           0        0.545983    1.661359    0.626237
     17          1           0       -4.419920    0.362037    1.816733
     18          1           0       -2.720161    0.533271    2.309763
     19          1           0       -3.405533   -1.082275    2.024101
     20          1           0       -4.951373   -0.403624   -0.590382
     21          1           0       -3.609041   -0.750108   -1.707941
     22          1           0       -3.930098   -1.832443   -0.332884
     23          1           0       -2.159992    2.033204    0.354990
     24          1           0       -2.646485    1.574340   -1.290855
     25          1           0       -3.885720    1.991132   -0.085535
     26          1           0        0.987194   -0.800732   -1.404634
     27          1           0        0.242892   -0.904080    1.455279
     28          1           0        2.596083   -1.514877    1.935342
     29          1           0        1.847716   -2.723925    0.883015
     30          1           0        3.000493   -1.942654   -1.061171
     31          1           0        4.216477   -1.978887    0.215350
     32          1           0        4.322754    0.177338   -0.968653
     33          1           0        1.942306    0.807728    1.892682
     34          1           0        0.998377    2.375287    0.132639
 ---------------------------------------------------------------------

 SCF Done:  E(UB3LYP) =  -802.646756915     A.U. after   31 cycles

 The electronic state is 2-A.
 Alpha  occ. eigenvalues --  -19.06333 -19.02830 -19.00416 -18.99907 -14.24737
 Alpha  occ. eigenvalues --  -14.23730 -10.22392 -10.18035 -10.15731 -10.13613
 Alpha  occ. eigenvalues --  -10.12084 -10.11601 -10.08272 -10.07860 -10.07517
 Alpha  occ. eigenvalues --  -10.07040  -1.01088  -0.96495  -0.92609  -0.92213
 Alpha  occ. eigenvalues --   -0.84654  -0.82646  -0.72621  -0.69491  -0.65003
 Alpha  occ. eigenvalues --   -0.61192  -0.60894  -0.56614  -0.55210  -0.53703
 Alpha  occ. eigenvalues --   -0.48438  -0.44604  -0.43284  -0.42357  -0.41778
 Alpha  occ. eigenvalues --   -0.39094  -0.38585  -0.38165  -0.37594  -0.36849
 Alpha  occ. eigenvalues --   -0.35500  -0.35200  -0.34333  -0.33226  -0.32467
 Alpha  occ. eigenvalues --   -0.30815  -0.30304  -0.29839  -0.28825  -0.28305
 Alpha  occ. eigenvalues --   -0.27489  -0.27140  -0.26858  -0.26304  -0.25321
 Alpha  occ. eigenvalues --   -0.24462  -0.20763  -0.20261  -0.18250  -0.17809
 Alpha  occ. eigenvalues --   -0.16482  -0.16164   0.03938
 Alpha virt. eigenvalues --    0.05679   0.07034   0.07847   0.08394   0.08530
 Alpha virt. eigenvalues --    0.08890   0.09542   0.10439   0.10520   0.11066
 Alpha virt. eigenvalues --    0.11338   0.11677   0.11861   0.12690   0.12853

  Beta  occ. eigenvalues --  -19.06326 -19.02828 -19.00387 -18.99906 -14.24716
  Beta  occ. eigenvalues --  -14.23710 -10.22388 -10.18001 -10.15729 -10.13600
  Beta  occ. eigenvalues --  -10.12078 -10.11545 -10.08236 -10.07844 -10.07509
  Beta  occ. eigenvalues --  -10.07035  -1.01079  -0.96452  -0.92587  -0.92207
  Beta  occ. eigenvalues --   -0.84606  -0.82603  -0.72608  -0.69439  -0.64914
  Beta  occ. eigenvalues --   -0.61169  -0.60880  -0.56549  -0.55173  -0.53621
  Beta  occ. eigenvalues --   -0.48379  -0.44565  -0.43236  -0.42340  -0.41709
  Beta  occ. eigenvalues --   -0.39053  -0.38530  -0.38103  -0.37576  -0.36808
  Beta  occ. eigenvalues --   -0.35477  -0.35155  -0.34311  -0.33188  -0.32424
  Beta  occ. eigenvalues --   -0.30794  -0.30285  -0.29758  -0.28795  -0.28284
  Beta  occ. eigenvalues --   -0.27456  -0.27072  -0.26810  -0.26280  -0.25298
  Beta  occ. eigenvalues --   -0.24425  -0.20755  -0.20241  -0.18240  -0.17766
  Beta  occ. eigenvalues --   -0.16425  -0.16126
  Beta virt. eigenvalues --    0.05779   0.07039   0.07799   0.08070   0.08606
  Beta virt. eigenvalues --    0.09137   0.09313   0.09957   0.10774   0.11112
  Beta virt. eigenvalues --    0.11226   0.11542   0.11829   0.12151   0.12850

 Mulliken charges and spin densities:
               1          2
     1  C    0.114782  -0.542980
     2  C   -0.520911   0.525486
     3  C   -0.142439  -0.296881
     4  C   -0.308724  -0.181243
     5  O    0.085401  -0.011367
     6  C    0.146029  -0.133928
     7  O   -0.265052   0.001538
     8  N   -0.078735   0.033300
     9  C   -0.229679   0.416190
    10  C    0.045288  -0.583177
    11  C    1.446168  -1.877735
    12  N   -0.333444   0.171876
    13  C   -0.232442   0.286200
    14  O   -0.372451   0.026718
    15  C    0.945900  -1.478100
    16  O   -0.246912   0.019814
    17  H    0.024390   0.109544
    18  H    0.032233   0.124255
    19  H   -0.050438   0.202538
    20  H    0.059258   0.082721
    21  H    0.149605   0.032384
    22  H    0.074412   0.068279
    23  H    0.178455  -0.002555
    24  H    0.165726   0.013722
    25  H    0.047807   0.088750
    26  H    0.325309  -0.008975
    27  H    0.138877   0.154289
    28  H   -0.262922   0.455897
    29  H   -0.328387   0.529726
    30  H   -0.104836   0.269398
    31  H   -1.131935   1.354726
    32  H   -0.283164   0.596296
    33  H   -0.356896   0.572963
    34  H    0.269726  -0.019669
 Sum of Mulliken charges =  -1.00000   1.00000

 Dipole moment (field-independent basis, Debye):
    X=             -8.7387    Y=              2.5967    Z=             -0.6408  Tot=              9.1388
 Quadrupole moment (field-independent basis, Debye-Ang):
   XX=           -182.7737   YY=           -137.8508   ZZ=           -134.4994
   XY=              9.7157   XZ=             -4.3253   YZ=              3.5438

 Summary of Natural Population Analysis:

                                       Natural Population
                Natural  -----------------------------------------------
    Atom  No    Charge         Core      Valence    Rydberg      Total
 -----------------------------------------------------------------------
      C    1   -0.28863      0.99960     2.28301    0.00602     3.28863
      C    2    0.13539      0.99954     1.85082    0.01424     2.86461
      C    3   -0.30094      0.99960     2.29576    0.00558     3.30094
      C    4   -0.30429      0.99960     2.29936    0.00533     3.30429
      O    5   -0.30009      0.99984     3.29039    0.00986     4.30009
      C    6    0.47329      0.99970     1.49978    0.02724     2.52671
      O    7   -0.33570      0.99987     3.33134    0.00450     4.33570
      N    8   -0.33080      0.99966     2.82050    0.01064     3.83080
      C    9   -0.02144      0.99956     2.00721    0.01467     3.02144
      C   10   -0.19628      0.99961     2.18653    0.01014     3.19628
      C   11   -0.08511      0.99961     2.07408    0.01142     3.08511
      N   12   -0.31265      0.99967     2.80165    0.01133     3.81265
      C   13    0.33580      0.99965     1.64141    0.02314     2.66420
      O   14   -0.33196      0.99987     3.32592    0.00617     4.33196
      C   15    0.02549      0.99950     1.95954    0.01547     2.97451
      O   16   -0.37296      0.99989     3.36642    0.00664     4.37296
      H   17    0.09892      0.00000     0.40023    0.00085     0.40108
      H   18    0.10657      0.00000     0.39237    0.00106     0.39343
      H   19    0.10349      0.00000     0.39548    0.00103     0.39651
      H   20    0.09842      0.00000     0.40076    0.00083     0.40158
      H   21    0.11602      0.00000     0.38308    0.00090     0.38398
      H   22    0.10150      0.00000     0.39759    0.00091     0.39850
      H   23    0.11217      0.00000     0.38682    0.00101     0.38783
      H   24    0.11349      0.00000     0.38564    0.00087     0.38651
      H   25    0.09769      0.00000     0.40154    0.00077     0.40231
      H   26    0.19409      0.00000     0.30371    0.00220     0.30591
      H   27    0.11515      0.00000     0.38266    0.00218     0.38485
      H   28    0.10745      0.00000     0.38988    0.00267     0.39255
      H   29    0.11122      0.00000     0.38730    0.00148     0.38878
      H   30    0.09037      0.00000     0.40742    0.00221     0.40963
      H   31    0.10855      0.00000     0.38362    0.00783     0.39145
      H   32    0.19842      0.00000     0.29760    0.00398     0.30158
      H   33    0.09590      0.00000     0.40208    0.00202     0.40410
      H   34    0.24146      0.00000     0.25540    0.00314     0.25854
 =======================================================================
   * Total *    0.00000     15.99478    45.78690    0.21832    62.00000

 Normal termination of Gaussian 16 at Thu Dec 10 23:21:38 2020.
