 Gaussian 16, Revision A.03,

 -----------------------------------------------------------
 # opt freq B3LYP/6-31G(d) empiricaldispersion=gd3bj scf=xqc
 -----------------------------------------------------------

 ------------------------------
 CID_14171455_JID_3919_neutraal
 ------------------------------
 Symbolic Z-matrix:
 Charge =  0 Multiplicity = 1

 SCF Done:  E(RB3LYP) =  -643.634721714     A.U. after   15 cycles
 SCF Done:  E(RB3LYP) =  -643.642454349     A.U. after   13 cycles
 SCF Done:  E(RB3LYP) =  -643.643836774     A.U. after   13 cycles
 SCF Done:  E(RB3LYP) =  -643.644109826     A.U. after   13 cycles
 SCF Done:  E(RB3LYP) =  -643.644425418     A.U. after   12 cycles
 SCF Done:  E(RB3LYP) =  -643.644518813     A.U. after   11 cycles
 SCF Done:  E(RB3LYP) =  -643.644533286     A.U. after   11 cycles
 SCF Done:  E(RB3LYP) =  -643.644542084     A.U. after    9 cycles
 SCF Done:  E(RB3LYP) =  -643.644545586     A.U. after   10 cycles
 SCF Done:  E(RB3LYP) =  -643.644546679     A.U. after    9 cycles
 SCF Done:  E(RB3LYP) =  -643.644546984     A.U. after    8 cycles
 SCF Done:  E(RB3LYP) =  -643.644547224     A.U. after    8 cycles
 SCF Done:  E(RB3LYP) =  -643.644547293     A.U. after    7 cycles
 Optimization completed.
    -- Stationary point found.
 Normal termination of Gaussian 16 at Sun Dec 13 12:23:36 2020.

 --------------------------------------------------------------------
 #N Geom=AllCheck Guess=TCheck SCRF=Check GenChk RB3LYP/6-31G(d) Freq
 --------------------------------------------------------------------

 Structure from the checkpoint file:  "JID_3919.chk"
 ------------------------------
 CID_14171455_JID_3919_neutraal
 ------------------------------
 Charge =  0 Multiplicity = 1

 SCF Done:  E(RB3LYP) =  -643.644547293     A.U. after    1 cycles

  Exact polarizability: 161.751  -4.063 116.351   0.004   0.007  38.105
 Approx polarizability: 261.315  -4.635 202.778   0.016   0.019  60.082

                      1                      2                      3
                      A                      A                      A
 Frequencies --     37.0332                66.1587               142.0846
 Red. masses --      4.7278                10.0663                 5.9402
 Frc consts  --      0.0038                 0.0260                 0.0707
 IR Inten    --      0.1377                 0.4952                 1.6423

                      4                      5                      6
                      A                      A                      A
 Frequencies --    146.4809               183.0083               197.1959
 Red. masses --      6.4078                 5.4798                 6.2781
 Frc consts  --      0.0810                 0.1081                 0.1438
 IR Inten    --      0.2116                 0.2355                 1.9820

                      7                      8                      9
                      A                      A                      A
 Frequencies --    347.1527               349.1663               372.2662
 Red. masses --      6.7354                 9.6148                 7.1453
 Frc consts  --      0.4782                 0.6906                 0.5834
 IR Inten    --      0.4687                 0.1903                 4.4873

                     10                     11                     12
                      A                      A                      A
 Frequencies --    474.6847               558.8456               582.9371
 Red. masses --      6.5663                 2.0842                 1.3503
 Frc consts  --      0.8717                 0.3835                 0.2704
 IR Inten    --      9.6135                 1.4570               118.0361

                     13                     14                     15
                      A                      A                      A
 Frequencies --    597.6583               605.6780               654.0211
 Red. masses --      7.1187                 3.2947                 3.1100
 Frc consts  --      1.4981                 0.7121                 0.7838
 IR Inten    --      1.7899                10.0153                13.0164

                     16                     17                     18
                      A                      A                      A
 Frequencies --    688.2670               710.3615               726.0015
 Red. masses --      2.7876                 3.9975                 2.4194
 Frc consts  --      0.7780                 1.1885                 0.7513
 IR Inten    --      0.0000                42.4900                67.9689

                     19                     20                     21
                      A                      A                      A
 Frequencies --    743.4594               767.5824               821.6463
 Red. masses --      1.3787                 7.4648                 1.2731
 Frc consts  --      0.4490                 2.5913                 0.5064
 IR Inten    --     16.8123                38.4277                25.0880

                     22                     23                     24
                      A                      A                      A
 Frequencies --    874.2005               879.7149               909.8696
 Red. masses --      1.3020                 1.3728                 6.1422
 Frc consts  --      0.5863                 0.6259                 2.9959
 IR Inten    --     19.4083                 3.9234                14.6337

                     25                     26                     27
                      A                      A                      A
 Frequencies --    913.7521               964.5975              1031.7923
 Red. masses --      5.8403                 4.9844                 2.2444
 Frc consts  --      2.8730                 2.7325                 1.4078
 IR Inten    --     13.7431                28.0103                43.3670

                     28                     29                     30
                      A                      A                      A
 Frequencies --   1066.7368              1127.2171              1155.3533
 Red. masses --      1.7958                 2.7285                 2.1068
 Frc consts  --      1.2040                 2.0427                 1.6569
 IR Inten    --      7.6461                22.0103                 3.1146

                     31                     32                     33
                      A                      A                      A
 Frequencies --   1167.0210              1198.9405              1225.2407
 Red. masses --      4.1916                 1.9482                 2.3399
 Frc consts  --      3.3635                 1.6500                 2.0696
 IR Inten    --    182.9816                19.1636                10.8569

                     34                     35                     36
                      A                      A                      A
 Frequencies --   1249.2396              1273.4001              1303.9528
 Red. masses --      2.3992                 1.5117                 4.2112
 Frc consts  --      2.2061                 1.4443                 4.2187
 IR Inten    --     65.9579                30.2735                29.4253

                     37                     38                     39
                      A                      A                      A
 Frequencies --   1366.9530              1382.4828              1436.3233
 Red. masses --      3.3285                 4.9697                 2.8622
 Frc consts  --      3.6644                 5.5963                 3.4790
 IR Inten    --     35.4593                32.9167                 8.9405

                     40                     41                     42
                      A                      A                      A
 Frequencies --   1470.7239              1484.4860              1556.0222
 Red. masses --      3.0113                 4.6901                 4.3768
 Frc consts  --      3.8376                 6.0895                 6.2437
 IR Inten    --     43.5955               112.3894                 2.0235

                     43                     44                     45
                      A                      A                      A
 Frequencies --   1598.8359              1662.6876              1798.3836
 Red. masses --      4.8206                 7.9083                 9.2656
 Frc consts  --      7.2604                12.8811                17.6558
 IR Inten    --     34.1247                 6.3634               493.8858

                     46                     47                     48
                      A                      A                      A
 Frequencies --   3270.9895              3288.7018              3303.6636
 Red. masses --      1.0917                 1.0965                 1.1035
 Frc consts  --      6.8817                 6.9873                 7.0960
 IR Inten    --      4.5896                 0.6764                 0.9005

                     49                     50                     51
                      A                      A                      A
 Frequencies --   3327.4020              3648.9767              3691.0748
 Red. masses --      1.0968                 1.0814                 1.0640
 Frc consts  --      7.1547                 8.4833                 8.5404
 IR Inten    --      1.3551               166.5765                89.3892

 - Thermochemistry -
 -------------------
 Temperature   298.150 Kelvin.  Pressure   1.00000 Atm.
 Atom     1 has atomic number  6 and mass  12.00000

 Molecular mass:   178.03784 amu.
 Principal axes and moments of inertia in atomic units:
                           1         2         3
     Eigenvalues --  1273.961912887.203564161.16538
           X            0.99996  -0.00889  -0.00000
           Y            0.00889   0.99996   0.00000
           Z            0.00000  -0.00000   1.00000
 This molecule is an asymmetric top.
 Rotational symmetry number  1.
 Warning -- assumption of classical behavior for rotation
           may cause significant error
 Rotational temperatures (Kelvin)      0.06799     0.03000     0.02081
 Rotational constants (GHZ):           1.41664     0.62508     0.43371
 Zero-point vibrational energy     361274.8 (Joules/Mol)
                                   86.34674 (Kcal/Mol)
 Warning -- explicit consideration of  14 degrees of freedom as
           vibrations may cause significant error
 Vibrational temperatures:     53.28    95.19   204.43   210.75   263.31
          (Kelvin)            283.72   499.48   502.37   535.61   682.97
                              804.05   838.72   859.90   871.44   940.99
                              990.26  1022.05  1044.55  1069.67  1104.38
                             1182.17  1257.78  1265.71  1309.10  1314.69
                             1387.84  1484.52  1534.80  1621.81  1662.30
                             1679.08  1725.01  1762.85  1797.38  1832.14
                             1876.10  1966.74  1989.08  2066.55  2116.04
                             2135.84  2238.77  2300.37  2392.24  2587.47
                             4706.22  4731.71  4753.24  4787.39  5250.06
                             5310.63

 Zero-point correction=                           0.137602 (Hartree/Particle)
 Thermal correction to Energy=                    0.147756
 Thermal correction to Enthalpy=                  0.148700
 Thermal correction to Gibbs Free Energy=         0.100513
 Sum of electronic and zero-point Energies=           -643.506945
 Sum of electronic and thermal Energies=              -643.496792
 Sum of electronic and thermal Enthalpies=            -643.495848
 Sum of electronic and thermal Free Energies=         -643.544034

                     E (Thermal)             CV                S
                      KCal/Mol        Cal/Mol-Kelvin    Cal/Mol-Kelvin
 Total                   92.718             38.478            101.417
 Electronic               0.000              0.000              0.000
 Translational            0.889              2.981             41.437
 Rotational               0.889              2.981             31.104
 Vibrational             90.941             32.516             28.875
 Vibration     1          0.594              1.982              5.412
 Vibration     2          0.598              1.970              4.265
 Vibration     3          0.616              1.911              2.776
 Vibration     4          0.617              1.906              2.717
 Vibration     5          0.631              1.863              2.298
 Vibration     6          0.637              1.844              2.159
 Vibration     7          0.725              1.581              1.179
 Vibration     8          0.726              1.577              1.170
 Vibration     9          0.744              1.529              1.070
 Vibration    10          0.831              1.306              0.725
 Vibration    11          0.914              1.120              0.526
 Vibration    12          0.940              1.068              0.480
 Vibration    13          0.956              1.037              0.454
 Vibration    14          0.964              1.020              0.440

 Optimization completed.
    -- Stationary point found.
 Normal termination of Gaussian 16 at Sun Dec 13 12:27:40 2020.

 ----------------------------------------------------------------------
 # B3LYP/6-311++G(d,p) empiricaldispersion=gd3bj scf=xqc pop=npa geom=c
 heck
 ----------------------------------------------------------------------

 --------------------------------------
 CID_14171455_JID_3919_Energie_neutraal
 --------------------------------------
 Structure from the checkpoint file:  "JID_3919.chk"
 Charge =  0 Multiplicity = 1

 SCF Done:  E(RB3LYP) =  -643.832173301     A.U. after   15 cycles
 Normal termination of Gaussian 16 at Sun Dec 13 12:29:18 2020.

 ----------------------------------------------------------------------
 # B3LYP/6-311++G(d,p) empiricaldispersion=gd3bj scf=xqc pop=npa geom=c
 heck
 ----------------------------------------------------------------------

 ------------------------------------
 CID_14171455_JID_3919_Energie_kation
 ------------------------------------
 Structure from the checkpoint file:  "JID_3919.chk"
 Charge =  1 Multiplicity = 2

 SCF Done:  E(UB3LYP) =  -643.538863955     A.U. after   21 cycles
 Normal termination of Gaussian 16 at Sun Dec 13 12:32:23 2020.
 Gaussian 16:  ES64L-G16RevA.03 25-Dec-2016

 ----------------------------------------------------------------------
 # B3LYP/6-311++G(d,p) empiricaldispersion=gd3bj scf=xqc pop=npa geom=c
 heck
 ----------------------------------------------------------------------

 -----------------------------------
 CID_14171455_JID_3919_Energie_anion
 -----------------------------------
 Structure from the checkpoint file:  "JID_3919.chk"
 Charge = -1 Multiplicity = 2

                         Standard orientation:
 ---------------------------------------------------------------------
 Center     Atomic      Atomic             Coordinates (Angstroms)
 Number     Number       Type             X           Y           Z
 ---------------------------------------------------------------------
      1          6           0        3.176272   -1.153324   -0.000331
      2          6           0        3.473497    0.176087    0.000055
      3          8           0        2.332753    0.917075    0.000300
      4          6           0        1.269709    0.039309    0.000102
      5          6           0        1.749874   -1.245900   -0.000314
      6          6           0       -0.026301    0.673829    0.000151
      7          6           0       -1.330823    0.153137   -0.000350
      8          7           0       -2.161874    1.239001   -0.000392
      9          7           0       -1.521109    2.407288   -0.000082
     10          6           0       -0.227673    2.080557    0.000259
     11          6           0       -1.980620   -1.152514    0.000028
     12          8           0       -3.192539   -1.288778    0.000074
     13          8           0       -1.131509   -2.205422    0.000355
     14          1           0        3.882223   -1.971656   -0.000584
     15          1           0        4.395317    0.736903    0.000122
     16          1           0        1.149860   -2.140121   -0.000393
     17          1           0       -3.171584    1.190560   -0.000354
     18          1           0        0.530641    2.849363    0.000549
     19          1           0       -1.698809   -2.999161    0.000551
 ---------------------------------------------------------------------

 SCF Done:  E(UB3LYP) =  -643.845153545     A.U. after   19 cycles

 The electronic state is 2-A.
 Alpha  occ. eigenvalues --  -19.04253 -19.01341 -18.93589 -14.21725 -14.18043
 Alpha  occ. eigenvalues --  -10.11933 -10.08505 -10.08318 -10.04578 -10.04184
 Alpha  occ. eigenvalues --  -10.04156 -10.02345 -10.01903  -0.97113  -0.95065
 Alpha  occ. eigenvalues --   -0.89768  -0.85330  -0.66957  -0.66455  -0.65812
 Alpha  occ. eigenvalues --   -0.59697  -0.51668  -0.47507  -0.46766  -0.44885
 Alpha  occ. eigenvalues --   -0.41673  -0.39534  -0.36301  -0.33228  -0.32209
 Alpha  occ. eigenvalues --   -0.31889  -0.30852  -0.29413  -0.28240  -0.27649
 Alpha  occ. eigenvalues --   -0.27179  -0.26316  -0.24027  -0.23303  -0.17696
 Alpha  occ. eigenvalues --   -0.15448  -0.14979  -0.14823  -0.12664  -0.11313
 Alpha  occ. eigenvalues --   -0.06976   0.05037
 Alpha virt. eigenvalues --    0.08556   0.09875   0.10525   0.11751   0.12748
 Alpha virt. eigenvalues --    0.12761   0.14135   0.15380   0.16678   0.16756
 Alpha virt. eigenvalues --    0.16914   0.17860   0.18608   0.18989   0.19430

  Beta  occ. eigenvalues --  -19.04103 -19.01212 -18.93212 -14.21354 -14.17900
  Beta  occ. eigenvalues --  -10.11542 -10.08499 -10.08182 -10.04409 -10.04243
  Beta  occ. eigenvalues --  -10.04237 -10.02143 -10.01767  -0.96873  -0.94620
  Beta  occ. eigenvalues --   -0.89326  -0.84729  -0.66513  -0.66224  -0.65417
  Beta  occ. eigenvalues --   -0.59387  -0.50862  -0.47241  -0.46594  -0.44795
  Beta  occ. eigenvalues --   -0.41501  -0.39286  -0.36044  -0.32782  -0.31648
  Beta  occ. eigenvalues --   -0.31431  -0.29369  -0.29268  -0.28059  -0.27087
  Beta  occ. eigenvalues --   -0.26337  -0.26158  -0.23832  -0.23073  -0.16043
  Beta  occ. eigenvalues --   -0.14760  -0.14531  -0.13940  -0.12296  -0.09985
  Beta  occ. eigenvalues --   -0.05770
  Beta virt. eigenvalues --    0.08529   0.09867   0.10503   0.11173   0.11732
  Beta virt. eigenvalues --    0.12746   0.14052   0.14126   0.15483   0.16753
  Beta virt. eigenvalues --    0.16878   0.16913   0.18092   0.18809   0.19007

 Mulliken charges and spin densities:
               1          2
     1  C   -0.576401  -0.043629
     2  C    0.036704   0.121665
     3  O   -0.048267   0.026627
     4  C   -0.358852  -0.011152
     5  C    0.086107   0.112515
     6  C    0.091215   0.139391
     7  C    0.007916   0.144903
     8  N   -0.062567   0.132925
     9  N   -0.315683   0.082778
    10  C   -0.248067  -0.055049
    11  C   -0.064582   0.214795
    12  O   -0.447210   0.132969
    13  O   -0.269600   0.021899
    14  H    0.121854   0.003017
    15  H    0.126495  -0.008315
    16  H    0.193111  -0.007368
    17  H    0.318791  -0.008984
    18  H    0.139965   0.003318
    19  H    0.269072  -0.002305
 Sum of Mulliken charges =  -1.00000   1.00000

 Dipole moment (field-independent basis, Debye):
    X=              3.4528    Y=             -1.7967    Z=              0.0003  Tot=              3.8923
 Quadrupole moment (field-independent basis, Debye-Ang):
   XX=           -105.0656   YY=            -88.8317   ZZ=            -82.5095
   XY=             -0.0138   XZ=             -0.0008   YZ=              0.0002

 Summary of Natural Population Analysis:

                                       Natural Population
                Natural  -----------------------------------------------
    Atom  No    Charge         Core      Valence    Rydberg      Total
 -----------------------------------------------------------------------
      C    1   -0.17330      0.99958     2.16533    0.00839     3.17330
      C    2    0.06873      0.99953     1.91677    0.01496     2.93127
      O    3   -0.22937      0.99986     3.22067    0.00884     4.22937
      C    4    0.15378      0.99946     1.83385    0.01291     2.84622
      C    5   -0.12903      0.99953     2.12091    0.00859     3.12903
      C    6   -0.05496      0.99948     2.04730    0.00818     3.05496
      C    7    0.05790      0.99950     1.93107    0.01154     2.94210
      N    8   -0.10765      0.99967     2.59506    0.01292     3.60765
      N    9   -0.14182      0.99974     2.62676    0.01532     3.64182
      C   10   -0.03586      0.99962     2.02076    0.01548     3.03586
      C   11    0.43174      0.99966     1.54547    0.02313     2.56826
      O   12   -0.31052      0.99988     3.30345    0.00719     4.31052
      O   13   -0.34737      0.99988     3.33971    0.00778     4.34737
      H   14    0.09840      0.00000     0.40073    0.00087     0.40160
      H   15    0.08417      0.00000     0.41486    0.00097     0.41583
      H   16    0.11540      0.00000     0.38374    0.00086     0.38460
      H   17    0.19591      0.00000     0.30198    0.00211     0.30409
      H   18    0.09418      0.00000     0.40476    0.00106     0.40582
      H   19    0.22966      0.00000     0.26763    0.00272     0.27034
 =======================================================================
   * Total *   -0.00000     12.99538    32.84080    0.16383    46.00000

 Normal termination of Gaussian 16 at Sun Dec 13 12:35:16 2020.
