 Gaussian 16, Revision A.03,

 -----------------------------------------------------------
 # opt freq B3LYP/6-31G(d) empiricaldispersion=gd3bj scf=xqc
 -----------------------------------------------------------

 -------------------------------
 CID_115451272_JID_7081_neutraal
 -------------------------------
 Symbolic Z-matrix:
 Charge =  0 Multiplicity = 1

 SCF Done:  E(RB3LYP) =  -805.754665534     A.U. after   14 cycles
 SCF Done:  E(RB3LYP) =  -805.762725602     A.U. after   12 cycles
 SCF Done:  E(RB3LYP) =  -805.763785773     A.U. after   13 cycles
 SCF Done:  E(RB3LYP) =  -805.766401978     A.U. after   12 cycles
 SCF Done:  E(RB3LYP) =  -805.768050177     A.U. after   13 cycles
 SCF Done:  E(RB3LYP) =  -805.770086662     A.U. after   15 cycles
 SCF Done:  E(RB3LYP) =  -805.772204470     A.U. after   15 cycles
 SCF Done:  E(RB3LYP) =  -805.774109890     A.U. after   12 cycles
 SCF Done:  E(RB3LYP) =  -805.775759819     A.U. after   12 cycles
 SCF Done:  E(RB3LYP) =  -805.775992657     A.U. after   12 cycles
 SCF Done:  E(RB3LYP) =  -805.776496525     A.U. after   10 cycles
 SCF Done:  E(RB3LYP) =  -805.776498675     A.U. after    9 cycles
 SCF Done:  E(RB3LYP) =  -805.776499605     A.U. after    8 cycles
 SCF Done:  E(RB3LYP) =  -805.776499912     A.U. after    7 cycles
 SCF Done:  E(RB3LYP) =  -805.776500001     A.U. after    6 cycles
 Optimization completed.
    -- Stationary point found.
 Normal termination of Gaussian 16 at Mon Dec 14 16:45:44 2020.

 --------------------------------------------------------------------
 #N Geom=AllCheck Guess=TCheck SCRF=Check GenChk RB3LYP/6-31G(d) Freq
 --------------------------------------------------------------------

 Structure from the checkpoint file:  "JID_7081.chk"
 -------------------------------
 CID_115451272_JID_7081_neutraal
 -------------------------------
 Charge =  0 Multiplicity = 1

 SCF Done:  E(RB3LYP) =  -805.776500001     A.U. after    1 cycles

  Exact polarizability: 176.034   5.250 136.636  -1.066  -4.903 122.511
 Approx polarizability: 211.994   8.088 199.099  -1.990 -19.132 197.698

                      1                      2                      3
                      A                      A                      A
 Frequencies --     31.6254                36.7028                41.8217
 Red. masses --      3.7489                 3.9578                 3.0462
 Frc consts  --      0.0022                 0.0031                 0.0031
 IR Inten    --      0.0909                 0.8813                 0.3877

                      4                      5                      6
                      A                      A                      A
 Frequencies --     64.0653                66.0517                95.4313
 Red. masses --      4.9270                 8.7035                 2.9328
 Frc consts  --      0.0119                 0.0224                 0.0157
 IR Inten    --      2.5124                 0.2251                 1.7755

                      7                      8                      9
                      A                      A                      A
 Frequencies --    116.6126               143.0441               152.7391
 Red. masses --      4.4332                 3.9535                 3.3372
 Frc consts  --      0.0355                 0.0477                 0.0459
 IR Inten    --      1.0475                 1.8392                 2.3250

                     10                     11                     12
                      A                      A                      A
 Frequencies --    172.5267               200.0114               214.6491
 Red. masses --      3.9388                 1.7413                 1.5921
 Frc consts  --      0.0691                 0.0410                 0.0432
 IR Inten    --      0.4869                 2.6647                 2.4998

                     13                     14                     15
                      A                      A                      A
 Frequencies --    221.9582               235.1192               250.1110
 Red. masses --      1.1839                 1.3582                 1.5207
 Frc consts  --      0.0344                 0.0442                 0.0560
 IR Inten    --      0.9360                 0.6700                 0.2512

                     16                     17                     18
                      A                      A                      A
 Frequencies --    268.9285               280.7060               302.7000
 Red. masses --      2.8640                 2.2603                 1.7763
 Frc consts  --      0.1220                 0.1049                 0.0959
 IR Inten    --      2.7148                 0.0244                 1.5328

                     19                     20                     21
                      A                      A                      A
 Frequencies --    325.1222               356.7947               372.2113
 Red. masses --      2.3167                 2.1372                 2.4338
 Frc consts  --      0.1443                 0.1603                 0.1987
 IR Inten    --      1.6745                 3.9193                 0.6645

                     22                     23                     24
                      A                      A                      A
 Frequencies --    389.3897               399.6749               411.7540
 Red. masses --      3.4226                 3.3707                 2.8917
 Frc consts  --      0.3058                 0.3172                 0.2889
 IR Inten    --      4.4134                 0.8632                 2.8558

                     25                     26                     27
                      A                      A                      A
 Frequencies --    469.8147               494.6594               504.1558
 Red. masses --      2.9075                 4.2556                 4.1432
 Frc consts  --      0.3781                 0.6135                 0.6205
 IR Inten    --      3.5704                 5.8887                10.4235

                     28                     29                     30
                      A                      A                      A
 Frequencies --    555.3938               560.0094               609.3849
 Red. masses --      3.5168                 2.9288                 1.2296
 Frc consts  --      0.6391                 0.5412                 0.2690
 IR Inten    --     77.2754                 2.7519                80.0626

                     31                     32                     33
                      A                      A                      A
 Frequencies --    649.1263               728.6771               751.0349
 Red. masses --      4.2728                 3.1298                 3.7529
 Frc consts  --      1.0608                 0.9791                 1.2472
 IR Inten    --     43.7484                 2.2755                10.7133

                     34                     35                     36
                      A                      A                      A
 Frequencies --    766.1107               782.9571               807.9923
 Red. masses --      4.3085                 2.4252                 1.0938
 Frc consts  --      1.4899                 0.8759                 0.4207
 IR Inten    --     21.3027                20.6862                 0.5790

                     37                     38                     39
                      A                      A                      A
 Frequencies --    820.7511               830.5860               887.8869
 Red. masses --      1.8640                 2.8208                 2.7379
 Frc consts  --      0.7398                 1.1465                 1.2717
 IR Inten    --     51.8119                22.2416                21.9586

                     40                     41                     42
                      A                      A                      A
 Frequencies --    913.3769               936.0411               947.0812
 Red. masses --      2.6649                 3.1477                 1.1961
 Frc consts  --      1.3099                 1.6249                 0.6321
 IR Inten    --      6.7132                11.3669                 2.9106

                     43                     44                     45
                      A                      A                      A
 Frequencies --    961.1370               975.6454               981.3093
 Red. masses --      1.5171                 1.4631                 1.3979
 Frc consts  --      0.8257                 0.8206                 0.7931
 IR Inten    --     26.0002                 0.8186                 2.8954

                     46                     47                     48
                      A                      A                      A
 Frequencies --    990.2021              1011.2611              1052.6578
 Red. masses --      1.4338                 1.4565                 2.1571
 Frc consts  --      0.8283                 0.8776                 1.4083
 IR Inten    --      3.5194                17.0175                 8.3756

                     49                     50                     51
                      A                      A                      A
 Frequencies --   1071.4710              1075.6407              1102.1391
 Red. masses --      1.3978                 2.5169                 1.3655
 Frc consts  --      0.9455                 1.7158                 0.9773
 IR Inten    --     23.4011                38.2904                 4.8205

                     52                     53                     54
                      A                      A                      A
 Frequencies --   1133.6896              1136.5113              1154.6386
 Red. masses --      1.9104                 2.8464                 1.8330
 Frc consts  --      1.4466                 2.1662                 1.4398
 IR Inten    --    100.5603                23.0005                26.4693

                     55                     56                     57
                      A                      A                      A
 Frequencies --   1162.4481              1165.1801              1191.6067
 Red. masses --      2.8821                 1.6746                 2.2496
 Frc consts  --      2.2946                 1.3395                 1.8820
 IR Inten    --    168.5929                 5.4690                 8.7998

                     58                     59                     60
                      A                      A                      A
 Frequencies --   1207.5488              1212.6356              1219.2125
 Red. masses --      1.8143                 1.3486                 2.0084
 Frc consts  --      1.5588                 1.1684                 1.7590
 IR Inten    --      6.7061                15.8786               103.1941

                     61                     62                     63
                      A                      A                      A
 Frequencies --   1254.2346              1262.4572              1313.1290
 Red. masses --      2.9514                 1.8055                 1.4843
 Frc consts  --      2.7355                 1.6955                 1.5079
 IR Inten    --     51.4418                12.6295                19.4198

                     64                     65                     66
                      A                      A                      A
 Frequencies --   1331.8788              1338.0586              1378.2183
 Red. masses --      1.4631                 1.9435                 1.4225
 Frc consts  --      1.5291                 2.0502                 1.5920
 IR Inten    --     14.8975                 7.6713                90.5577

                     67                     68                     69
                      A                      A                      A
 Frequencies --   1389.3312              1400.3170              1412.0974
 Red. masses --      1.5016                 1.5029                 1.5584
 Frc consts  --      1.7077                 1.7363                 1.8308
 IR Inten    --     89.4716                39.1194                39.6619

                     70                     71                     72
                      A                      A                      A
 Frequencies --   1427.8080              1428.6267              1431.1631
 Red. masses --      1.9274                 1.6027                 1.3516
 Frc consts  --      2.3151                 1.9273                 1.6311
 IR Inten    --     36.6966                28.0993                44.4385

                     73                     74                     75
                      A                      A                      A
 Frequencies --   1447.2875              1461.1432              1485.6625
 Red. masses --      1.2586                 1.4131                 1.2405
 Frc consts  --      1.5533                 1.7775                 1.6132
 IR Inten    --     30.9675                60.5183                 2.6597

                     76                     77                     78
                      A                      A                      A
 Frequencies --   1490.8338              1508.9572              1518.0778
 Red. masses --      1.1831                 1.2812                 1.0474
 Frc consts  --      1.5493                 1.7187                 1.4221
 IR Inten    --      8.0190                29.0324                 8.2640

                     79                     80                     81
                      A                      A                      A
 Frequencies --   1519.4763              1522.7293              1526.9377
 Red. masses --      1.0593                 1.2494                 1.0523
 Frc consts  --      1.4410                 1.7069                 1.4455
 IR Inten    --      5.1669                10.0945                10.1906

                     82                     83                     84
                      A                      A                      A
 Frequencies --   1530.7029              1535.8473              1538.5182
 Red. masses --      1.2009                 1.0538                 1.0718
 Frc consts  --      1.6578                 1.4646                 1.4948
 IR Inten    --     11.8690                 4.7846                13.3743

                     85                     86                     87
                      A                      A                      A
 Frequencies --   1546.5227              1551.2016              1555.0632
 Red. masses --      1.0584                 1.1443                 1.0667
 Frc consts  --      1.4915                 1.6223                 1.5199
 IR Inten    --      6.5225                86.8035                 5.6619

                     88                     89                     90
                      A                      A                      A
 Frequencies --   1764.3662              1827.3514              2995.6269
 Red. masses --      6.6365                 9.6825                 1.0752
 Frc consts  --     12.1722                19.0495                 5.6846
 IR Inten    --    310.4309               341.4169                45.2900

                     91                     92                     93
                      A                      A                      A
 Frequencies --   3022.6621              3032.2456              3035.4413
 Red. masses --      1.0565                 1.0642                 1.0409
 Frc consts  --      5.6872                 5.7648                 5.6509
 IR Inten    --      9.9933                42.3160                20.2925

                     94                     95                     96
                      A                      A                      A
 Frequencies --   3040.5461              3061.7951              3070.9595
 Red. masses --      1.0445                 1.0402                 1.1029
 Frc consts  --      5.6896                 5.7455                 6.1281
 IR Inten    --     52.4298                20.5386                45.4330

                     97                     98                     99
                      A                      A                      A
 Frequencies --   3090.1971              3097.9571              3115.0902
 Red. masses --      1.0860                 1.0978                 1.0942
 Frc consts  --      6.1102                 6.2079                 6.2560
 IR Inten    --     13.2265                 2.4044                55.6341

                    100                    101                    102
                      A                      A                      A
 Frequencies --   3119.5042              3130.1064              3131.5018
 Red. masses --      1.1005                 1.0991                 1.0982
 Frc consts  --      6.3096                 6.3446                 6.3450
 IR Inten    --     30.8959                58.9316                23.0625

                    103                    104                    105
                      A                      A                      A
 Frequencies --   3155.6134              3158.1671              3163.4107
 Red. masses --      1.0875                 1.0557                 1.0573
 Frc consts  --      6.3803                 6.2041                 6.2342
 IR Inten    --      6.1442                 8.8170                 7.8996

                    106                    107                    108
                      A                      A                      A
 Frequencies --   3165.2247              3193.1959              3246.7784
 Red. masses --      1.1014                 1.0965                 1.1176
 Frc consts  --      6.5016                 6.5873                 6.9415
 IR Inten    --     10.4849                 2.9893                 0.2179

                    109                    110                    111
                      A                      A                      A
 Frequencies --   3258.4835              3551.4971              3698.5842
 Red. masses --      1.1153                 1.0741                 1.0642
 Frc consts  --      6.9769                 7.9821                 8.5776
 IR Inten    --      6.0396                 9.8641                67.2775

 - Thermochemistry -
 -------------------
 Temperature   298.150 Kelvin.  Pressure   1.00000 Atm.
 Atom     1 has atomic number  6 and mass  12.00000

 Molecular mass:   242.16304 amu.
 Principal axes and moments of inertia in atomic units:
                           1         2         3
     Eigenvalues --  1822.820678229.766188717.19400
           X            0.99994   0.00822  -0.00696
           Y           -0.00793   0.99913   0.04093
           Z            0.00729  -0.04088   0.99914
 This molecule is an asymmetric top.
 Rotational symmetry number  1.
 Warning -- assumption of classical behavior for rotation
           may cause significant error
 Rotational temperatures (Kelvin)      0.04752     0.01052     0.00994
 Rotational constants (GHZ):           0.99008     0.21929     0.20703
 Zero-point vibrational energy     898409.3 (Joules/Mol)
                                  214.72499 (Kcal/Mol)
 Warning -- explicit consideration of  30 degrees of freedom as
           vibrations may cause significant error
 Vibrational temperatures:     45.50    52.81    60.17    92.18    95.03
          (Kelvin)            137.30   167.78   205.81   219.76   248.23
                              287.77   308.83   319.35   338.28   359.85
                              386.93   403.87   435.52   467.78   513.35
                              535.53   560.24   575.04   592.42   675.96
                              711.70   725.37   799.09   805.73   876.77
                              933.95  1048.40  1080.57  1102.26  1126.50
                             1162.52  1180.88  1195.03  1277.47  1314.15
                             1346.75  1362.64  1382.86  1403.74  1411.89
                             1424.68  1454.98  1514.54  1541.61  1547.61
                             1585.73  1631.13  1635.19  1661.27  1672.50
                             1676.43  1714.46  1737.39  1744.71  1754.17
                             1804.56  1816.39  1889.30  1916.28  1925.17
                             1982.95  1998.94  2014.74  2031.69  2054.30
                             2055.48  2059.12  2082.32  2102.26  2137.54
                             2144.98  2171.05  2184.18  2186.19  2190.87
                             2196.92  2202.34  2209.74  2213.58  2225.10
                             2231.83  2237.39  2538.53  2629.15  4310.04
                             4348.94  4362.73  4367.32  4374.67  4405.24
                             4418.43  4446.10  4457.27  4481.92  4488.27
                             4503.52  4505.53  4540.22  4543.90  4551.44
                             4554.05  4594.30  4671.39  4688.23  5109.81
                             5321.44

 Zero-point correction=                           0.342186 (Hartree/Particle)
 Thermal correction to Energy=                    0.361307
 Thermal correction to Enthalpy=                  0.362251
 Thermal correction to Gibbs Free Energy=         0.294212
 Sum of electronic and zero-point Energies=           -805.434314
 Sum of electronic and thermal Energies=              -805.415193
 Sum of electronic and thermal Enthalpies=            -805.414249
 Sum of electronic and thermal Free Energies=         -805.482288

                     E (Thermal)             CV                S
                      KCal/Mol        Cal/Mol-Kelvin    Cal/Mol-Kelvin
 Total                  226.723             71.093            143.200
 Electronic               0.000              0.000              0.000
 Translational            0.889              2.981             42.354
 Rotational               0.889              2.981             33.236
 Vibrational            224.946             65.131             67.610
 Vibration     1          0.594              1.983              5.725
 Vibration     2          0.594              1.982              5.430
 Vibration     3          0.594              1.980              5.171
 Vibration     4          0.597              1.971              4.328
 Vibration     5          0.597              1.970              4.268
 Vibration     6          0.603              1.952              3.546
 Vibration     7          0.608              1.936              3.156
 Vibration     8          0.616              1.910              2.763
 Vibration     9          0.619              1.900              2.638
 Vibration    10          0.626              1.876              2.408
 Vibration    11          0.638              1.840              2.133
 Vibration    12          0.645              1.819              2.004
 Vibration    13          0.648              1.808              1.943
 Vibration    14          0.655              1.787              1.840
 Vibration    15          0.663              1.763              1.730
 Vibration    16          0.673              1.730              1.603
 Vibration    17          0.680              1.709              1.529
 Vibration    18          0.694              1.669              1.402
 Vibration    19          0.709              1.625              1.284
 Vibration    20          0.732              1.561              1.136
 Vibration    21          0.744              1.529              1.071
 Vibration    22          0.757              1.493              1.002
 Vibration    23          0.766              1.471              0.964
 Vibration    24          0.776              1.445              0.920
 Vibration    25          0.827              1.317              0.738
 Vibration    26          0.850              1.262              0.672
 Vibration    27          0.859              1.241              0.648
 Vibration    28          0.911              1.128              0.533
 Vibration    29          0.916              1.118              0.524
 Vibration    30          0.968              1.012              0.434

                           ! Non-Optimized Parameters !
 Normal termination of Gaussian 16 at Mon Dec 14 17:00:35 2020.

 ----------------------------------------------------------------------
 # B3LYP/6-311++G(d,p) empiricaldispersion=gd3bj scf=xqc pop=npa geom=c
 heck
 ----------------------------------------------------------------------

 ---------------------------------------
 CID_115451272_JID_7081_Energie_neutraal
 ---------------------------------------
 Structure from the checkpoint file:  "JID_7081.chk"
 Charge =  0 Multiplicity = 1

 SCF Done:  E(RB3LYP) =  -806.018908167     A.U. after   14 cycles
 Normal termination of Gaussian 16 at Mon Dec 14 17:08:10 2020.

 ----------------------------------------------------------------------
 # B3LYP/6-311++G(d,p) empiricaldispersion=gd3bj scf=xqc pop=npa geom=c
 heck
 ----------------------------------------------------------------------

 -------------------------------------
 CID_115451272_JID_7081_Energie_kation
 -------------------------------------
 Structure from the checkpoint file:  "JID_7081.chk"
 Charge =  1 Multiplicity = 2

 SCF Done:  E(UB3LYP) =  -805.714906735     A.U. after   28 cycles
 Normal termination of Gaussian 16 at Mon Dec 14 17:30:11 2020.
 Gaussian 16:  ES64L-G16RevA.03 25-Dec-2016

 ----------------------------------------------------------------------
 # B3LYP/6-311++G(d,p) empiricaldispersion=gd3bj scf=xqc pop=npa geom=c
 heck
 ----------------------------------------------------------------------

 ------------------------------------
 CID_115451272_JID_7081_Energie_anion
 ------------------------------------
 Structure from the checkpoint file:  "JID_7081.chk"
 Charge = -1 Multiplicity = 2

                         Standard orientation:
 ---------------------------------------------------------------------
 Center     Atomic      Atomic             Coordinates (Angstroms)
 Number     Number       Type             X           Y           Z
 ---------------------------------------------------------------------
      1          6           0       -4.921467    0.758415    0.441546
      2          6           0       -3.402157    0.782429    0.225185
      3          6           0       -2.727912    1.611942    1.325411
      4          6           0       -2.828826   -0.652358    0.184726
      5          6           0       -3.454069   -1.552355   -0.889739
      6          7           0       -1.353242   -0.664361    0.090547
      7          6           0       -0.679891   -1.659471    0.917604
      8          6           0       -0.743009   -0.054904   -0.975847
      9          8           0       -1.350460    0.391716   -1.949326
     10          7           0        0.661151    0.035744   -0.914870
     11          6           0        1.312669    0.681735    0.228426
     12          6           0        2.816660    0.575150    0.095484
     13          6           0        3.516121    1.486846   -0.902921
     14          6           0        3.679865    1.745746    0.558718
     15          6           0        3.362197   -0.791038    0.330904
     16          8           0        2.737105   -1.724653    0.790594
     17          8           0        4.679006   -0.901025    0.012603
     18          1           0       -5.182963    0.214058    1.359262
     19          1           0       -5.451110    0.288349   -0.392211
     20          1           0       -5.307088    1.779021    0.543281
     21          1           0       -3.195154    1.249505   -0.742165
     22          1           0       -2.902512    1.167162    2.314580
     23          1           0       -1.646479    1.680273    1.176620
     24          1           0       -3.132055    2.630324    1.344130
     25          1           0       -3.038745   -1.094828    1.168018
     26          1           0       -3.334707   -1.098250   -1.875414
     27          1           0       -2.955896   -2.528479   -0.898454
     28          1           0       -4.516723   -1.724466   -0.695025
     29          1           0        0.343367   -1.816328    0.580437
     30          1           0       -0.665690   -1.356086    1.972962
     31          1           0       -1.215025   -2.615684    0.849296
     32          1           0        0.961975    0.454534   -1.789690
     33          1           0        1.036339    1.745679    0.302277
     34          1           0        0.994112    0.197202    1.151353
     35          1           0        4.356839    1.078472   -1.451412
     36          1           0        2.874726    2.153992   -1.472961
     37          1           0        3.153524    2.584848    1.004151
     38          1           0        4.633066    1.506437    1.016961
     39          1           0        4.928554   -1.816541    0.236313
 ---------------------------------------------------------------------

 SCF Done:  E(UB3LYP) =  -806.006659677     A.U. after   33 cycles
 SCF Done:  E(UB3LYP) =  -806.006659677     a.u. after    1 cycles

 The electronic state is 2-A.
 Alpha  occ. eigenvalues --  -19.07533 -19.02326 -18.99161 -14.24617 -14.23209
 Alpha  occ. eigenvalues --  -10.21796 -10.20000 -10.12372 -10.12182 -10.12008
 Alpha  occ. eigenvalues --  -10.10615 -10.10089 -10.10060 -10.08303 -10.07369
 Alpha  occ. eigenvalues --  -10.07062 -10.06672  -1.01812  -0.95653  -0.92840
 Alpha  occ. eigenvalues --   -0.84943  -0.82747  -0.78965  -0.71968  -0.65182
 Alpha  occ. eigenvalues --   -0.63471  -0.61211  -0.59677  -0.58392  -0.55736
 Alpha  occ. eigenvalues --   -0.53081  -0.50017  -0.48157  -0.45849  -0.43721
 Alpha  occ. eigenvalues --   -0.41379  -0.41207  -0.39815  -0.39091  -0.38048
 Alpha  occ. eigenvalues --   -0.37004  -0.36413  -0.35749  -0.34962  -0.34003
 Alpha  occ. eigenvalues --   -0.33190  -0.32635  -0.32278  -0.31276  -0.30544
 Alpha  occ. eigenvalues --   -0.29985  -0.29819  -0.29098  -0.28903  -0.28261
 Alpha  occ. eigenvalues --   -0.27137  -0.24989  -0.24350  -0.24099  -0.23628
 Alpha  occ. eigenvalues --   -0.23459  -0.21771  -0.19223  -0.18754  -0.15606
 Alpha  occ. eigenvalues --   -0.15176   0.04069
 Alpha virt. eigenvalues --    0.05421   0.06200   0.07167   0.07315   0.07790
 Alpha virt. eigenvalues --    0.08327   0.08443   0.09169   0.09743   0.09925
 Alpha virt. eigenvalues --    0.10611   0.10755   0.11390   0.11531   0.11907

  Beta  occ. eigenvalues --  -19.07474 -19.02311 -18.99158 -14.24617 -14.23207
  Beta  occ. eigenvalues --  -10.21795 -10.19997 -10.12355 -10.12176 -10.12002
  Beta  occ. eigenvalues --  -10.10602 -10.10066 -10.10034 -10.08300 -10.07350
  Beta  occ. eigenvalues --  -10.07053 -10.06651  -1.01746  -0.95647  -0.92781
  Beta  occ. eigenvalues --   -0.84937  -0.82736  -0.78947  -0.71955  -0.65163
  Beta  occ. eigenvalues --   -0.63446  -0.61187  -0.59638  -0.58318  -0.55711
  Beta  occ. eigenvalues --   -0.53008  -0.49985  -0.48066  -0.45828  -0.43673
  Beta  occ. eigenvalues --   -0.41340  -0.41175  -0.39792  -0.39061  -0.38033
  Beta  occ. eigenvalues --   -0.36977  -0.36388  -0.35719  -0.34942  -0.33979
  Beta  occ. eigenvalues --   -0.33169  -0.32615  -0.32242  -0.31253  -0.30515
  Beta  occ. eigenvalues --   -0.29964  -0.29800  -0.29069  -0.28876  -0.28242
  Beta  occ. eigenvalues --   -0.27120  -0.24966  -0.24323  -0.24064  -0.23603
  Beta  occ. eigenvalues --   -0.23426  -0.21750  -0.19178  -0.18734  -0.15594
  Beta  occ. eigenvalues --   -0.15168
  Beta virt. eigenvalues --    0.05864   0.06707   0.07080   0.07517   0.07738
  Beta virt. eigenvalues --    0.07992   0.08506   0.08719   0.09602   0.10055
  Beta virt. eigenvalues --    0.10090   0.10779   0.10888   0.11551   0.11830

 Mulliken charges and spin densities:
               1          2
     1  C    0.230977  -0.901042
     2  C   -0.798994   1.098081
     3  C    0.422909  -0.932657
     4  C   -0.045940  -0.374483
     5  C   -0.101139  -0.419403
     6  N    0.225120   0.045542
     7  C   -0.079797  -0.286872
     8  C   -0.343010   0.140925
     9  O   -0.280671  -0.000474
    10  N   -0.162194   0.071732
    11  C    0.572082  -1.823585
    12  C   -0.397465   1.268119
    13  C    0.125419  -0.405523
    14  C    0.863651  -1.194457
    15  C   -0.352826   0.315313
    16  O   -0.255604  -0.031155
    17  O   -0.219000   0.086595
    18  H   -0.156202   0.301522
    19  H    0.047304   0.088262
    20  H   -0.001405   0.138964
    21  H    0.190481   0.019876
    22  H   -0.038535   0.178243
    23  H   -0.348033   0.486570
    24  H   -0.088958   0.232487
    25  H    0.042026   0.137596
    26  H    0.155475   0.036030
    27  H    0.097741   0.018277
    28  H   -0.018631   0.155512
    29  H    0.228219   0.007344
    30  H    0.007583   0.176806
    31  H    0.009089   0.128946
    32  H    0.228752   0.047252
    33  H    0.416023  -0.235060
    34  H    0.187851   0.014373
    35  H   -0.044708   0.255430
    36  H   -0.085608   0.241314
    37  H   -0.453395   0.625108
    38  H   -0.231402   0.439564
    39  H   -0.547186   0.848929
 Sum of Mulliken charges =  -1.00000   1.00000

 Dipole moment (field-independent basis, Debye):
    X=             -5.1972    Y=             -0.1587    Z=             -1.7985  Tot=              5.5019
 Quadrupole moment (field-independent basis, Debye-Ang):
   XX=           -219.9426   YY=           -147.9547   ZZ=           -140.8393
   XY=             10.8596   XZ=             -1.8751   YZ=             -2.1979

 Summary of Natural Population Analysis:

                                       Natural Population
                Natural  -----------------------------------------------
    Atom  No    Charge         Core      Valence    Rydberg      Total
 -----------------------------------------------------------------------
      C    1   -0.28492      0.99965     2.27967    0.00560     3.28492
      C    2   -0.12306      0.99959     2.11416    0.00932     3.12306
      C    3   -0.28346      0.99965     2.27785    0.00596     3.28346
      C    4    0.00395      0.99958     1.98271    0.01377     2.99605
      C    5   -0.29430      0.99964     2.28992    0.00475     3.29430
      N    6   -0.26702      0.99963     2.75736    0.01004     3.76702
      C    7   -0.18349      0.99963     2.17608    0.00779     3.18349
      C    8    0.41538      0.99966     1.56203    0.02293     2.58462
      O    9   -0.34145      0.99988     3.33698    0.00460     4.34145
      N   10   -0.33833      0.99968     2.82993    0.00872     3.83833
      C   11   -0.08322      0.99956     2.07218    0.01149     3.08322
      C   12   -0.09810      0.99950     2.08350    0.01510     3.09810
      C   13   -0.18640      0.99960     2.17759    0.00922     3.18640
      C   14   -0.17711      0.99960     2.16780    0.00971     3.17711
      C   15    0.41402      0.99961     1.56146    0.02492     2.58598
      O   16   -0.31023      0.99987     3.30435    0.00601     4.31023
      O   17   -0.34696      0.99988     3.33993    0.00715     4.34696
      H   18    0.09585      0.00000     0.40321    0.00094     0.40415
      H   19    0.09912      0.00000     0.40011    0.00077     0.40088
      H   20    0.09984      0.00000     0.39944    0.00072     0.40016
      H   21    0.10911      0.00000     0.38910    0.00179     0.39089
      H   22    0.09530      0.00000     0.40363    0.00107     0.40470
      H   23    0.10214      0.00000     0.39649    0.00137     0.39786
      H   24    0.09865      0.00000     0.40058    0.00077     0.40135
      H   25    0.09372      0.00000     0.40463    0.00164     0.40628
      H   26    0.11231      0.00000     0.38677    0.00093     0.38769
      H   27    0.09867      0.00000     0.40054    0.00079     0.40133
      H   28    0.09832      0.00000     0.40087    0.00081     0.40168
      H   29    0.12202      0.00000     0.37657    0.00141     0.37798
      H   30    0.09281      0.00000     0.40619    0.00100     0.40719
      H   31    0.09187      0.00000     0.40729    0.00084     0.40813
      H   32    0.18774      0.00000     0.30957    0.00270     0.31226
      H   33    0.09001      0.00000     0.40822    0.00177     0.40999
      H   34    0.10925      0.00000     0.38891    0.00184     0.39075
      H   35    0.11593      0.00000     0.38279    0.00128     0.38407
      H   36    0.10356      0.00000     0.39538    0.00105     0.39644
      H   37    0.10699      0.00000     0.39145    0.00155     0.39301
      H   38    0.11440      0.00000     0.38376    0.00184     0.38560
      H   39    0.24708      0.00000     0.23276    0.02017     0.25292
 =======================================================================
   * Total *    0.00000     16.99418    48.78171    0.22411    66.00000

 Normal termination of Gaussian 16 at Mon Dec 14 17:56:55 2020.
