 Gaussian 16, Revision A.03,

 -----------------------------------------------------------
 # opt freq B3LYP/6-31G(d) empiricaldispersion=gd3bj scf=xqc
 -----------------------------------------------------------

 ------------------------------
 CID_84161473_JID_8823_neutraal
 ------------------------------
 Symbolic Z-matrix:
 Charge =  0 Multiplicity = 1

 SCF Done:  E(RB3LYP) =  -769.569978472     A.U. after   14 cycles
 SCF Done:  E(RB3LYP) =  -769.576661777     A.U. after   11 cycles
 SCF Done:  E(RB3LYP) =  -769.577456964     A.U. after   12 cycles
 SCF Done:  E(RB3LYP) =  -769.578023928     A.U. after   12 cycles
 SCF Done:  E(RB3LYP) =  -769.578564443     A.U. after   12 cycles
 SCF Done:  E(RB3LYP) =  -769.578903811     A.U. after   12 cycles
 SCF Done:  E(RB3LYP) =  -769.579002585     A.U. after   11 cycles
 SCF Done:  E(RB3LYP) =  -769.579153668     A.U. after   11 cycles
 SCF Done:  E(RB3LYP) =  -769.579199387     A.U. after   11 cycles
 SCF Done:  E(RB3LYP) =  -769.579212522     A.U. after   10 cycles
 SCF Done:  E(RB3LYP) =  -769.579432711     A.U. after   11 cycles
 SCF Done:  E(RB3LYP) =  -769.579496304     A.U. after   11 cycles
 SCF Done:  E(RB3LYP) =  -769.579496410     A.U. after    7 cycles
 SCF Done:  E(RB3LYP) =  -769.579496515     A.U. after    7 cycles
 SCF Done:  E(RB3LYP) =  -769.579496483     A.U. after    7 cycles
 Optimization completed.
    -- Stationary point found.
 Normal termination of Gaussian 16 at Fri Dec 11 22:40:13 2020.

 --------------------------------------------------------------------
 #N Geom=AllCheck Guess=TCheck SCRF=Check GenChk RB3LYP/6-31G(d) Freq
 --------------------------------------------------------------------

 Structure from the checkpoint file:  "JID_8823.chk"
 ------------------------------
 CID_84161473_JID_8823_neutraal
 ------------------------------
 Charge =  0 Multiplicity = 1

 SCF Done:  E(RB3LYP) =  -769.579496483     A.U. after    1 cycles

  Exact polarizability: 220.494  -4.892 140.450  -1.208  -3.053 148.502
 Approx polarizability: 286.600 -12.227 189.071  -7.815  -7.630 259.781

                      1                      2                      3
                      A                      A                      A
 Frequencies --     25.7312                39.0006                42.8305
 Red. masses --      3.5320                 4.2082                 3.3632
 Frc consts  --      0.0014                 0.0038                 0.0036
 IR Inten    --      0.1834                 0.0159                 0.5920

                      4                      5                      6
                      A                      A                      A
 Frequencies --     70.7672               102.1928               120.1745
 Red. masses --      3.3294                 3.6611                 2.3189
 Frc consts  --      0.0098                 0.0225                 0.0197
 IR Inten    --      1.0351                 2.4366                 0.1506

                      7                      8                      9
                      A                      A                      A
 Frequencies --    151.9585               191.9978               239.1256
 Red. masses --      4.1690                 3.3972                 2.7082
 Frc consts  --      0.0567                 0.0738                 0.0912
 IR Inten    --      0.3733                 0.8852                 0.8566

                     10                     11                     12
                      A                      A                      A
 Frequencies --    250.6869               266.6631               273.3811
 Red. masses --      2.0282                 1.2318                 1.7005
 Frc consts  --      0.0751                 0.0516                 0.0749
 IR Inten    --      0.1577                 0.1025                 1.1454

                     13                     14                     15
                      A                      A                      A
 Frequencies --    278.4239               289.5676               326.8610
 Red. masses --      2.0960                 2.8073                 2.6921
 Frc consts  --      0.0957                 0.1387                 0.1695
 IR Inten    --      1.2289                 2.3819                 2.9978

                     16                     17                     18
                      A                      A                      A
 Frequencies --    365.1257               371.1781               392.3548
 Red. masses --      2.2752                 2.8898                 3.0357
 Frc consts  --      0.1787                 0.2346                 0.2753
 IR Inten    --      6.4626                 0.5985                 0.5673

                     19                     20                     21
                      A                      A                      A
 Frequencies --    404.3570               434.1111               440.7885
 Red. masses --      2.8385                 3.2139                 3.3384
 Frc consts  --      0.2734                 0.3568                 0.3822
 IR Inten    --      4.0444                 0.1807                 2.1083

                     22                     23                     24
                      A                      A                      A
 Frequencies --    481.4121               494.0520               523.1365
 Red. masses --      2.5952                 3.5420                 3.2213
 Frc consts  --      0.3544                 0.5094                 0.5194
 IR Inten    --      2.9847                 2.4804                 5.0402

                     25                     26                     27
                      A                      A                      A
 Frequencies --    539.1444               566.1704               600.7328
 Red. masses --      2.6946                 2.5426                 3.2823
 Frc consts  --      0.4615                 0.4802                 0.6979
 IR Inten    --      6.3180                15.5030                14.8328

                     28                     29                     30
                      A                      A                      A
 Frequencies --    654.8760               690.5242               721.0948
 Red. masses --      6.5998                 1.8541                 3.3276
 Frc consts  --      1.6676                 0.5209                 1.0195
 IR Inten    --      0.4300                83.3794                23.6589

                     31                     32                     33
                      A                      A                      A
 Frequencies --    750.5533               785.5167               793.5432
 Red. masses --      3.9900                 2.4119                 1.0683
 Frc consts  --      1.3243                 0.8768                 0.3963
 IR Inten    --      4.6430                44.8927                 0.4421

                     34                     35                     36
                      A                      A                      A
 Frequencies --    815.8979               822.4622               851.9947
 Red. masses --      3.4880                 1.2979                 3.0057
 Frc consts  --      1.3680                 0.5173                 1.2855
 IR Inten    --     34.7866                 4.5171                 7.0830

                     37                     38                     39
                      A                      A                      A
 Frequencies --    858.5226               886.2954               920.6251
 Red. masses --      1.7302                 2.3565                 1.7884
 Frc consts  --      0.7514                 1.0906                 0.8931
 IR Inten    --     26.2738                26.8165                 3.9154

                     40                     41                     42
                      A                      A                      A
 Frequencies --    937.8625               943.2635               945.2265
 Red. masses --      1.3744                 1.7459                 1.6883
 Frc consts  --      0.7122                 0.9152                 0.8887
 IR Inten    --      0.3920                 4.8316                 6.6104

                     43                     44                     45
                      A                      A                      A
 Frequencies --    953.0815               966.9525               985.2021
 Red. masses --      1.5390                 1.3273                 2.0350
 Frc consts  --      0.8236                 0.7312                 1.1638
 IR Inten    --      1.7716                 0.1441                 7.3896

                     46                     47                     48
                      A                      A                      A
 Frequencies --   1016.0919              1032.9972              1038.9740
 Red. masses --      2.6290                 2.5757                 1.6578
 Frc consts  --      1.5992                 1.6193                 1.0544
 IR Inten    --      2.1694                 1.3631                 1.9522

                     49                     50                     51
                      A                      A                      A
 Frequencies --   1051.2377              1067.2542              1080.2738
 Red. masses --      2.0613                 1.8366                 1.5643
 Frc consts  --      1.3421                 1.2325                 1.0755
 IR Inten    --      8.0598                 9.5022                 1.8729

                     52                     53                     54
                      A                      A                      A
 Frequencies --   1085.4676              1092.3167              1133.9231
 Red. masses --      5.3565                 2.2199                 1.2713
 Frc consts  --      3.7185                 1.5605                 0.9631
 IR Inten    --     56.5630                24.7393                13.5626

                     55                     56                     57
                      A                      A                      A
 Frequencies --   1152.9665              1165.0436              1181.2271
 Red. masses --      2.5489                 2.1234                 2.8719
 Frc consts  --      1.9963                 1.6981                 2.3609
 IR Inten    --     18.3988                13.9047                46.3324

                     58                     59                     60
                      A                      A                      A
 Frequencies --   1183.4843              1187.1299              1199.9156
 Red. masses --      3.8473                 1.2722                 1.3350
 Frc consts  --      3.1749                 1.0564                 1.1325
 IR Inten    --     33.3281                 0.8844                 1.7989

                     61                     62                     63
                      A                      A                      A
 Frequencies --   1203.2097              1219.6881              1249.6061
 Red. masses --      1.1730                 1.3859                 2.0169
 Frc consts  --      1.0005                 1.2148                 1.8556
 IR Inten    --      6.6356                10.4487               108.1658

                     64                     65                     66
                      A                      A                      A
 Frequencies --   1269.2954              1297.9977              1317.8653
 Red. masses --      1.2959                 4.1573                 2.2211
 Frc consts  --      1.2301                 4.1268                 2.2728
 IR Inten    --      6.3358               233.5976                 2.5606

                     67                     68                     69
                      A                      A                      A
 Frequencies --   1325.4964              1337.8122              1347.6644
 Red. masses --      1.8370                 1.5988                 2.0374
 Frc consts  --      1.9016                 1.6860                 2.1802
 IR Inten    --     10.0006                 5.9858                60.6468

                     70                     71                     72
                      A                      A                      A
 Frequencies --   1354.2344              1361.3806              1382.3368
 Red. masses --      2.8820                 1.3319                 1.4397
 Frc consts  --      3.1141                 1.4544                 1.6208
 IR Inten    --      5.6291                28.0941                 3.1201

                     73                     74                     75
                      A                      A                      A
 Frequencies --   1394.5368              1412.9584              1423.7508
 Red. masses --      1.2639                 1.2413                 1.3778
 Frc consts  --      1.4482                 1.4601                 1.6455
 IR Inten    --      1.9785                 9.5929                18.2821

                     76                     77                     78
                      A                      A                      A
 Frequencies --   1439.2192              1445.8007              1464.1717
 Red. masses --      1.2473                 1.4924                 3.1692
 Frc consts  --      1.5223                 1.8380                 4.0030
 IR Inten    --     10.9927                22.3006                 0.4604

                     79                     80                     81
                      A                      A                      A
 Frequencies --   1491.8322              1495.5164              1500.4993
 Red. masses --      1.0849                 1.0864                 1.1979
 Frc consts  --      1.4225                 1.4316                 1.5891
 IR Inten    --      1.8055                 1.6043                24.8748

                     82                     83                     84
                      A                      A                      A
 Frequencies --   1511.8952              1515.9680              1518.9926
 Red. masses --      1.2053                 1.1437                 1.0991
 Frc consts  --      1.6233                 1.5487                 1.4942
 IR Inten    --     17.5924                12.8699                 9.8569

                     85                     86                     87
                      A                      A                      A
 Frequencies --   1520.9138              1523.0460              1534.3693
 Red. masses --      1.0479                 1.0555                 1.1746
 Frc consts  --      1.4281                 1.4426                 1.6293
 IR Inten    --      5.2836                 7.6267                 4.0307

                     88                     89                     90
                      A                      A                      A
 Frequencies --   1535.5271              1536.4095              1565.5726
 Red. masses --      1.1810                 1.0774                 2.4009
 Frc consts  --      1.6406                 1.4984                 3.4671
 IR Inten    --     16.8908                37.0279               179.2445

                     91                     92                     93
                      A                      A                      A
 Frequencies --   1631.3567              1672.7308              2898.8434
 Red. masses --      7.0589                 5.8017                 1.0815
 Frc consts  --     11.0683                 9.5643                 5.3546
 IR Inten    --      1.7246                28.0998                54.6194

                     94                     95                     96
                      A                      A                      A
 Frequencies --   2952.7624              3022.5326              3022.8554
 Red. masses --      1.0721                 1.0646                 1.0364
 Frc consts  --      5.5076                 5.7303                 5.5799
 IR Inten    --     58.2782                82.1212                41.6020

                     97                     98                     99
                      A                      A                      A
 Frequencies --   3030.0969              3059.3855              3074.1452
 Red. masses --      1.0606                 1.0377                 1.1049
 Frc consts  --      5.7374                 5.7226                 6.1522
 IR Inten    --     46.2643                27.5580                25.7793

                    100                    101                    102
                      A                      A                      A
 Frequencies --   3080.1692              3083.9968              3095.2741
 Red. masses --      1.1065                 1.0966                 1.0895
 Frc consts  --      6.1851                 6.1450                 6.1500
 IR Inten    --     44.7227                33.6859                18.0992

                    103                    104                    105
                      A                      A                      A
 Frequencies --   3122.0600              3131.2790              3136.6098
 Red. masses --      1.1018                 1.0517                 1.0570
 Frc consts  --      6.3273                 6.0755                 6.1267
 IR Inten    --     37.4715                24.1871                17.6943

                    106                    107                    108
                      A                      A                      A
 Frequencies --   3148.4671              3157.6698              3186.9807
 Red. masses --      1.1006                 1.0994                 1.0890
 Frc consts  --      6.4279                 6.4586                 6.5167
 IR Inten    --     21.6549                30.5264                14.2787

                    109                    110                    111
                      A                      A                      A
 Frequencies --   3203.7757              3204.3961              3218.9468
 Red. masses --      1.0878                 1.1189                 1.1160
 Frc consts  --      6.5787                 6.7694                 6.8133
 IR Inten    --      8.1461                 1.0971                26.7478

                    112                    113                    114
                      A                      A                      A
 Frequencies --   3219.3216              3224.9268              3503.4332
 Red. masses --      1.0948                 1.0914                 1.0736
 Frc consts  --      6.6855                 6.6876                 7.7642
 IR Inten    --      9.0766                12.3437                 0.7582

 - Thermochemistry -
 -------------------
 Temperature   298.150 Kelvin.  Pressure   1.00000 Atm.
 Atom     1 has atomic number  6 and mass  12.00000

 Molecular mass:   246.17321 amu.
 Principal axes and moments of inertia in atomic units:
                           1         2         3
     Eigenvalues --  2190.116918123.829779275.63992
           X            0.99997   0.00194   0.00697
           Y           -0.00189   0.99997  -0.00683
           Z           -0.00698   0.00682   0.99995
 This molecule is an asymmetric top.
 Rotational symmetry number  1.
 Warning -- assumption of classical behavior for rotation
           may cause significant error
 Rotational temperatures (Kelvin)      0.03955     0.01066     0.00934
 Rotational constants (GHZ):           0.82404     0.22215     0.19457
 Zero-point vibrational energy     925989.2 (Joules/Mol)
                                  221.31673 (Kcal/Mol)
 Warning -- explicit consideration of  27 degrees of freedom as
           vibrations may cause significant error
 Vibrational temperatures:     37.02    56.11    61.62   101.82   147.03
          (Kelvin)            172.90   218.63   276.24   344.05   360.68
                              383.67   393.33   400.59   416.62   470.28
                              525.33   534.04   564.51   581.78   624.59
                              634.20   692.64   710.83   752.68   775.71
                              814.59   864.32   942.22   993.51  1037.49
                             1079.88  1130.18  1141.73  1173.90  1183.34
                             1225.83  1235.22  1275.18  1324.57  1349.37
                             1357.15  1359.97  1371.27  1391.23  1417.49
                             1461.93  1486.25  1494.85  1512.50  1535.54
                             1554.27  1561.75  1571.60  1631.46  1658.86
                             1676.24  1699.52  1702.77  1708.02  1726.41
                             1731.15  1754.86  1797.90  1826.23  1867.53
                             1896.11  1907.09  1924.81  1938.99  1948.44
                             1958.72  1988.87  2006.43  2032.93  2048.46
                             2070.72  2080.18  2106.62  2146.41  2151.71
                             2158.88  2175.28  2181.14  2185.49  2188.26
                             2191.32  2207.62  2209.28  2210.55  2252.51
                             2347.16  2406.69  4170.79  4248.37  4348.75
                             4349.21  4359.63  4401.77  4423.01  4431.68
                             4437.18  4453.41  4491.95  4505.21  4512.88
                             4529.94  4543.18  4585.35  4609.52  4610.41
                             4631.35  4631.89  4639.95  5040.66

 Zero-point correction=                           0.352691 (Hartree/Particle)
 Thermal correction to Energy=                    0.369645
 Thermal correction to Enthalpy=                  0.370590
 Thermal correction to Gibbs Free Energy=         0.307372
 Sum of electronic and zero-point Energies=           -769.226806
 Sum of electronic and thermal Energies=              -769.209851
 Sum of electronic and thermal Enthalpies=            -769.208907
 Sum of electronic and thermal Free Energies=         -769.272124

                     E (Thermal)             CV                S
                      KCal/Mol        Cal/Mol-Kelvin    Cal/Mol-Kelvin
 Total                  231.956             67.339            133.052
 Electronic               0.000              0.000              0.000
 Translational            0.889              2.981             42.403
 Rotational               0.889              2.981             33.467
 Vibrational            230.179             61.378             57.182
 Vibration     1          0.593              1.985              6.134
 Vibration     2          0.594              1.981              5.309
 Vibration     3          0.595              1.980              5.124
 Vibration     4          0.598              1.968              4.132
 Vibration     5          0.604              1.947              3.412
 Vibration     6          0.609              1.932              3.098
 Vibration     7          0.619              1.900              2.648
 Vibration     8          0.634              1.851              2.208
 Vibration     9          0.657              1.781              1.809
 Vibration    10          0.663              1.762              1.726
 Vibration    11          0.672              1.734              1.618
 Vibration    12          0.676              1.722              1.575
 Vibration    13          0.679              1.713              1.543
 Vibration    14          0.686              1.693              1.476
 Vibration    15          0.711              1.622              1.276
 Vibration    16          0.738              1.544              1.100
 Vibration    17          0.743              1.531              1.075
 Vibration    18          0.760              1.487              0.991
 Vibration    19          0.770              1.461              0.947
 Vibration    20          0.795              1.396              0.845
 Vibration    21          0.801              1.381              0.824
 Vibration    22          0.838              1.291              0.706
 Vibration    23          0.850              1.263              0.673
 Vibration    24          0.878              1.199              0.603
 Vibration    25          0.894              1.163              0.567
 Vibration    26          0.922              1.104              0.512
 Vibration    27          0.959              1.030              0.448

 Optimization completed.
    -- Stationary point found.
 Normal termination of Gaussian 16 at Fri Dec 11 22:57:33 2020.

 ----------------------------------------------------------------------
 # B3LYP/6-311++G(d,p) empiricaldispersion=gd3bj scf=xqc pop=npa geom=c
 heck
 ----------------------------------------------------------------------

 --------------------------------------
 CID_84161473_JID_8823_Energie_neutraal
 --------------------------------------
 Structure from the checkpoint file:  "JID_8823.chk"
 Charge =  0 Multiplicity = 1

 SCF Done:  E(RB3LYP) =  -769.788042612     A.U. after   15 cycles
 Normal termination of Gaussian 16 at Fri Dec 11 23:04:48 2020.

 ----------------------------------------------------------------------
 # B3LYP/6-311++G(d,p) empiricaldispersion=gd3bj scf=xqc pop=npa geom=c
 heck
 ----------------------------------------------------------------------

 ------------------------------------
 CID_84161473_JID_8823_Energie_kation
 ------------------------------------
 Structure from the checkpoint file:  "JID_8823.chk"
 Charge =  1 Multiplicity = 2

 SCF Done:  E(UB3LYP) =  -769.519963453     A.U. after   22 cycles
 Normal termination of Gaussian 16 at Fri Dec 11 23:18:59 2020.
 Gaussian 16:  ES64L-G16RevA.03 25-Dec-2016

 ----------------------------------------------------------------------
 # B3LYP/6-311++G(d,p) empiricaldispersion=gd3bj scf=xqc pop=npa geom=c
 heck
 ----------------------------------------------------------------------

 -----------------------------------
 CID_84161473_JID_8823_Energie_anion
 -----------------------------------
 Structure from the checkpoint file:  "JID_8823.chk"
 Charge = -1 Multiplicity = 2

                         Standard orientation:
 ---------------------------------------------------------------------
 Center     Atomic      Atomic             Coordinates (Angstroms)
 Number     Number       Type             X           Y           Z
 ---------------------------------------------------------------------
      1          6           0       -0.237994    2.806370    0.045111
      2          6           0       -1.196695    1.700164    0.487783
      3          6           0       -2.607830    2.041716   -0.046067
      4          7           0       -3.699013    1.093837    0.130189
      5          6           0       -3.577960   -0.147266   -0.626615
      6          6           0       -2.701581   -1.230327   -0.004222
      7          6           0       -3.357630   -2.464335    0.570524
      8          6           0       -2.610742   -2.541624   -0.740775
      9          6           0       -1.479686   -0.718621    0.741288
     10          7           0       -0.767439    0.357522    0.037967
     11          6           0        0.649978    0.154658   -0.048398
     12          6           0        1.268127    0.206174   -1.304177
     13          6           0        2.639043    0.028080   -1.436642
     14          6           0        3.428103   -0.219354   -0.305430
     15          6           0        2.826511   -0.282908    0.956516
     16          6           0        1.447823   -0.090944    1.072955
     17          8           0        4.764039   -0.387596   -0.537333
     18          6           0        5.602205   -0.638682    0.576660
     19          1           0        0.753276    2.696202    0.490100
     20          1           0       -0.642061    3.779384    0.345261
     21          1           0       -0.122077    2.806820   -1.044264
     22          1           0       -1.240781    1.710185    1.596277
     23          1           0       -2.911182    2.991940    0.413766
     24          1           0       -2.516705    2.224643   -1.124783
     25          1           0       -3.877241    0.908043    1.114609
     26          1           0       -3.168182    0.122388   -1.606588
     27          1           0       -4.581869   -0.558269   -0.804367
     28          1           0       -4.443077   -2.526567    0.548451
     29          1           0       -2.904962   -2.928550    1.444215
     30          1           0       -3.193064   -2.653248   -1.652805
     31          1           0       -1.653392   -3.056082   -0.761173
     32          1           0       -0.791685   -1.553679    0.902036
     33          1           0       -1.789014   -0.373158    1.744054
     34          1           0        0.646215    0.384784   -2.175613
     35          1           0        3.122958    0.065988   -2.407316
     36          1           0        3.414540   -0.472885    1.846804
     37          1           0        0.989506   -0.129983    2.057682
     38          1           0        5.577491    0.191159    1.295659
     39          1           0        5.321542   -1.567094    1.091952
     40          1           0        6.612583   -0.739378    0.176567
 ---------------------------------------------------------------------

 SCF Done:  E(UB3LYP) =  -769.774590333     A.U. after   33 cycles
 SCF Done:  E(UB3LYP) =  -769.774590333     a.u. after    1 cycles

 The electronic state is 2-A.
 Alpha  occ. eigenvalues --  -19.06078 -14.21699 -14.21027 -10.14271 -10.12450
 Alpha  occ. eigenvalues --  -10.11238 -10.10648 -10.10596 -10.10466 -10.10445
 Alpha  occ. eigenvalues --  -10.09349 -10.08542 -10.08472 -10.08298 -10.08272
 Alpha  occ. eigenvalues --  -10.08171 -10.08138 -10.07374  -0.97675  -0.85088
 Alpha  occ. eigenvalues --   -0.81417  -0.77741  -0.75587  -0.68640  -0.66347
 Alpha  occ. eigenvalues --   -0.65816  -0.61474  -0.61033  -0.57919  -0.55809
 Alpha  occ. eigenvalues --   -0.52790  -0.52007  -0.50818  -0.48086  -0.45820
 Alpha  occ. eigenvalues --   -0.44372  -0.42746  -0.41299  -0.40052  -0.38251
 Alpha  occ. eigenvalues --   -0.37829  -0.37642  -0.37421  -0.35877  -0.35499
 Alpha  occ. eigenvalues --   -0.33825  -0.33499  -0.32739  -0.32499  -0.30541
 Alpha  occ. eigenvalues --   -0.29584  -0.28948  -0.28742  -0.28542  -0.27984
 Alpha  occ. eigenvalues --   -0.27466  -0.26886  -0.25796  -0.25413  -0.23920
 Alpha  occ. eigenvalues --   -0.22851  -0.21181  -0.19190  -0.16727  -0.14742
 Alpha  occ. eigenvalues --   -0.13145  -0.12222   0.04134
 Alpha virt. eigenvalues --    0.05625   0.06540   0.06784   0.07249   0.07438
 Alpha virt. eigenvalues --    0.08113   0.08411   0.08546   0.08955   0.09324
 Alpha virt. eigenvalues --    0.09557   0.10009   0.10326   0.10845   0.11632

  Beta  occ. eigenvalues --  -19.06068 -14.21689 -14.21016 -10.14272 -10.12395
  Beta  occ. eigenvalues --  -10.11228 -10.10649 -10.10591 -10.10453 -10.10440
  Beta  occ. eigenvalues --  -10.09348 -10.08537 -10.08455 -10.08297 -10.08256
  Beta  occ. eigenvalues --  -10.08169 -10.08120 -10.07367  -0.97652  -0.85072
  Beta  occ. eigenvalues --   -0.81399  -0.77731  -0.75573  -0.68623  -0.66320
  Beta  occ. eigenvalues --   -0.65796  -0.61459  -0.60983  -0.57881  -0.55783
  Beta  occ. eigenvalues --   -0.52762  -0.51973  -0.50784  -0.48057  -0.45793
  Beta  occ. eigenvalues --   -0.44332  -0.42724  -0.41277  -0.40026  -0.38223
  Beta  occ. eigenvalues --   -0.37800  -0.37617  -0.37391  -0.35852  -0.35476
  Beta  occ. eigenvalues --   -0.33803  -0.33479  -0.32718  -0.32454  -0.30524
  Beta  occ. eigenvalues --   -0.29565  -0.28930  -0.28723  -0.28525  -0.27967
  Beta  occ. eigenvalues --   -0.27443  -0.26865  -0.25772  -0.25396  -0.23881
  Beta  occ. eigenvalues --   -0.22831  -0.21163  -0.19178  -0.16717  -0.14711
  Beta  occ. eigenvalues --   -0.13129  -0.12191
  Beta virt. eigenvalues --    0.06021   0.06689   0.06874   0.07041   0.07290
  Beta virt. eigenvalues --    0.07971   0.08391   0.08481   0.08922   0.09093
  Beta virt. eigenvalues --    0.09428   0.10061   0.10438   0.10758   0.11052

 Mulliken charges and spin densities:
               1          2
     1  C   -0.593023  -0.122811
     2  C    0.071635   0.176371
     3  C    0.139740  -0.582258
     4  N   -0.187172   0.136598
     5  C    0.164759  -0.803954
     6  C   -0.471012   1.504195
     7  C    0.226014  -0.662116
     8  C   -0.312997  -0.043378
     9  C    0.409857  -1.352264
    10  N    0.785078  -0.015018
    11  C   -0.279769  -0.904559
    12  C   -0.282894   0.492138
    13  C   -0.325870   0.458409
    14  C   -0.733252  -0.086505
    15  C   -0.049284  -0.011546
    16  C    1.076601  -0.934068
    17  O   -0.220065   0.065193
    18  C    1.094987  -1.450261
    19  H    0.188166  -0.008891
    20  H    0.058431   0.080034
    21  H    0.078858   0.048677
    22  H   -0.083773   0.227787
    23  H    0.011495   0.139913
    24  H    0.192537  -0.023551
    25  H    0.006825   0.230927
    26  H    0.113925   0.022339
    27  H    0.087030   0.088099
    28  H   -0.085334   0.232616
    29  H   -0.175493   0.327090
    30  H    0.056299   0.076372
    31  H    0.076558   0.072718
    32  H    0.312084  -0.167819
    33  H   -0.019149   0.213932
    34  H    0.069035   0.073008
    35  H    0.076905   0.111835
    36  H   -0.492195   0.723266
    37  H   -0.749436   0.937115
    38  H   -0.302534   0.461690
    39  H   -0.313135   0.473261
    40  H   -0.620432   0.795417
 Sum of Mulliken charges =  -1.00000   1.00000

 Dipole moment (field-independent basis, Debye):
    X=             -6.6662    Y=              2.0077    Z=             -5.9083  Tot=              9.1311
 Quadrupole moment (field-independent basis, Debye-Ang):
   XX=           -236.6430   YY=           -148.9990   ZZ=           -151.0412
   XY=              6.5898   XZ=             -9.2047   YZ=              2.1277

 Summary of Natural Population Analysis:

                                       Natural Population
                Natural  -----------------------------------------------
    Atom  No    Charge         Core      Valence    Rydberg      Total
 -----------------------------------------------------------------------
      C    1   -0.29297      0.99964     2.28714    0.00619     3.29297
      C    2   -0.00606      0.99957     1.99500    0.01149     3.00606
      C    3   -0.08511      0.99959     2.07290    0.01263     3.08511
      N    4   -0.33946      0.99975     2.82813    0.01157     3.83946
      C    5   -0.08067      0.99957     2.06843    0.01268     3.08067
      C    6   -0.05549      0.99953     2.04379    0.01216     3.05549
      C    7   -0.19666      0.99959     2.18819    0.00888     3.19666
      C    8   -0.19415      0.99959     2.18594    0.00862     3.19415
      C    9   -0.07973      0.99955     2.06741    0.01277     3.07973
      N   10   -0.29193      0.99966     2.77814    0.01413     3.79193
      C   11    0.06885      0.99946     1.91830    0.01340     2.93115
      C   12   -0.09572      0.99950     2.08805    0.00817     3.09572
      C   13   -0.11991      0.99952     2.11145    0.00894     3.11991
      C   14    0.15852      0.99938     1.82800    0.01410     2.84148
      C   15   -0.13848      0.99952     2.12944    0.00952     3.13848
      C   16   -0.10067      0.99950     2.09108    0.01010     3.10067
      O   17   -0.27378      0.99986     3.26393    0.00999     4.27378
      C   18   -0.10089      0.99960     2.09217    0.00912     3.10089
      H   19    0.10956      0.00000     0.38957    0.00088     0.39044
      H   20    0.10050      0.00000     0.39881    0.00069     0.39950
      H   21    0.09942      0.00000     0.39967    0.00090     0.40058
      H   22    0.07983      0.00000     0.41796    0.00220     0.42017
      H   23    0.09301      0.00000     0.40609    0.00090     0.40699
      H   24    0.08868      0.00000     0.41010    0.00121     0.41132
      H   25    0.17340      0.00000     0.32385    0.00275     0.32660
      H   26    0.09487      0.00000     0.40392    0.00121     0.40513
      H   27    0.09205      0.00000     0.40688    0.00107     0.40795
      H   28    0.10118      0.00000     0.39770    0.00112     0.39882
      H   29    0.10351      0.00000     0.39547    0.00101     0.39649
      H   30    0.09932      0.00000     0.39990    0.00078     0.40068
      H   31    0.10402      0.00000     0.39516    0.00082     0.39598
      H   32    0.10382      0.00000     0.39436    0.00182     0.39618
      H   33    0.08840      0.00000     0.40927    0.00234     0.41160
      H   34    0.10319      0.00000     0.39558    0.00123     0.39681
      H   35    0.10504      0.00000     0.39396    0.00100     0.39496
      H   36    0.11079      0.00000     0.38701    0.00221     0.38921
      H   37    0.10595      0.00000     0.39183    0.00222     0.39405
      H   38    0.08658      0.00000     0.41117    0.00225     0.41342
      H   39    0.08665      0.00000     0.41116    0.00219     0.41335
      H   40    0.09455      0.00000     0.40385    0.00160     0.40545
 =======================================================================
   * Total *   -0.00000     17.99237    48.78074    0.22689    67.00000

 Normal termination of Gaussian 16 at Fri Dec 11 23:40:22 2020.
