 Gaussian 16, Revision A.03,

 -----------------------------------------------------------
 # opt freq B3LYP/6-31G(d) empiricaldispersion=gd3bj scf=xqc
 -----------------------------------------------------------

 -------------------------------
 CID_129930639_JID_1303_neutraal
 -------------------------------
 Symbolic Z-matrix:
 Charge =  0 Multiplicity = 1

 SCF Done:  E(RB3LYP) =  -483.100528760     A.U. after   14 cycles
 SCF Done:  E(RB3LYP) =  -483.119787393     A.U. after   12 cycles
 SCF Done:  E(RB3LYP) =  -483.121434071     A.U. after   12 cycles
 SCF Done:  E(RB3LYP) =  -483.120608682     A.U. after   12 cycles
 SCF Done:  E(RB3LYP) =  -483.121549308     A.U. after   11 cycles
 SCF Done:  E(RB3LYP) =  -483.121210688     A.U. after   12 cycles
 SCF Done:  E(RB3LYP) =  -483.121770362     A.U. after   11 cycles
 SCF Done:  E(RB3LYP) =  -483.121833562     A.U. after   11 cycles
 SCF Done:  E(RB3LYP) =  -483.121855420     A.U. after   11 cycles
 SCF Done:  E(RB3LYP) =  -483.121861909     A.U. after   10 cycles
 SCF Done:  E(RB3LYP) =  -483.121863764     A.U. after    8 cycles
 SCF Done:  E(RB3LYP) =  -483.121864730     A.U. after    9 cycles
 SCF Done:  E(RB3LYP) =  -483.121865569     A.U. after    9 cycles
 SCF Done:  E(RB3LYP) =  -483.121866498     A.U. after    9 cycles
 SCF Done:  E(RB3LYP) =  -483.121866803     A.U. after    9 cycles
 SCF Done:  E(RB3LYP) =  -483.121866886     A.U. after    7 cycles
 Optimization completed.
    -- Stationary point found.
 Normal termination of Gaussian 16 at Tue Dec  8 19:41:55 2020.

 --------------------------------------------------------------------
 #N Geom=AllCheck Guess=TCheck SCRF=Check GenChk RB3LYP/6-31G(d) Freq
 --------------------------------------------------------------------

 Structure from the checkpoint file:  "JID_1303.chk"
 -------------------------------
 CID_129930639_JID_1303_neutraal
 -------------------------------
 Charge =  0 Multiplicity = 1

 SCF Done:  E(RB3LYP) =  -483.121866886     A.U. after    1 cycles

  Exact polarizability: 135.228  -7.529  94.842   7.228  -1.466  88.571
 Approx polarizability: 171.574 -18.331 130.657  14.544  -5.551 125.533

                      1                      2                      3
                      A                      A                      A
 Frequencies --     19.3284                30.5621                48.1747
 Red. masses --      3.7639                 2.9827                 3.0667
 Frc consts  --      0.0008                 0.0016                 0.0042
 IR Inten    --      1.4872                 0.6356                 0.4182

                      4                      5                      6
                      A                      A                      A
 Frequencies --     64.4912                93.0131               131.7346
 Red. masses --      2.9599                 3.2090                 3.3209
 Frc consts  --      0.0073                 0.0164                 0.0340
 IR Inten    --      1.4803                 0.4713                 0.2856

                      7                      8                      9
                      A                      A                      A
 Frequencies --    156.8125               194.5166               216.0663
 Red. masses --      1.7896                 2.6200                 1.7656
 Frc consts  --      0.0259                 0.0584                 0.0486
 IR Inten    --      0.5756                 1.5134                 6.6168

                     10                     11                     12
                      A                      A                      A
 Frequencies --    255.9172               260.6427               279.6882
 Red. masses --      1.2262                 2.7356                 1.4419
 Frc consts  --      0.0473                 0.1095                 0.0665
 IR Inten    --      9.1856                 2.2231                 7.3229

                     13                     14                     15
                      A                      A                      A
 Frequencies --    304.2130               340.4620               366.8282
 Red. masses --      2.5728                 1.4269                 2.0565
 Frc consts  --      0.1403                 0.0975                 0.1630
 IR Inten    --     10.2040               111.3177                 5.0939

                     16                     17                     18
                      A                      A                      A
 Frequencies --    397.3836               477.4740               531.9910
 Red. masses --      3.2208                 2.7968                 3.7695
 Frc consts  --      0.2997                 0.3757                 0.6286
 IR Inten    --      2.5770                 1.2577                 8.5654

                     19                     20                     21
                      A                      A                      A
 Frequencies --    555.2385               575.5069               738.0943
 Red. masses --      3.3594                 4.6907                 2.0569
 Frc consts  --      0.6102                 0.9154                 0.6602
 IR Inten    --      4.6538                 7.8966                41.6448

                     22                     23                     24
                      A                      A                      A
 Frequencies --    754.5993               777.7973               832.0024
 Red. masses --      1.3267                 1.7356                 2.1017
 Frc consts  --      0.4451                 0.6186                 0.8572
 IR Inten    --      5.4761                46.1321                 1.7207

                     25                     26                     27
                      A                      A                      A
 Frequencies --    870.9987               911.7377               976.8576
 Red. masses --      1.4213                 1.8050                 1.9981
 Frc consts  --      0.6353                 0.8840                 1.1234
 IR Inten    --      6.6559                 4.9839                 6.5163

                     28                     29                     30
                      A                      A                      A
 Frequencies --    992.2698               994.6758              1021.4952
 Red. masses --      1.5235                 1.5565                 2.1371
 Frc consts  --      0.8838                 0.9073                 1.3138
 IR Inten    --     19.7366                31.4933                 9.6599

                     31                     32                     33
                      A                      A                      A
 Frequencies --   1051.9672              1062.6664              1085.7487
 Red. masses --      2.4124                 2.4465                 1.7641
 Frc consts  --      1.5729                 1.6278                 1.2253
 IR Inten    --     25.0227                44.5722                 5.8875

                     34                     35                     36
                      A                      A                      A
 Frequencies --   1097.3433              1149.8111              1155.9513
 Red. masses --      2.4759                 3.2206                 2.1340
 Frc consts  --      1.7566                 2.5087                 1.6800
 IR Inten    --     14.6563                41.5380                 2.9322

                     37                     38                     39
                      A                      A                      A
 Frequencies --   1180.7423              1198.5425              1227.9507
 Red. masses --      2.1053                 1.9971                 1.0963
 Frc consts  --      1.7293                 1.6903                 0.9740
 IR Inten    --     11.1708                45.5341                25.7714

                     40                     41                     42
                      A                      A                      A
 Frequencies --   1264.7744              1285.1287              1327.5743
 Red. masses --      1.3274                 1.3168                 1.1795
 Frc consts  --      1.2511                 1.2814                 1.2248
 IR Inten    --      5.3352                 1.9509                 1.8587

                     43                     44                     45
                      A                      A                      A
 Frequencies --   1351.6466              1364.7652              1368.7804
 Red. masses --      1.3620                 1.2638                 1.2082
 Frc consts  --      1.4660                 1.3869                 1.3337
 IR Inten    --     17.8899                49.8841                 1.9903

                     46                     47                     48
                      A                      A                      A
 Frequencies --   1389.7311              1405.0292              1422.8090
 Red. masses --      1.3789                 1.4476                 1.2657
 Frc consts  --      1.5691                 1.6837                 1.5097
 IR Inten    --      5.3260                 3.1387                 3.5252

                     49                     50                     51
                      A                      A                      A
 Frequencies --   1435.7322              1437.0881              1445.3105
 Red. masses --      1.2616                 1.2867                 1.2716
 Frc consts  --      1.5322                 1.5656                 1.5651
 IR Inten    --     78.5353                52.5897                 4.3872

                     52                     53                     54
                      A                      A                      A
 Frequencies --   1501.4007              1508.5521              1520.3787
 Red. masses --      1.1402                 1.1086                 1.0602
 Frc consts  --      1.5143                 1.4864                 1.4439
 IR Inten    --     18.6938                16.0536                 1.2404

                     55                     56                     57
                      A                      A                      A
 Frequencies --   1523.6172              1526.1625              1530.2599
 Red. masses --      1.0812                 1.0470                 1.0546
 Frc consts  --      1.4788                 1.4368                 1.4551
 IR Inten    --      0.8472                 3.9226                 6.4460

                     58                     59                     60
                      A                      A                      A
 Frequencies --   1532.4501              1542.9061              1551.9472
 Red. masses --      1.0670                 1.0974                 1.0778
 Frc consts  --      1.4764                 1.5392                 1.5294
 IR Inten    --     18.7178                 3.4495                14.3316

                     61                     62                     63
                      A                      A                      A
 Frequencies --   2362.2326              2966.0460              2988.7903
 Red. masses --     11.8914                 1.0715                 1.0724
 Frc consts  --     39.0957                 5.5539                 5.6441
 IR Inten    --      3.6028                57.4977                57.5825

                     64                     65                     66
                      A                      A                      A
 Frequencies --   3020.5191              3034.3399              3039.5037
 Red. masses --      1.0828                 1.0656                 1.0622
 Frc consts  --      5.8204                 5.7803                 5.7817
 IR Inten    --     16.1511                21.3520                17.9185

                     67                     68                     69
                      A                      A                      A
 Frequencies --   3044.8528              3055.3601              3057.2028
 Red. masses --      1.0367                 1.0444                 1.0777
 Frc consts  --      5.6630                 5.7445                 5.9347
 IR Inten    --     27.1444                19.2776                46.3216

                     70                     71                     72
                      A                      A                      A
 Frequencies --   3069.1987              3085.6944              3088.1943
 Red. masses --      1.0985                 1.0892                 1.1007
 Frc consts  --      6.0969                 6.1101                 6.1846
 IR Inten    --     32.1910                24.0350                45.3859

                     73                     74                     75
                      A                      A                      A
 Frequencies --   3108.5758              3114.4349              3127.6198
 Red. masses --      1.1024                 1.1016                 1.1023
 Frc consts  --      6.2764                 6.2956                 6.3529
 IR Inten    --     68.8820                41.4556                27.6498

                     76                     77                     78
                      A                      A                      A
 Frequencies --   3136.2887              3495.5811              3741.6992
 Red. masses --      1.1031                 1.0734                 1.0662
 Frc consts  --      6.3928                 7.7277                 8.7950
 IR Inten    --     34.2431                 0.2325                14.3531

 - Thermochemistry -
 -------------------
 Temperature   298.150 Kelvin.  Pressure   1.00000 Atm.
 Atom     1 has atomic number  6 and mass  12.00000

 Molecular mass:   155.13101 amu.
 Principal axes and moments of inertia in atomic units:
                           1         2         3
     Eigenvalues --  1013.815384828.784645185.11889
           X            0.99998   0.00579  -0.00002
           Y           -0.00579   0.99998  -0.00375
           Z            0.00000   0.00375   0.99999
 This molecule is an asymmetric top.
 Rotational symmetry number  1.
 Warning -- assumption of classical behavior for rotation
           may cause significant error
 Rotational temperatures (Kelvin)      0.08543     0.01794     0.01670
 Rotational constants (GHZ):           1.78015     0.37375     0.34806
 Zero-point vibrational energy     658864.1 (Joules/Mol)
                                  157.47230 (Kcal/Mol)
 Warning -- explicit consideration of  20 degrees of freedom as
           vibrations may cause significant error
 Vibrational temperatures:     27.81    43.97    69.31    92.79   133.83
          (Kelvin)            189.54   225.62   279.87   310.87   368.21
                              375.01   402.41   437.69   489.85   527.78
                              571.75   686.98   765.42   798.86   828.03
                             1061.95  1085.70  1119.08  1197.07  1253.17
                             1311.79  1405.48  1427.65  1431.12  1469.70
                             1513.55  1528.94  1562.15  1578.83  1654.32
                             1663.16  1698.82  1724.44  1766.75  1819.73
                             1849.01  1910.08  1944.72  1963.59  1969.37
                             1999.51  2021.52  2047.10  2065.70  2067.65
                             2079.48  2160.18  2170.47  2187.49  2192.15
                             2195.81  2201.70  2204.85  2219.90  2232.91
                             3398.73  4267.48  4300.20  4345.85  4365.74
                             4373.17  4380.86  4395.98  4398.63  4415.89
                             4439.63  4443.22  4472.55  4480.98  4499.95
                             4512.42  5029.36  5383.47

 Zero-point correction=                           0.250948 (Hartree/Particle)
 Thermal correction to Energy=                    0.264953
 Thermal correction to Enthalpy=                  0.265897
 Thermal correction to Gibbs Free Energy=         0.207965
 Sum of electronic and zero-point Energies=           -482.870919
 Sum of electronic and thermal Energies=              -482.856914
 Sum of electronic and thermal Enthalpies=            -482.855970
 Sum of electronic and thermal Free Energies=         -482.913901

                     E (Thermal)             CV                S
                      KCal/Mol        Cal/Mol-Kelvin    Cal/Mol-Kelvin
 Total                  166.260             49.144            121.927
 Electronic               0.000              0.000              0.000
 Translational            0.889              2.981             41.027
 Rotational               0.889              2.981             31.607
 Vibrational            164.483             43.182             49.293
 Vibration     1          0.593              1.986              6.702
 Vibration     2          0.594              1.984              5.793
 Vibration     3          0.595              1.978              4.891
 Vibration     4          0.597              1.971              4.315
 Vibration     5          0.602              1.954              3.596
 Vibration     6          0.612              1.922              2.921
 Vibration     7          0.620              1.895              2.588
 Vibration     8          0.635              1.848              2.184
 Vibration     9          0.645              1.817              1.992
 Vibration    10          0.666              1.753              1.689
 Vibration    11          0.669              1.745              1.657
 Vibration    12          0.680              1.711              1.536
 Vibration    13          0.695              1.666              1.394
 Vibration    14          0.720              1.595              1.210
 Vibration    15          0.740              1.540              1.093
 Vibration    16          0.764              1.476              0.972
 Vibration    17          0.834              1.300              0.717
 Vibration    18          0.887              1.179              0.583
 Vibration    19          0.911              1.128              0.533
 Vibration    20          0.932              1.084              0.494

                           ! Non-Optimized Parameters !
 Normal termination of Gaussian 16 at Tue Dec  8 19:47:07 2020.

 ----------------------------------------------------------------------
 # B3LYP/6-311++G(d,p) empiricaldispersion=gd3bj scf=xqc pop=npa geom=c
 heck
 ----------------------------------------------------------------------

 ---------------------------------------
 CID_129930639_JID_1303_Energie_neutraal
 ---------------------------------------
 Structure from the checkpoint file:  "JID_1303.chk"
 Charge =  0 Multiplicity = 1

 SCF Done:  E(RB3LYP) =  -483.276458808     A.U. after   13 cycles
 Normal termination of Gaussian 16 at Tue Dec  8 19:49:52 2020.

 ----------------------------------------------------------------------
 # B3LYP/6-311++G(d,p) empiricaldispersion=gd3bj scf=xqc pop=npa geom=c
 heck
 ----------------------------------------------------------------------

 -------------------------------------
 CID_129930639_JID_1303_Energie_kation
 -------------------------------------
 Structure from the checkpoint file:  "JID_1303.chk"
 Charge =  1 Multiplicity = 2

 SCF Done:  E(UB3LYP) =  -482.964317157     A.U. after   24 cycles
 Normal termination of Gaussian 16 at Tue Dec  8 19:56:23 2020.
 Gaussian 16:  ES64L-G16RevA.03 25-Dec-2016

 ----------------------------------------------------------------------
 # B3LYP/6-311++G(d,p) empiricaldispersion=gd3bj scf=xqc pop=npa geom=c
 heck
 ----------------------------------------------------------------------

 ------------------------------------
 CID_129930639_JID_1303_Energie_anion
 ------------------------------------
 Structure from the checkpoint file:  "JID_1303.chk"
 Charge = -1 Multiplicity = 2

                         Standard orientation:
 ---------------------------------------------------------------------
 Center     Atomic      Atomic             Coordinates (Angstroms)
 Number     Number       Type             X           Y           Z
 ---------------------------------------------------------------------
      1          6           0       -3.739855   -0.571322    1.364342
      2          6           0       -3.182250   -1.421214    0.217924
      3          6           0       -2.909870   -0.634658   -1.074114
      4          6           0       -1.943337    0.542456   -0.913325
      5          7           0       -0.638979    0.088083   -0.436558
      6          6           0        0.405768    1.121076   -0.414599
      7          6           0        0.122492    2.326654    0.509940
      8          6           0        1.686354    0.503144   -0.047440
      9          6           0        2.738676    0.024437    0.309326
     10          6           0        3.999848   -0.633116    0.665142
     11          8           0        4.665578   -1.218375   -0.450570
     12          1           0       -3.023567    0.191151    1.692499
     13          1           0       -3.980103   -1.191620    2.234758
     14          1           0       -4.656500   -0.050897    1.060915
     15          1           0       -2.259496   -1.920806    0.542233
     16          1           0       -3.889766   -2.228273   -0.010949
     17          1           0       -2.503643   -1.317794   -1.829415
     18          1           0       -3.860031   -0.244898   -1.465019
     19          1           0       -1.787913    1.012917   -1.892986
     20          1           0       -2.406008    1.312444   -0.271301
     21          1           0       -0.724435   -0.303613    0.499663
     22          1           0        0.486922    1.496579   -1.445228
     23          1           0        0.019297    1.990109    1.547752
     24          1           0        0.943205    3.049544    0.466268
     25          1           0       -0.800413    2.834391    0.213849
     26          1           0        4.706110    0.093302    1.081983
     27          1           0        3.809165   -1.381121    1.452584
     28          1           0        4.008437   -1.755737   -0.920310
 ---------------------------------------------------------------------

 SCF Done:  E(UB3LYP) =  -483.263698582     A.U. after   29 cycles

 The electronic state is 2-A.
 Alpha  occ. eigenvalues --  -19.03450 -14.19968 -10.14553 -10.12571 -10.09079
 Alpha  occ. eigenvalues --  -10.07048 -10.06765 -10.06656 -10.06579 -10.06475
 Alpha  occ. eigenvalues --  -10.05870  -0.93561  -0.81589  -0.70383  -0.67651
 Alpha  occ. eigenvalues --   -0.64970  -0.60758  -0.59530  -0.54741  -0.52251
 Alpha  occ. eigenvalues --   -0.46786  -0.44310  -0.41118  -0.38405  -0.37982
 Alpha  occ. eigenvalues --   -0.36374  -0.35574  -0.34348  -0.32734  -0.32564
 Alpha  occ. eigenvalues --   -0.29913  -0.28960  -0.28452  -0.27318  -0.26698
 Alpha  occ. eigenvalues --   -0.26589  -0.23443  -0.23035  -0.22819  -0.20268
 Alpha  occ. eigenvalues --   -0.17159  -0.16600  -0.13091   0.04291
 Alpha virt. eigenvalues --    0.06356   0.07034   0.07552   0.08604   0.08773
 Alpha virt. eigenvalues --    0.09369   0.09749   0.10414   0.10811   0.11653
 Alpha virt. eigenvalues --    0.11762   0.11943   0.12561   0.13669   0.14036

  Beta  occ. eigenvalues --  -19.03421 -14.19955 -10.14528 -10.12562 -10.09059
  Beta  occ. eigenvalues --  -10.07034 -10.06751 -10.06645 -10.06567 -10.06434
  Beta  occ. eigenvalues --  -10.05831  -0.93494  -0.81561  -0.70344  -0.67600
  Beta  occ. eigenvalues --   -0.64909  -0.60703  -0.59462  -0.54676  -0.52181
  Beta  occ. eigenvalues --   -0.46723  -0.44257  -0.41069  -0.38364  -0.37924
  Beta  occ. eigenvalues --   -0.36335  -0.35523  -0.34316  -0.32690  -0.32510
  Beta  occ. eigenvalues --   -0.29867  -0.28908  -0.28413  -0.27279  -0.26647
  Beta  occ. eigenvalues --   -0.26550  -0.23402  -0.23001  -0.22785  -0.20231
  Beta  occ. eigenvalues --   -0.17077  -0.16573  -0.13069
  Beta virt. eigenvalues --    0.06372   0.07144   0.07762   0.08043   0.08926
  Beta virt. eigenvalues --    0.09155   0.09807   0.10098   0.10788   0.11115
  Beta virt. eigenvalues --    0.11938   0.12111   0.12290   0.12785   0.13903

 Mulliken charges and spin densities:
               1          2
     1  C    1.360129  -1.900842
     2  C   -1.153693   0.984433
     3  C    1.053512  -1.356764
     4  C   -0.294638  -0.020901
     5  N    0.134153  -0.096321
     6  C   -1.398388   1.199104
     7  C    1.189628  -1.818972
     8  C    0.129399   0.025779
     9  C   -0.768251   0.878194
    10  C    1.092007  -1.612202
    11  O   -0.283123   0.028466
    12  H   -0.255473   0.406606
    13  H   -0.286974   0.422329
    14  H   -0.288130   0.424867
    15  H   -0.194770   0.334638
    16  H   -0.186170   0.342696
    17  H    0.072650   0.071519
    18  H   -0.217861   0.353307
    19  H   -0.251504   0.395255
    20  H    0.227030  -0.113693
    21  H    0.537693  -0.381802
    22  H   -0.108429   0.280838
    23  H   -0.212636   0.374258
    24  H   -0.106530   0.252318
    25  H   -0.398696   0.549827
    26  H   -0.075418   0.250089
    27  H   -0.350138   0.517463
    28  H    0.034621   0.209511
 Sum of Mulliken charges =  -1.00000   1.00000

 Dipole moment (field-independent basis, Debye):
    X=              0.7798    Y=             -0.0239    Z=             -1.4782  Tot=              1.6714
 Quadrupole moment (field-independent basis, Debye-Ang):
   XX=           -159.5678   YY=           -108.8292   ZZ=           -102.9474
   XY=              3.6694   XZ=              6.8067   YZ=              1.5512

 Summary of Natural Population Analysis:

                                       Natural Population
                Natural  -----------------------------------------------
    Atom  No    Charge         Core      Valence    Rydberg      Total
 -----------------------------------------------------------------------
      C    1   -0.28884      0.99967     2.28374    0.00543     3.28884
      C    2   -0.19451      0.99964     2.18614    0.00873     3.19451
      C    3   -0.18774      0.99963     2.18011    0.00800     3.18774
      C    4   -0.08937      0.99962     2.07875    0.01101     3.08937
      N    5   -0.33605      0.99973     2.82396    0.01236     3.83605
      C    6   -0.04452      0.99956     2.03207    0.01289     3.04452
      C    7   -0.28740      0.99965     2.28130    0.00645     3.28740
      C    8   -0.00777      0.99931     1.99614    0.01232     3.00777
      C    9    0.00477      0.99924     1.99049    0.00550     2.99523
      C   10   -0.05028      0.99958     2.03507    0.01563     3.05028
      O   11   -0.36350      0.99990     3.35560    0.00800     4.36350
      H   12    0.09664      0.00000     0.40187    0.00149     0.40336
      H   13    0.09966      0.00000     0.39909    0.00124     0.40034
      H   14    0.09647      0.00000     0.40220    0.00133     0.40353
      H   15    0.09420      0.00000     0.40447    0.00133     0.40580
      H   16    0.09591      0.00000     0.40296    0.00113     0.40409
      H   17    0.09813      0.00000     0.40050    0.00137     0.40187
      H   18    0.09489      0.00000     0.40394    0.00118     0.40511
      H   19    0.09238      0.00000     0.40609    0.00153     0.40762
      H   20    0.08171      0.00000     0.41639    0.00189     0.41829
      H   21    0.17280      0.00000     0.32316    0.00404     0.32720
      H   22    0.10334      0.00000     0.39442    0.00224     0.39666
      H   23    0.10006      0.00000     0.39836    0.00157     0.39994
      H   24    0.10274      0.00000     0.39608    0.00118     0.39726
      H   25    0.10165      0.00000     0.39699    0.00135     0.39835
      H   26    0.09542      0.00000     0.40195    0.00263     0.40458
      H   27    0.08874      0.00000     0.40756    0.00370     0.41126
      H   28    0.23051      0.00000     0.26586    0.00362     0.26949
 =======================================================================
   * Total *    0.00006     10.99552    31.86526    0.13916    42.99994

 Normal termination of Gaussian 16 at Tue Dec  8 20:04:33 2020.
