 Gaussian 16, Revision A.03,

 -----------------------------------------------------------
 # opt freq B3LYP/6-31G(d) empiricaldispersion=gd3bj scf=xqc
 -----------------------------------------------------------

 ------------------------------
 CID_78911877_JID_8484_neutraal
 ------------------------------
 Symbolic Z-matrix:
 Charge =  0 Multiplicity = 1

 SCF Done:  E(RB3LYP) =  -785.849542216     A.U. after   15 cycles
 SCF Done:  E(RB3LYP) =  -785.854425842     A.U. after   13 cycles
 SCF Done:  E(RB3LYP) =  -785.856516299     A.U. after   13 cycles
 SCF Done:  E(RB3LYP) =  -785.858516092     A.U. after   13 cycles
 SCF Done:  E(RB3LYP) =  -785.859090891     A.U. after   12 cycles
 SCF Done:  E(RB3LYP) =  -785.859227207     A.U. after   12 cycles
 SCF Done:  E(RB3LYP) =  -785.859284941     A.U. after   11 cycles
 SCF Done:  E(RB3LYP) =  -785.859301913     A.U. after   10 cycles
 SCF Done:  E(RB3LYP) =  -785.859309752     A.U. after   10 cycles
 SCF Done:  E(RB3LYP) =  -785.859313457     A.U. after    8 cycles
 SCF Done:  E(RB3LYP) =  -785.859320541     A.U. after    9 cycles
 SCF Done:  E(RB3LYP) =  -785.859320935     A.U. after    8 cycles
 SCF Done:  E(RB3LYP) =  -785.859321174     A.U. after    8 cycles
 SCF Done:  E(RB3LYP) =  -785.859321254     A.U. after    8 cycles
 SCF Done:  E(RB3LYP) =  -785.859321269     A.U. after    7 cycles
 Optimization completed.
    -- Stationary point found.
 Normal termination of Gaussian 16 at Fri Dec 11 20:54:19 2020.

 --------------------------------------------------------------------
 #N Geom=AllCheck Guess=TCheck SCRF=Check GenChk RB3LYP/6-31G(d) Freq
 --------------------------------------------------------------------

 Structure from the checkpoint file:  "JID_8484.chk"
 ------------------------------
 CID_78911877_JID_8484_neutraal
 ------------------------------
 Charge =  0 Multiplicity = 1

 SCF Done:  E(RB3LYP) =  -785.859321269     A.U. after    1 cycles

  Exact polarizability: 167.147 -15.273 186.428   3.547   3.354 128.046
 Approx polarizability: 222.757 -26.629 296.397  10.786  12.399 219.402

                      1                      2                      3
                      A                      A                      A
 Frequencies --     19.0817                39.7541                41.5409
 Red. masses --      4.2545                 4.2599                 5.8664
 Frc consts  --      0.0009                 0.0040                 0.0060
 IR Inten    --      0.3467                 0.4455                 1.5586

                      4                      5                      6
                      A                      A                      A
 Frequencies --     47.7780                65.9402                86.3898
 Red. masses --      4.6072                 4.5249                 4.3828
 Frc consts  --      0.0062                 0.0116                 0.0193
 IR Inten    --      0.4410                 0.0957                 0.2498

                      7                      8                      9
                      A                      A                      A
 Frequencies --    115.5999               129.4018               196.3487
 Red. masses --      2.0254                 2.5188                 2.8673
 Frc consts  --      0.0159                 0.0248                 0.0651
 IR Inten    --      0.9216                 0.1064                 0.2015

                     10                     11                     12
                      A                      A                      A
 Frequencies --    216.1598               224.0493               231.2209
 Red. masses --      1.9079                 2.6528                 4.8516
 Frc consts  --      0.0525                 0.0785                 0.1528
 IR Inten    --      0.7038                 4.9583                 0.6381

                     13                     14                     15
                      A                      A                      A
 Frequencies --    254.7420               304.9425               327.8682
 Red. masses --      4.9319                 6.3492                 5.0637
 Frc consts  --      0.1886                 0.3479                 0.3207
 IR Inten    --      1.0871                 2.0339                 4.4980

                     16                     17                     18
                      A                      A                      A
 Frequencies --    367.3659               412.0060               416.6509
 Red. masses --      5.9741                 3.6316                 3.0511
 Frc consts  --      0.4750                 0.3632                 0.3121
 IR Inten    --      7.5533                 0.8961                 0.1268

                     19                     20                     21
                      A                      A                      A
 Frequencies --    490.8623               528.5747               609.3563
 Red. masses --      3.7545                 4.1803                 2.6777
 Frc consts  --      0.5330                 0.6881                 0.5858
 IR Inten    --      0.9403                11.5983                43.9734

                     22                     23                     24
                      A                      A                      A
 Frequencies --    613.1990               618.0510               636.9303
 Red. masses --      3.3140                 1.8987                 5.9737
 Frc consts  --      0.7342                 0.4273                 1.4278
 IR Inten    --      3.9833                23.1296                 0.3161

                     25                     26                     27
                      A                      A                      A
 Frequencies --    650.3517               684.4318               714.0842
 Red. masses --      5.2489                 3.9558                 2.4182
 Frc consts  --      1.3080                 1.0918                 0.7265
 IR Inten    --      3.5105                18.3808                17.5203

                     28                     29                     30
                      A                      A                      A
 Frequencies --    727.6260               746.8400               755.0656
 Red. masses --      2.0602                 1.3688                 1.8604
 Frc consts  --      0.6426                 0.4498                 0.6249
 IR Inten    --     20.8129                43.1685                69.4645

                     31                     32                     33
                      A                      A                      A
 Frequencies --    818.4905               824.1077               849.7152
 Red. masses --      2.5376                 1.3954                 2.7471
 Frc consts  --      1.0016                 0.5584                 1.1686
 IR Inten    --      8.2131                 9.8651                 2.1876

                     34                     35                     36
                      A                      A                      A
 Frequencies --    864.9288               867.4301               873.1909
 Red. masses --      1.3547                 2.6676                 1.3474
 Frc consts  --      0.5971                 1.1826                 0.6053
 IR Inten    --      0.6676                13.1025                 1.4465

                     37                     38                     39
                      A                      A                      A
 Frequencies --    904.5826               911.4555               935.5985
 Red. masses --      2.3586                 5.7795                 1.5315
 Frc consts  --      1.1371                 2.8288                 0.7898
 IR Inten    --      6.2995                 4.9193                 2.9154

                     40                     41                     42
                      A                      A                      A
 Frequencies --    973.3995               975.4893               986.8076
 Red. masses --      1.6232                 2.0444                 2.1835
 Frc consts  --      0.9062                 1.1462                 1.2528
 IR Inten    --      2.7352                11.3140                 5.2490

                     43                     44                     45
                      A                      A                      A
 Frequencies --    999.8592              1021.8177              1023.4230
 Red. masses --      1.2678                 1.1612                 4.6520
 Frc consts  --      0.7468                 0.7144                 2.8708
 IR Inten    --      0.6916                31.8186                 3.8038

                     46                     47                     48
                      A                      A                      A
 Frequencies --   1042.0657              1060.0306              1085.8963
 Red. masses --      1.3566                 2.2233                 1.5297
 Frc consts  --      0.8679                 1.4719                 1.0628
 IR Inten    --     25.0607                 6.0117                 2.3259

                     49                     50                     51
                      A                      A                      A
 Frequencies --   1106.4462              1119.0317              1135.6053
 Red. masses --      1.8172                 3.0840                 2.2503
 Frc consts  --      1.3107                 2.2754                 1.7098
 IR Inten    --      8.4947                 5.1515                 2.3918

                     52                     53                     54
                      A                      A                      A
 Frequencies --   1139.3718              1176.2552              1193.9556
 Red. masses --      2.8636                 1.7708                 1.0994
 Frc consts  --      2.1902                 1.4435                 0.9234
 IR Inten    --     20.9306                13.2363                 0.0876

                     55                     56                     57
                      A                      A                      A
 Frequencies --   1210.7869              1216.8318              1230.8841
 Red. masses --      1.1658                 2.7055                 3.1711
 Frc consts  --      1.0069                 2.3602                 2.8307
 IR Inten    --      7.0570                17.7960                20.6592

                     58                     59                     60
                      A                      A                      A
 Frequencies --   1265.5265              1314.6719              1330.0703
 Red. masses --      1.6375                 1.3066                 1.6059
 Frc consts  --      1.5452                 1.3305                 1.6739
 IR Inten    --      5.1840                 1.7212                 3.7992

                     61                     62                     63
                      A                      A                      A
 Frequencies --   1332.1564              1355.8904              1367.0744
 Red. masses --      1.9302                 1.3270                 1.9743
 Frc consts  --      2.0182                 1.4374                 2.1739
 IR Inten    --     17.8216                 7.8441                21.1208

                     64                     65                     66
                      A                      A                      A
 Frequencies --   1376.0199              1380.0767              1432.9325
 Red. masses --      1.8179                 3.6212                 2.6162
 Frc consts  --      2.0280                 4.0636                 3.1650
 IR Inten    --     14.4501               330.4535                 3.4698

                     67                     68                     69
                      A                      A                      A
 Frequencies --   1440.0073              1475.8473              1499.6952
 Red. masses --      1.2585                 1.5274                 2.1648
 Frc consts  --      1.5376                 1.9601                 2.8687
 IR Inten    --      3.4226                62.1948                12.7036

                     70                     71                     72
                      A                      A                      A
 Frequencies --   1507.2693              1515.9990              1546.1419
 Red. masses --      1.0457                 1.0617                 4.8155
 Frc consts  --      1.3997                 1.4376                 6.7825
 IR Inten    --      6.8903                 7.8536                11.9423

                     73                     74                     75
                      A                      A                      A
 Frequencies --   1546.4626              1643.8896              1650.3096
 Red. masses --      2.2336                 5.8913                 5.9266
 Frc consts  --      3.1473                 9.3801                 9.5101
 IR Inten    --      7.8987                 1.6157                 1.0348

                     76                     77                     78
                      A                      A                      A
 Frequencies --   1667.6249              1724.1070              1772.4486
 Red. masses --      5.5808                 6.0022                 7.5274
 Frc consts  --      9.1441                10.5121                13.9330
 IR Inten    --      2.9203                65.3673               382.7340

                     79                     80                     81
                      A                      A                      A
 Frequencies --   3036.9849              3074.7092              3084.8874
 Red. masses --      1.0374                 1.0824                 1.0996
 Frc consts  --      5.6373                 6.0291                 6.1656
 IR Inten    --     23.0661                 2.6796                16.5977

                     82                     83                     84
                      A                      A                      A
 Frequencies --   3126.9477              3177.8009              3180.6298
 Red. masses --      1.1006                 1.0921                 1.0859
 Frc consts  --      6.3407                 6.4977                 6.4722
 IR Inten    --     16.4407                 0.9216                 4.3414

                     85                     86                     87
                      A                      A                      A
 Frequencies --   3188.6111              3189.5718              3198.4181
 Red. masses --      1.0876                 1.0871                 1.0920
 Frc consts  --      6.5152                 6.5163                 6.5819
 IR Inten    --      1.8059                12.2358                25.3841

                     88                     89                     90
                      A                      A                      A
 Frequencies --   3209.7277              3218.5322              3269.3124
 Red. masses --      1.0954                 1.0940                 1.0908
 Frc consts  --      6.6488                 6.6768                 6.8689
 IR Inten    --     26.1299                 8.2724                 4.8899

                     91                     92                     93
                      A                      A                      A
 Frequencies --   3284.8556              3303.7648              3576.4560
 Red. masses --      1.0975                 1.1052                 1.0756
 Frc consts  --      6.9771                 7.1072                 8.1061
 IR Inten    --      1.0088                 1.3894                24.0175

 - Thermochemistry -
 -------------------
 Temperature   298.150 Kelvin.  Pressure   1.00000 Atm.
 Atom     1 has atomic number  6 and mass  12.00000

 Molecular mass:   241.11028 amu.
 Principal axes and moments of inertia in atomic units:
                           1         2         3
     Eigenvalues --  4306.858684618.436207389.12185
           X            0.99755   0.06763  -0.01765
           Y           -0.06791   0.99757  -0.01560
           Z            0.01655   0.01676   0.99972
 This molecule is an asymmetric top.
 Rotational symmetry number  1.
 Warning -- assumption of classical behavior for rotation
           may cause significant error
 Rotational temperatures (Kelvin)      0.02011     0.01875     0.01172
 Rotational constants (GHZ):           0.41904     0.39077     0.24424
 Zero-point vibrational energy     706305.8 (Joules/Mol)
                                  168.81113 (Kcal/Mol)
 Warning -- explicit consideration of  23 degrees of freedom as
           vibrations may cause significant error
 Vibrational temperatures:     27.45    57.20    59.77    68.74    94.87
          (Kelvin)            124.30   166.32   186.18   282.50   311.01
                              322.36   332.68   366.52   438.74   471.73
                              528.56   592.78   599.47   706.24   760.50
                              876.73   882.26   889.24   916.40   935.71
                              984.74  1027.41  1046.89  1074.54  1086.37
                             1177.63  1185.71  1222.55  1244.44  1248.04
                             1256.33  1301.49  1311.38  1346.12  1400.50
                             1403.51  1419.80  1438.57  1470.17  1472.48
                             1499.30  1525.15  1562.36  1591.93  1610.04
                             1633.88  1639.30  1692.37  1717.84  1742.05
                             1750.75  1770.97  1820.81  1891.52  1913.67
                             1916.68  1950.82  1966.92  1979.79  1985.62
                             2061.67  2071.85  2123.42  2157.73  2168.62
                             2181.18  2224.55  2225.01  2365.19  2374.43
                             2399.34  2480.61  2550.16  4369.54  4423.82
                             4438.46  4498.98  4572.15  4576.22  4587.70
                             4589.08  4601.81  4618.08  4630.75  4703.81
                             4726.17  4753.38  5145.72

 Zero-point correction=                           0.269018 (Hartree/Particle)
 Thermal correction to Energy=                    0.285443
 Thermal correction to Enthalpy=                  0.286387
 Thermal correction to Gibbs Free Energy=         0.222340
 Sum of electronic and zero-point Energies=           -785.590304
 Sum of electronic and thermal Energies=              -785.573878
 Sum of electronic and thermal Enthalpies=            -785.572934
 Sum of electronic and thermal Free Energies=         -785.636982

                     E (Thermal)             CV                S
                      KCal/Mol        Cal/Mol-Kelvin    Cal/Mol-Kelvin
 Total                  179.118             61.644            134.799
 Electronic               0.000              0.000              0.000
 Translational            0.889              2.981             42.341
 Rotational               0.889              2.981             33.352
 Vibrational            177.341             55.683             59.106
 Vibration     1          0.593              1.986              6.728
 Vibration     2          0.594              1.981              5.271
 Vibration     3          0.594              1.981              5.184
 Vibration     4          0.595              1.978              4.907
 Vibration     5          0.597              1.971              4.271
 Vibration     6          0.601              1.959              3.740
 Vibration     7          0.608              1.936              3.173
 Vibration     8          0.612              1.924              2.955
 Vibration     9          0.636              1.845              2.167
 Vibration    10          0.645              1.816              1.991
 Vibration    11          0.649              1.804              1.926
 Vibration    12          0.653              1.793              1.869
 Vibration    13          0.665              1.755              1.698
 Vibration    14          0.696              1.664              1.390
 Vibration    15          0.711              1.620              1.271
 Vibration    16          0.740              1.539              1.091
 Vibration    17          0.776              1.444              0.920
 Vibration    18          0.780              1.434              0.903
 Vibration    19          0.847              1.270              0.681
 Vibration    20          0.884              1.187              0.590
 Vibration    21          0.968              1.012              0.434
 Vibration    22          0.973              1.004              0.428
 Vibration    23          0.978              0.994              0.420

                           ! Non-Optimized Parameters !
 Normal termination of Gaussian 16 at Fri Dec 11 21:07:57 2020.

 ----------------------------------------------------------------------
 # B3LYP/6-311++G(d,p) empiricaldispersion=gd3bj scf=xqc pop=npa geom=c
 heck
 ----------------------------------------------------------------------

 --------------------------------------
 CID_78911877_JID_8484_Energie_neutraal
 --------------------------------------
 Structure from the checkpoint file:  "JID_8484.chk"
 Charge =  0 Multiplicity = 1

 SCF Done:  E(RB3LYP) =  -786.076977882     A.U. after   16 cycles
 Normal termination of Gaussian 16 at Fri Dec 11 21:14:34 2020.

 ----------------------------------------------------------------------
 # B3LYP/6-311++G(d,p) empiricaldispersion=gd3bj scf=xqc pop=npa geom=c
 heck
 ----------------------------------------------------------------------

 ------------------------------------
 CID_78911877_JID_8484_Energie_kation
 ------------------------------------
 Structure from the checkpoint file:  "JID_8484.chk"
 Charge =  1 Multiplicity = 2

 SCF Done:  E(UB3LYP) =  -785.778706964     A.U. after   31 cycles
 Normal termination of Gaussian 16 at Fri Dec 11 21:34:02 2020.
 Gaussian 16:  ES64L-G16RevA.03 25-Dec-2016

 ----------------------------------------------------------------------
 # B3LYP/6-311++G(d,p) empiricaldispersion=gd3bj scf=xqc pop=npa geom=c
 heck
 ----------------------------------------------------------------------

 -----------------------------------
 CID_78911877_JID_8484_Energie_anion
 -----------------------------------
 Structure from the checkpoint file:  "JID_8484.chk"
 Charge = -1 Multiplicity = 2

                         Standard orientation:
 ---------------------------------------------------------------------
 Center     Atomic      Atomic             Coordinates (Angstroms)
 Number     Number       Type             X           Y           Z
 ---------------------------------------------------------------------
      1          6           0        3.725151    1.373576   -1.660576
      2          6           0        2.605074    1.282597   -0.669867
      3          6           0        1.892839    2.328485   -0.232009
      4          6           0        0.866891    2.293819    0.846001
      5          8           0        0.768225    3.222419    1.640809
      6          7           0        0.064753    1.174628    0.970196
      7          6           0       -0.331503    0.251778   -0.098593
      8          6           0        0.223656   -1.159165    0.076501
      9          6           0        0.866335   -1.553277    1.250638
     10          6           0        1.365325   -2.851679    1.381367
     11          6           0        1.226835   -3.765143    0.337774
     12          6           0        0.587140   -3.374657   -0.841760
     13          6           0        0.088945   -2.080468   -0.969636
     14          6           0       -1.825448    0.223592   -0.212557
     15          6           0       -2.785619   -0.681820    0.133491
     16          6           0       -4.049788   -0.074309   -0.171480
     17          6           0       -3.764690    1.156826   -0.676781
     18          8           0       -2.415443    1.357562   -0.709328
     19          1           0        3.872057    2.398889   -2.013932
     20          1           0        3.530481    0.731110   -2.529458
     21          1           0        4.666613    1.022537   -1.217864
     22          1           0        2.394071    0.289066   -0.277799
     23          1           0        2.131099    3.336050   -0.565139
     24          1           0       -0.605883    1.282302    1.723152
     25          1           0        0.069313    0.663242   -1.030857
     26          1           0        0.985456   -0.833492    2.053617
     27          1           0        1.864077   -3.145477    2.300734
     28          1           0        1.616719   -4.774028    0.438467
     29          1           0        0.478528   -4.078682   -1.662052
     30          1           0       -0.415871   -1.779976   -1.884368
     31          1           0       -2.609366   -1.664756    0.544898
     32          1           0       -5.032314   -0.502458   -0.032348
     33          1           0       -4.367374    1.972497   -1.045353
 ---------------------------------------------------------------------

 SCF Done:  E(UB3LYP) =  -786.067874550     A.U. after   33 cycles
 SCF Done:  E(UB3LYP) =  -786.069405618     a.u. after    8 cycles

 The electronic state is 2-A.
 Alpha  occ. eigenvalues --  -19.09965 -18.96761 -14.22352 -10.15126 -10.13708
 Alpha  occ. eigenvalues --  -10.13614 -10.13061 -10.08835 -10.08341 -10.08295
 Alpha  occ. eigenvalues --  -10.07722 -10.07675 -10.07533 -10.07337 -10.07304
 Alpha  occ. eigenvalues --  -10.06968 -10.06397 -10.05565  -1.02439  -0.92028
 Alpha  occ. eigenvalues --   -0.82005  -0.75899  -0.71647  -0.69471  -0.68668
 Alpha  occ. eigenvalues --   -0.65195  -0.64892  -0.60319  -0.58719  -0.51953
 Alpha  occ. eigenvalues --   -0.51329  -0.49792  -0.48855  -0.47100  -0.45662
 Alpha  occ. eigenvalues --   -0.44674  -0.42250  -0.39271  -0.37740  -0.36343
 Alpha  occ. eigenvalues --   -0.36205  -0.35147  -0.33879  -0.33281  -0.32629
 Alpha  occ. eigenvalues --   -0.32419  -0.32014  -0.31752  -0.31007  -0.30354
 Alpha  occ. eigenvalues --   -0.28778  -0.28092  -0.27780  -0.26522  -0.25215
 Alpha  occ. eigenvalues --   -0.24738  -0.24542  -0.19887  -0.16803  -0.16009
 Alpha  occ. eigenvalues --   -0.15829  -0.15524  -0.13882  -0.13543   0.04261
 Alpha virt. eigenvalues --    0.05910   0.06202   0.07123   0.07682   0.07797
 Alpha virt. eigenvalues --    0.07860   0.08079   0.08575   0.09012   0.09805
 Alpha virt. eigenvalues --    0.10105   0.10513   0.11192   0.11412   0.12082

  Beta  occ. eigenvalues --  -19.09940 -18.96637 -14.22345 -10.15021 -10.13691
  Beta  occ. eigenvalues --  -10.13600 -10.13060 -10.08832 -10.08330 -10.08242
  Beta  occ. eigenvalues --  -10.07717 -10.07664 -10.07508 -10.07323 -10.07231
  Beta  occ. eigenvalues --  -10.06973 -10.06172 -10.05537  -1.02396  -0.91813
  Beta  occ. eigenvalues --   -0.81927  -0.75817  -0.71619  -0.69302  -0.68457
  Beta  occ. eigenvalues --   -0.65107  -0.64825  -0.60168  -0.58655  -0.51916
  Beta  occ. eigenvalues --   -0.51266  -0.49632  -0.48631  -0.47053  -0.45497
  Beta  occ. eigenvalues --   -0.44604  -0.42182  -0.39189  -0.37641  -0.36247
  Beta  occ. eigenvalues --   -0.36124  -0.35081  -0.33793  -0.33156  -0.32564
  Beta  occ. eigenvalues --   -0.32366  -0.31938  -0.31531  -0.30895  -0.30288
  Beta  occ. eigenvalues --   -0.28717  -0.27707  -0.27652  -0.26381  -0.25130
  Beta  occ. eigenvalues --   -0.24652  -0.24420  -0.19818  -0.16592  -0.15685
  Beta  occ. eigenvalues --   -0.15433  -0.15185  -0.13621  -0.13275
  Beta virt. eigenvalues --    0.06168   0.06758   0.07339   0.07463   0.08019
  Beta virt. eigenvalues --    0.08172   0.08214   0.08728   0.08831   0.09420
  Beta virt. eigenvalues --    0.09861   0.10252   0.10698   0.11214   0.11467

 Mulliken charges and spin densities:
               1          2
     1  C   -0.289315  -0.433411
     2  C   -0.175094   0.394821
     3  C   -0.089934   0.172219
     4  C   -0.171850  -0.049391
     5  O   -0.357861   0.043483
     6  N   -0.052161  -0.030529
     7  C    0.390324  -0.763864
     8  C    0.502088   0.093377
     9  C   -1.033276   1.144901
    10  C   -0.343845  -0.062770
    11  C    1.167912  -1.540764
    12  C   -0.189976  -0.160180
    13  C   -0.544258   0.144897
    14  C    0.457024  -0.813709
    15  C   -0.347229   0.590523
    16  C    0.141065  -0.687894
    17  C    0.082348   0.000746
    18  O    0.026760   0.016418
    19  H    0.082082   0.053877
    20  H   -0.088021   0.242883
    21  H    0.065841   0.068979
    22  H    0.399689  -0.220420
    23  H    0.166481   0.009884
    24  H    0.290877  -0.005495
    25  H    0.157922   0.135882
    26  H    0.076616   0.122891
    27  H   -0.242510   0.420112
    28  H   -0.366872   0.514816
    29  H   -0.521786   0.705407
    30  H   -0.031363   0.191065
    31  H    0.172495   0.024594
    32  H   -0.187707   0.350910
    33  H   -0.146465   0.325743
 Sum of Mulliken charges =  -1.00000   1.00000

 Dipole moment (field-independent basis, Debye):
    X=             -2.3005    Y=              0.9138    Z=             -0.1031  Tot=              2.4775
 Quadrupole moment (field-independent basis, Debye-Ang):
   XX=           -148.8496   YY=           -177.9689   ZZ=           -138.3066
   XY=              4.4992   XZ=             -2.5294   YZ=            -10.6371

 Summary of Natural Population Analysis:

                                       Natural Population
                Natural  -----------------------------------------------
    Atom  No    Charge         Core      Valence    Rydberg      Total
 -----------------------------------------------------------------------
      C    1   -0.30151      0.99965     2.29703    0.00483     3.30151
      C    2   -0.03023      0.99955     2.02175    0.00893     3.03023
      C    3   -0.15145      0.99947     2.14244    0.00953     3.15145
      C    4    0.34406      0.99964     1.63436    0.02194     2.65594
      O    5   -0.31364      0.99988     3.30813    0.00564     4.31364
      N    6   -0.32233      0.99967     2.81308    0.00959     3.82233
      C    7   -0.04447      0.99949     2.03064    0.01434     3.04447
      C    8   -0.01297      0.99949     2.00186    0.01162     3.01297
      C    9   -0.10269      0.99950     2.09372    0.00948     3.10269
      C   10   -0.09959      0.99956     2.08958    0.01045     3.09959
      C   11   -0.09433      0.99956     2.08466    0.01011     3.09433
      C   12   -0.10074      0.99956     2.09068    0.01050     3.10074
      C   13   -0.09589      0.99951     2.08699    0.00939     3.09589
      C   14    0.15595      0.99944     1.82967    0.01494     2.84405
      C   15   -0.14665      0.99948     2.13998    0.00719     3.14665
      C   16   -0.15264      0.99957     2.14446    0.00860     3.15264
      C   17    0.05810      0.99951     1.92798    0.01441     2.94190
      O   18   -0.23067      0.99986     3.22284    0.00797     4.23067
      H   19    0.09649      0.00000     0.40255    0.00096     0.40351
      H   20    0.10587      0.00000     0.39237    0.00177     0.39413
      H   21    0.10184      0.00000     0.39705    0.00111     0.39816
      H   22    0.09495      0.00000     0.40289    0.00216     0.40505
      H   23    0.09851      0.00000     0.40038    0.00110     0.40149
      H   24    0.19225      0.00000     0.30548    0.00227     0.30775
      H   25    0.12212      0.00000     0.37543    0.00244     0.37788
      H   26    0.10819      0.00000     0.39056    0.00126     0.39181
      H   27    0.09946      0.00000     0.39967    0.00087     0.40054
      H   28    0.10040      0.00000     0.39821    0.00139     0.39960
      H   29    0.10121      0.00000     0.39751    0.00128     0.39879
      H   30    0.10157      0.00000     0.39689    0.00155     0.39843
      H   31    0.11569      0.00000     0.38350    0.00080     0.38431
      H   32    0.10787      0.00000     0.39133    0.00080     0.39213
      H   33    0.09528      0.00000     0.40375    0.00096     0.40472
 =======================================================================
   * Total *   -0.00000     17.99241    45.79742    0.21018    64.00000

 Normal termination of Gaussian 16 at Sat Dec 12 00:03:47 2020.
