 Gaussian 16, Revision A.03,

 -----------------------------------------------------------
 # opt freq B3LYP/6-31G(d) empiricaldispersion=gd3bj scf=xqc
 -----------------------------------------------------------

 ------------------------------
 CID_81632780_JID_8027_neutraal
 ------------------------------
 Symbolic Z-matrix:
 Charge =  0 Multiplicity = 1

 SCF Done:  E(RB3LYP) =  -781.974371981     A.U. after   15 cycles
 SCF Done:  E(RB3LYP) =  -781.985739614     A.U. after   12 cycles
 SCF Done:  E(RB3LYP) =  -781.987489370     A.U. after   12 cycles
 SCF Done:  E(RB3LYP) =  -781.988091352     A.U. after   12 cycles
 SCF Done:  E(RB3LYP) =  -781.988294925     A.U. after   11 cycles
 SCF Done:  E(RB3LYP) =  -781.988369908     A.U. after   12 cycles
 SCF Done:  E(RB3LYP) =  -781.988510298     A.U. after   11 cycles
 SCF Done:  E(RB3LYP) =  -781.988580692     A.U. after   12 cycles
 SCF Done:  E(RB3LYP) =  -781.988598813     A.U. after   11 cycles
 SCF Done:  E(RB3LYP) =  -781.988673323     A.U. after   12 cycles
 SCF Done:  E(RB3LYP) =  -781.989124257     A.U. after   12 cycles
 SCF Done:  E(RB3LYP) =  -781.989124684     A.U. after    8 cycles
 SCF Done:  E(RB3LYP) =  -781.989125290     A.U. after    8 cycles
 SCF Done:  E(RB3LYP) =  -781.989125316     A.U. after    8 cycles
 SCF Done:  E(RB3LYP) =  -781.989125316     A.U. after    7 cycles
 Optimization completed.
    -- Stationary point found.
 Normal termination of Gaussian 16 at Fri Dec 11 19:04:23 2020.

 --------------------------------------------------------------------
 #N Geom=AllCheck Guess=TCheck SCRF=Check GenChk RB3LYP/6-31G(d) Freq
 --------------------------------------------------------------------

 Structure from the checkpoint file:  "JID_8027.chk"
 ------------------------------
 CID_81632780_JID_8027_neutraal
 ------------------------------
 Charge =  0 Multiplicity = 1

 SCF Done:  E(RB3LYP) =  -781.989125317     A.U. after    1 cycles

  Exact polarizability: 188.948   7.631 177.428  13.888  -2.283 111.212
 Approx polarizability: 260.278  22.461 287.824  32.348 -13.077 187.312

                      1                      2                      3
                      A                      A                      A
 Frequencies --     20.6007                50.8841                65.8128
 Red. masses --      3.8373                 3.5991                 4.9981
 Frc consts  --      0.0010                 0.0055                 0.0128
 IR Inten    --      1.3383                 0.2468                 1.3358

                      4                      5                      6
                      A                      A                      A
 Frequencies --     79.0545                94.6651               116.5461
 Red. masses --      3.5269                 3.2735                 5.7055
 Frc consts  --      0.0130                 0.0173                 0.0457
 IR Inten    --      1.1656                 1.1225                 2.6349

                      7                      8                      9
                      A                      A                      A
 Frequencies --    145.1588               207.0311               239.3980
 Red. masses --      2.6790                 4.2622                 3.6449
 Frc consts  --      0.0333                 0.1076                 0.1231
 IR Inten    --      0.9913                 3.4182                 3.7452

                     10                     11                     12
                      A                      A                      A
 Frequencies --    267.9031               281.8407               303.8127
 Red. masses --      3.6710                 2.7096                 2.1207
 Frc consts  --      0.1552                 0.1268                 0.1153
 IR Inten    --      0.5383                 7.9825                 3.6690

                     13                     14                     15
                      A                      A                      A
 Frequencies --    319.6759               393.5196               402.4867
 Red. masses --      1.3710                 5.0973                 5.0128
 Frc consts  --      0.0825                 0.4651                 0.4784
 IR Inten    --     32.7701                 0.1681                13.4049

                     16                     17                     18
                      A                      A                      A
 Frequencies --    414.9731               418.4757               498.3184
 Red. masses --      3.4719                 5.0282                 4.6722
 Frc consts  --      0.3523                 0.5188                 0.6836
 IR Inten    --      2.4290                 5.1209                 1.1541

                     19                     20                     21
                      A                      A                      A
 Frequencies --    569.2723               589.1250               633.6365
 Red. masses --      4.0426                 1.9594                 6.5574
 Frc consts  --      0.7719                 0.4007                 1.5512
 IR Inten    --     14.6983                 1.1130                 2.7741

                     22                     23                     24
                      A                      A                      A
 Frequencies --    634.4826               667.3802               699.3541
 Red. masses --      5.5699                 3.8752                 3.4664
 Frc consts  --      1.3211                 1.0169                 0.9989
 IR Inten    --     27.2820                62.2442                28.9029

                     25                     26                     27
                      A                      A                      A
 Frequencies --    709.3887               730.4730               741.2808
 Red. masses --      2.9022                 2.1850                 5.7213
 Frc consts  --      0.8605                 0.6869                 1.8523
 IR Inten    --     49.0897                25.7826                 2.4488

                     28                     29                     30
                      A                      A                      A
 Frequencies --    758.5979               809.4219               821.5709
 Red. masses --      3.7190                 2.6998                 2.0333
 Frc consts  --      1.2610                 1.0421                 0.8086
 IR Inten    --     77.5451                17.7239                 3.6378

                     31                     32                     33
                      A                      A                      A
 Frequencies --    834.9424               844.7986               860.8806
 Red. masses --      2.0039                 1.7180                 2.7543
 Frc consts  --      0.8231                 0.7224                 1.2027
 IR Inten    --     18.1659                 0.2946                 8.5809

                     34                     35                     36
                      A                      A                      A
 Frequencies --    902.7065               905.9035               942.0563
 Red. masses --      2.1649                 2.8342                 5.2706
 Frc consts  --      1.0394                 1.3704                 2.7559
 IR Inten    --      0.8932                 1.7404                10.6944

                     37                     38                     39
                      A                      A                      A
 Frequencies --    945.6347               969.2401               971.4936
 Red. masses --      1.3590                 2.2269                 1.9042
 Frc consts  --      0.7160                 1.2326                 1.0589
 IR Inten    --      1.1276                 8.3370                 6.8792

                     40                     41                     42
                      A                      A                      A
 Frequencies --    983.7029               995.6650              1017.5907
 Red. masses --      2.4490                 1.3570                 1.8163
 Frc consts  --      1.3963                 0.7926                 1.1081
 IR Inten    --      1.5702                 0.3779                 3.6710

                     43                     44                     45
                      A                      A                      A
 Frequencies --   1026.9015              1032.3406              1055.8100
 Red. masses --      1.7566                 3.3866                 5.0975
 Frc consts  --      1.0914                 2.1265                 3.3480
 IR Inten    --      5.9723                12.6367                 4.0325

                     46                     47                     48
                      A                      A                      A
 Frequencies --   1080.3853              1087.5709              1089.1481
 Red. masses --      1.5836                 2.2679                 1.4369
 Frc consts  --      1.0891                 1.5805                 1.0043
 IR Inten    --      0.4794                 3.4224                16.1054

                     49                     50                     51
                      A                      A                      A
 Frequencies --   1100.2841              1127.8098              1154.8503
 Red. masses --      1.9973                 2.2134                 1.4958
 Frc consts  --      1.4247                 1.6588                 1.1753
 IR Inten    --     15.3861                 0.3157                 3.4498

                     52                     53                     54
                      A                      A                      A
 Frequencies --   1159.2477              1200.7624              1207.3404
 Red. masses --      1.6226                 1.9312                 1.3622
 Frc consts  --      1.2848                 1.6406                 1.1699
 IR Inten    --      4.1287                12.1891                 0.4852

                     55                     56                     57
                      A                      A                      A
 Frequencies --   1227.6618              1231.0351              1239.9952
 Red. masses --      1.4343                 1.8655                 1.5965
 Frc consts  --      1.2736                 1.6656                 1.4463
 IR Inten    --      1.6648                 4.7083                 9.4260

                     58                     59                     60
                      A                      A                      A
 Frequencies --   1268.9117              1300.1242              1319.8079
 Red. masses --      1.4145                 6.4478                 1.2974
 Frc consts  --      1.3419                 6.4214                 1.3316
 IR Inten    --      2.3477                 2.7755                 0.1393

                     61                     62                     63
                      A                      A                      A
 Frequencies --   1333.6792              1345.2517              1345.8052
 Red. masses --      1.5785                 1.3821                 1.7912
 Frc consts  --      1.6543                 1.4737                 1.9114
 IR Inten    --      2.4432                 3.2893                 5.8939

                     64                     65                     66
                      A                      A                      A
 Frequencies --   1368.4679              1373.7946              1376.9286
 Red. masses --      1.9711                 1.4203                 1.3793
 Frc consts  --      2.1749                 1.5793                 1.5408
 IR Inten    --      0.5781                 0.8096                 2.3255

                     67                     68                     69
                      A                      A                      A
 Frequencies --   1455.7395              1459.6562              1508.4487
 Red. masses --      2.7332                 2.4613                 3.9822
 Frc consts  --      3.4126                 3.0896                 5.3387
 IR Inten    --     47.2543                 6.1728               138.3061

                     70                     71                     72
                      A                      A                      A
 Frequencies --   1518.5967              1524.1578              1524.3107
 Red. masses --      1.1306                 1.1924                 2.0342
 Frc consts  --      1.5361                 1.6321                 2.7847
 IR Inten    --      9.2655                 4.8406                21.7516

                     73                     74                     75
                      A                      A                      A
 Frequencies --   1540.0460              1576.7428              1617.5160
 Red. masses --      1.0996                 5.4516                 4.8395
 Frc consts  --      1.5365                 7.9854                 7.4601
 IR Inten    --      0.7387                 3.3609                 6.7767

                     76                     77                     78
                      A                      A                      A
 Frequencies --   1647.5564              1668.7776              1689.4394
 Red. masses --      5.0906                 1.9610                 2.5689
 Frc consts  --      8.1414                 3.2176                 4.3200
 IR Inten    --      9.3307                33.4385               206.7841

                     79                     80                     81
                      A                      A                      A
 Frequencies --   3051.9453              3052.6316              3057.5210
 Red. masses --      1.0660                 1.0690                 1.0641
 Frc consts  --      5.8501                 5.8693                 5.8609
 IR Inten    --     44.9590                21.5571                31.9936

                     82                     83                     84
                      A                      A                      A
 Frequencies --   3098.7181              3103.9473              3114.5286
 Red. masses --      1.0939                 1.0995                 1.1051
 Frc consts  --      6.1888                 6.2412                 6.3160
 IR Inten    --     37.9170                18.1779                46.3408

                     85                     86                     87
                      A                      A                      A
 Frequencies --   3154.8012              3176.1803              3185.7420
 Red. masses --      1.0879                 1.0883                 1.0906
 Frc consts  --      6.3797                 6.4688                 6.5214
 IR Inten    --      6.7895                24.4231                18.7792

                     88                     89                     90
                      A                      A                      A
 Frequencies --   3203.6550              3206.1535              3213.4852
 Red. masses --      1.0901                 1.0882                 1.0911
 Frc consts  --      6.5922                 6.5909                 6.6384
 IR Inten    --     16.1589                12.5149                 7.9989

                     91                     92                     93
                      A                      A                      A
 Frequencies --   3218.5771              3538.0428              3639.1184
 Red. masses --      1.0965                 1.0475                 1.0980
 Frc consts  --      6.6925                 7.7256                 8.5673
 IR Inten    --      9.6701                16.3330                20.7422

 - Thermochemistry -
 -------------------
 Temperature   298.150 Kelvin.  Pressure   1.00000 Atm.
 Atom     1 has atomic number  6 and mass  12.00000

 Molecular mass:   241.12151 amu.
 Principal axes and moments of inertia in atomic units:
                           1         2         3
     Eigenvalues --  3285.160735208.814147659.13768
           X            0.99992  -0.01269   0.00174
           Y            0.01267   0.99988   0.00895
           Z           -0.00185  -0.00892   0.99996
 This molecule is an asymmetric top.
 Rotational symmetry number  1.
 Warning -- assumption of classical behavior for rotation
           may cause significant error
 Rotational temperatures (Kelvin)      0.02637     0.01663     0.01131
 Rotational constants (GHZ):           0.54936     0.34648     0.23563
 Zero-point vibrational energy     715718.0 (Joules/Mol)
                                  171.06071 (Kcal/Mol)
 Warning -- explicit consideration of  20 degrees of freedom as
           vibrations may cause significant error
 Vibrational temperatures:     29.64    73.21    94.69   113.74   136.20
          (Kelvin)            167.68   208.85   297.87   344.44   385.45
                              405.51   437.12   459.94   566.19   579.09
                              597.05   602.09   716.97   819.06   847.62
                              911.66   912.88   960.21  1006.21  1020.65
                             1050.99  1066.54  1091.45  1164.58  1182.06
                             1201.30  1215.48  1238.62  1298.79  1303.39
                             1355.41  1360.56  1394.52  1397.76  1415.33
                             1432.54  1464.09  1477.48  1485.31  1519.08
                             1554.43  1564.77  1567.04  1583.06  1622.67
                             1661.57  1667.90  1727.63  1737.09  1766.33
                             1771.18  1784.08  1825.68  1870.59  1898.91
                             1918.87  1935.52  1936.31  1968.92  1976.58
                             1981.09  2094.48  2100.12  2170.32  2184.92
                             2192.92  2193.14  2215.78  2268.58  2327.24
                             2370.47  2401.00  2430.73  4391.07  4392.06
                             4399.09  4458.36  4465.89  4481.11  4539.06
                             4569.81  4583.57  4609.35  4612.94  4623.49
                             4630.81  5090.45  5235.88

 Zero-point correction=                           0.272603 (Hartree/Particle)
 Thermal correction to Energy=                    0.287524
 Thermal correction to Enthalpy=                  0.288468
 Thermal correction to Gibbs Free Energy=         0.228945
 Sum of electronic and zero-point Energies=           -781.716523
 Sum of electronic and thermal Energies=              -781.701601
 Sum of electronic and thermal Enthalpies=            -781.700657
 Sum of electronic and thermal Free Energies=         -781.760180

                     E (Thermal)             CV                S
                      KCal/Mol        Cal/Mol-Kelvin    Cal/Mol-Kelvin
 Total                  180.424             58.533            125.277
 Electronic               0.000              0.000              0.000
 Translational            0.889              2.981             42.342
 Rotational               0.889              2.981             33.238
 Vibrational            178.647             52.571             49.697
 Vibration     1          0.593              1.986              6.575
 Vibration     2          0.595              1.977              4.783
 Vibration     3          0.597              1.971              4.275
 Vibration     4          0.600              1.963              3.914
 Vibration     5          0.603              1.953              3.561
 Vibration     6          0.608              1.936              3.157
 Vibration     7          0.617              1.908              2.735
 Vibration     8          0.641              1.830              2.070
 Vibration     9          0.657              1.780              1.807
 Vibration    10          0.673              1.732              1.610
 Vibration    11          0.681              1.707              1.522
 Vibration    12          0.695              1.666              1.396
 Vibration    13          0.706              1.636              1.312
 Vibration    14          0.761              1.484              0.987
 Vibration    15          0.768              1.465              0.954
 Vibration    16          0.778              1.438              0.909
 Vibration    17          0.781              1.430              0.897
 Vibration    18          0.854              1.254              0.662
 Vibration    19          0.925              1.098              0.506
 Vibration    20          0.946              1.055              0.469

 Optimization completed.
    -- Stationary point found.
 Normal termination of Gaussian 16 at Fri Dec 11 19:16:45 2020.

 ----------------------------------------------------------------------
 # B3LYP/6-311++G(d,p) empiricaldispersion=gd3bj scf=xqc pop=npa geom=c
 heck
 ----------------------------------------------------------------------

 --------------------------------------
 CID_81632780_JID_8027_Energie_neutraal
 --------------------------------------
 Structure from the checkpoint file:  "JID_8027.chk"
 Charge =  0 Multiplicity = 1

 SCF Done:  E(RB3LYP) =  -782.195667825     A.U. after   17 cycles
 Normal termination of Gaussian 16 at Fri Dec 11 19:22:26 2020.

 ----------------------------------------------------------------------
 # B3LYP/6-311++G(d,p) empiricaldispersion=gd3bj scf=xqc pop=npa geom=c
 heck
 ----------------------------------------------------------------------

 ------------------------------------
 CID_81632780_JID_8027_Energie_kation
 ------------------------------------
 Structure from the checkpoint file:  "JID_8027.chk"
 Charge =  1 Multiplicity = 2

 SCF Done:  E(UB3LYP) =  -781.897329872     A.U. after   31 cycles
 Normal termination of Gaussian 16 at Fri Dec 11 19:36:32 2020.
 Gaussian 16:  ES64L-G16RevA.03 25-Dec-2016

 ----------------------------------------------------------------------
 # B3LYP/6-311++G(d,p) empiricaldispersion=gd3bj scf=xqc pop=npa geom=c
 heck
 ----------------------------------------------------------------------

 -----------------------------------
 CID_81632780_JID_8027_Energie_anion
 -----------------------------------
 Structure from the checkpoint file:  "JID_8027.chk"
 Charge = -1 Multiplicity = 2

                         Standard orientation:
 ---------------------------------------------------------------------
 Center     Atomic      Atomic             Coordinates (Angstroms)
 Number     Number       Type             X           Y           Z
 ---------------------------------------------------------------------
      1          6           0       -4.298532    0.897724    0.217384
      2          6           0       -3.767144    0.048131   -0.962866
      3          6           0       -2.244388    0.082237   -0.812556
      4          6           0       -1.913896    0.535192    0.586687
      5          6           0       -3.226821    0.795419    1.330340
      6          6           0       -1.641255   -0.899864    0.184001
      7          6           0       -0.274513   -1.421325    0.044275
      8          6           0        0.988458   -0.886141   -0.042030
      9          6           0        1.835052   -2.048180   -0.069118
     10          7           0        1.156237   -3.173424   -0.027138
     11          8           0       -0.193115   -2.769730    0.058226
     12          7           0        3.221687   -2.034087   -0.073842
     13          6           0        1.468666    0.504042   -0.050649
     14          6           0        1.047594    1.441543   -1.008282
     15          7           0        1.454694    2.712772   -1.052389
     16          6           0        2.345781    3.106609   -0.134218
     17          6           0        2.864149    2.256959    0.843800
     18          6           0        2.418687    0.939281    0.886707
     19          1           0       -5.293127    0.585875    0.553322
     20          1           0       -4.376712    1.942737   -0.104838
     21          1           0       -4.142819   -0.981533   -0.913911
     22          1           0       -4.079751    0.454688   -1.929698
     23          1           0       -1.632762    0.372435   -1.659873
     24          1           0       -1.058390    1.172631    0.780269
     25          1           0       -3.170884    1.712518    1.924974
     26          1           0       -3.452067   -0.022412    2.026041
     27          1           0       -2.323530   -1.654908    0.569901
     28          1           0        3.618328   -1.287787   -0.633401
     29          1           0        3.622110   -2.935986   -0.307832
     30          1           0        0.348306    1.137205   -1.783369
     31          1           0        2.663306    4.146149   -0.189388
     32          1           0        3.593384    2.623748    1.559759
     33          1           0        2.790174    0.245876    1.634974
 ---------------------------------------------------------------------

 SCF Done:  E(UB3LYP) =  -782.189550508     A.U. after   33 cycles
 SCF Done:  E(UB3LYP) =  -782.189550509     a.u. after    1 cycles

 The electronic state is 2-A.
 Alpha  occ. eigenvalues --  -19.08327 -14.23153 -14.22449 -14.17276 -10.12963
 Alpha  occ. eigenvalues --  -10.12650 -10.09059 -10.08287 -10.08224 -10.07953
 Alpha  occ. eigenvalues --  -10.07593 -10.07535 -10.07285 -10.07179 -10.06744
 Alpha  occ. eigenvalues --  -10.06318 -10.05953 -10.05103  -1.01978  -0.83400
 Alpha  occ. eigenvalues --   -0.81524  -0.79367  -0.72820  -0.70819  -0.67743
 Alpha  occ. eigenvalues --   -0.66023  -0.62979  -0.61617  -0.55236  -0.51443
 Alpha  occ. eigenvalues --   -0.51018  -0.49153  -0.48178  -0.46548  -0.45586
 Alpha  occ. eigenvalues --   -0.43114  -0.40969  -0.39675  -0.37859  -0.37001
 Alpha  occ. eigenvalues --   -0.36286  -0.35582  -0.34837  -0.33244  -0.32087
 Alpha  occ. eigenvalues --   -0.31566  -0.30560  -0.28433  -0.27760  -0.27636
 Alpha  occ. eigenvalues --   -0.26053  -0.25284  -0.24854  -0.24616  -0.24266
 Alpha  occ. eigenvalues --   -0.24224  -0.20891  -0.20323  -0.18230  -0.17527
 Alpha  occ. eigenvalues --   -0.15637  -0.13621  -0.13007  -0.11757   0.04650
 Alpha virt. eigenvalues --    0.06056   0.06706   0.07977   0.08092   0.08468
 Alpha virt. eigenvalues --    0.09000   0.09508   0.10027   0.10471   0.10892
 Alpha virt. eigenvalues --    0.11330   0.11412   0.11992   0.12308   0.13180

  Beta  occ. eigenvalues --  -19.08263 -14.23157 -14.22420 -14.16986 -10.12950
  Beta  occ. eigenvalues --  -10.12524 -10.09070 -10.08339 -10.08200 -10.07935
  Beta  occ. eigenvalues --  -10.07582 -10.07528 -10.07263 -10.06994 -10.06758
  Beta  occ. eigenvalues --  -10.06182 -10.06021 -10.04815  -1.01877  -0.83356
  Beta  occ. eigenvalues --   -0.81095  -0.79321  -0.72767  -0.70558  -0.67563
  Beta  occ. eigenvalues --   -0.65805  -0.62747  -0.61585  -0.55122  -0.51260
  Beta  occ. eigenvalues --   -0.50735  -0.48982  -0.48057  -0.46490  -0.45536
  Beta  occ. eigenvalues --   -0.43043  -0.40899  -0.39552  -0.37792  -0.36888
  Beta  occ. eigenvalues --   -0.36068  -0.35474  -0.34626  -0.33206  -0.32057
  Beta  occ. eigenvalues --   -0.31511  -0.30470  -0.28262  -0.27478  -0.26999
  Beta  occ. eigenvalues --   -0.25973  -0.25218  -0.24760  -0.24486  -0.24203
  Beta  occ. eigenvalues --   -0.24119  -0.20754  -0.20225  -0.18163  -0.16370
  Beta  occ. eigenvalues --   -0.15025  -0.13242  -0.12859  -0.11199
  Beta virt. eigenvalues --    0.06651   0.07126   0.08088   0.08330   0.08631
  Beta virt. eigenvalues --    0.09056   0.09296   0.09793   0.10126   0.10932
  Beta virt. eigenvalues --    0.11003   0.11403   0.11600   0.12063   0.12287

 Mulliken charges and spin densities:
               1          2
     1  C    0.848887  -1.368382
     2  C   -0.592834   0.127706
     3  C   -0.225607   0.397355
     4  C   -0.025385   0.042785
     5  C   -0.717055   0.321268
     6  C   -0.225972  -0.487769
     7  C   -0.048870  -0.152158
     8  C    0.720643  -0.413959
     9  C    0.218119   0.197593
    10  N   -0.414130  -0.008531
    11  O    0.122578   0.016276
    12  N   -0.349266   0.001471
    13  C    0.518465  -0.046306
    14  C   -0.875811   0.042872
    15  N    0.013868   0.114113
    16  C   -0.259897   0.079965
    17  C   -0.327217   0.000423
    18  C   -0.371654   0.346661
    19  H   -0.416668   0.558068
    20  H    0.093630   0.051610
    21  H    0.112031   0.024923
    22  H   -0.187749   0.330058
    23  H    0.238145   0.018949
    24  H    0.364106  -0.043071
    25  H   -0.154806   0.302872
    26  H    0.152064  -0.022714
    27  H    0.205589   0.064115
    28  H    0.166340   0.080131
    29  H   -0.038724   0.310281
    30  H    0.063901   0.058991
    31  H    0.123972   0.003363
    32  H    0.087324   0.057000
    33  H    0.181985  -0.005958
 Sum of Mulliken charges =  -1.00000   1.00000

 Dipole moment (field-independent basis, Debye):
    X=              0.9208    Y=             -0.3653    Z=              0.5425  Tot=              1.1295
 Quadrupole moment (field-independent basis, Debye-Ang):
   XX=           -169.5623   YY=           -158.3322   ZZ=           -123.7876
   XY=              6.4567   XZ=              2.1884   YZ=              4.3849

 Summary of Natural Population Analysis:

                                       Natural Population
                Natural  -----------------------------------------------
    Atom  No    Charge         Core      Valence    Rydberg      Total
 -----------------------------------------------------------------------
      C    1   -0.18863      0.99964     2.18076    0.00822     3.18863
      C    2   -0.19402      0.99963     2.18537    0.00902     3.19402
      C    3   -0.09712      0.99957     2.08811    0.00943     3.09712
      C    4   -0.10207      0.99957     2.09321    0.00929     3.10207
      C    5   -0.19257      0.99964     2.18410    0.00883     3.19257
      C    6   -0.13490      0.99953     2.12378    0.01160     3.13490
      C    7    0.21165      0.99943     1.77553    0.01338     2.78835
      C    8   -0.10111      0.99941     2.09170    0.01000     3.10111
      C    9    0.18060      0.99955     1.80381    0.01604     2.81940
      N   10   -0.12906      0.99966     2.61612    0.01329     3.62906
      O   11   -0.16825      0.99985     3.16045    0.00795     4.16825
      N   12   -0.40055      0.99971     2.89099    0.00985     3.90055
      C   13   -0.03814      0.99950     2.02951    0.00913     3.03814
      C   14    0.02016      0.99955     1.96650    0.01378     2.97984
      N   15   -0.20541      0.99971     2.69262    0.01308     3.70541
      C   16    0.04864      0.99960     1.93649    0.01528     2.95136
      C   17   -0.14013      0.99956     2.13113    0.00943     3.14013
      C   18   -0.03153      0.99953     2.02380    0.00819     3.03153
      H   19    0.09797      0.00000     0.40019    0.00184     0.40203
      H   20    0.09558      0.00000     0.40312    0.00130     0.40442
      H   21    0.09590      0.00000     0.40291    0.00119     0.40410
      H   22    0.10196      0.00000     0.39722    0.00082     0.39804
      H   23    0.10848      0.00000     0.39041    0.00111     0.39152
      H   24    0.11734      0.00000     0.38104    0.00163     0.38266
      H   25    0.10304      0.00000     0.39611    0.00085     0.39696
      H   26    0.09513      0.00000     0.40387    0.00100     0.40487
      H   27    0.10928      0.00000     0.38868    0.00204     0.39072
      H   28    0.19122      0.00000     0.30740    0.00138     0.30878
      H   29    0.18749      0.00000     0.30956    0.00295     0.31251
      H   30    0.08334      0.00000     0.41414    0.00252     0.41666
      H   31    0.08070      0.00000     0.41813    0.00117     0.41930
      H   32    0.09654      0.00000     0.40239    0.00107     0.40346
      H   33    0.09849      0.00000     0.40019    0.00132     0.40151
 =======================================================================
   * Total *   -0.00000     17.99266    45.78935    0.21799    64.00000

 Normal termination of Gaussian 16 at Fri Dec 11 19:52:20 2020.
