 Gaussian 16, Revision A.03,

 -----------------------------------------------------------
 # opt freq B3LYP/6-31G(d) empiricaldispersion=gd3bj scf=xqc
 -----------------------------------------------------------

 ------------------------------
 CID_21134345_JID_6971_neutraal
 ------------------------------
 Symbolic Z-matrix:
 Charge =  0 Multiplicity = 1

 SCF Done:  E(RB3LYP) =  -652.676719508     A.U. after   14 cycles
 SCF Done:  E(RB3LYP) =  -652.684893466     A.U. after   13 cycles
 SCF Done:  E(RB3LYP) =  -652.686853812     A.U. after   12 cycles
 SCF Done:  E(RB3LYP) =  -652.687841804     A.U. after   13 cycles
 SCF Done:  E(RB3LYP) =  -652.688350556     A.U. after   12 cycles
 SCF Done:  E(RB3LYP) =  -652.688535671     A.U. after   12 cycles
 SCF Done:  E(RB3LYP) =  -652.688603636     A.U. after   12 cycles
 SCF Done:  E(RB3LYP) =  -652.688617821     A.U. after   10 cycles
 SCF Done:  E(RB3LYP) =  -652.688623178     A.U. after   10 cycles
 SCF Done:  E(RB3LYP) =  -652.688625012     A.U. after    9 cycles
 SCF Done:  E(RB3LYP) =  -652.688626366     A.U. after    9 cycles
 SCF Done:  E(RB3LYP) =  -652.688626499     A.U. after    8 cycles
 SCF Done:  E(RB3LYP) =  -652.688626522     A.U. after    7 cycles
 SCF Done:  E(RB3LYP) =  -652.688626528     A.U. after    7 cycles
 Optimization completed.
    -- Stationary point found.
 Normal termination of Gaussian 16 at Fri Dec 11 01:16:47 2020.

 --------------------------------------------------------------------
 #N Geom=AllCheck Guess=TCheck SCRF=Check GenChk RB3LYP/6-31G(d) Freq
 --------------------------------------------------------------------

 Structure from the checkpoint file:  "JID_6971.chk"
 ------------------------------
 CID_21134345_JID_6971_neutraal
 ------------------------------
 Charge =  0 Multiplicity = 1

 SCF Done:  E(RB3LYP) =  -652.688626528     A.U. after    1 cycles

  Exact polarizability: 305.423  10.718 146.233  16.916   5.184  79.730
 Approx polarizability: 427.233  24.956 262.963  35.529  14.979 123.957

                      1                      2                      3
                      A                      A                      A
 Frequencies --     13.2935                43.3173                44.3583
 Red. masses --      3.7555                 4.1405                 2.8968
 Frc consts  --      0.0004                 0.0046                 0.0034
 IR Inten    --      0.8727                 0.2446                 0.1267

                      4                      5                      6
                      A                      A                      A
 Frequencies --     66.0874               125.9790               162.4409
 Red. masses --      3.4685                 3.2209                 3.5825
 Frc consts  --      0.0089                 0.0301                 0.0557
 IR Inten    --      0.0116                 0.0593                 0.1461

                      7                      8                      9
                      A                      A                      A
 Frequencies --    175.8347               226.1601               232.7968
 Red. masses --      3.8229                 1.9719                 1.1413
 Frc consts  --      0.0696                 0.0594                 0.0364
 IR Inten    --      1.2931                 0.1861                 0.0374

                     10                     11                     12
                      A                      A                      A
 Frequencies --    262.4540               275.1550               330.6038
 Red. masses --      1.8775                 1.6311                 3.5934
 Frc consts  --      0.0762                 0.0728                 0.2314
 IR Inten    --      0.4034                 0.0786                 2.1803

                     13                     14                     15
                      A                      A                      A
 Frequencies --    346.6067               386.8784               420.6293
 Red. masses --      3.4250                 2.3458                 3.2246
 Frc consts  --      0.2424                 0.2069                 0.3361
 IR Inten    --      2.2562                 0.4795                 0.4498

                     16                     17                     18
                      A                      A                      A
 Frequencies --    429.2648               454.3152               476.9817
 Red. masses --      2.5048                 3.1581                 3.6702
 Frc consts  --      0.2719                 0.3841                 0.4920
 IR Inten    --      0.9522                 3.0935                 3.2393

                     19                     20                     21
                      A                      A                      A
 Frequencies --    499.4265               546.2613               557.0101
 Red. masses --      3.5492                 4.0126                 8.0899
 Frc consts  --      0.5216                 0.7055                 1.4788
 IR Inten    --      0.2846                 0.7003                 0.2430

                     22                     23                     24
                      A                      A                      A
 Frequencies --    604.2908               623.1815               657.8012
 Red. masses --      4.8131                 7.7355                 2.8894
 Frc consts  --      1.0355                 1.7700                 0.7366
 IR Inten    --      2.4236                 2.4191                 0.2794

                     25                     26                     27
                      A                      A                      A
 Frequencies --    761.6420               794.3784               798.1244
 Red. masses --      4.6979                 4.3832                 1.4979
 Frc consts  --      1.6057                 1.6297                 0.5622
 IR Inten    --      3.5236                 2.2547                15.3975

                     28                     29                     30
                      A                      A                      A
 Frequencies --    817.7301               827.2775               863.0192
 Red. masses --      2.0749                 6.4942                 1.9915
 Frc consts  --      0.8175                 2.6186                 0.8739
 IR Inten    --      7.4000                 4.8353                 9.5155

                     31                     32                     33
                      A                      A                      A
 Frequencies --    898.4131               923.8348               932.2754
 Red. masses --      1.7166                 3.9683                 1.6297
 Frc consts  --      0.8163                 1.9955                 0.8345
 IR Inten    --     13.1628                 4.2184                 9.3404

                     34                     35                     36
                      A                      A                      A
 Frequencies --    942.3210               954.0323               964.9767
 Red. masses --      1.1970                 1.4591                 2.0545
 Frc consts  --      0.6263                 0.7824                 1.1272
 IR Inten    --      1.7100                 0.7840                 0.5086

                     37                     38                     39
                      A                      A                      A
 Frequencies --    968.8474               977.7380               992.7238
 Red. masses --      1.4166                 1.4329                 1.3490
 Frc consts  --      0.7834                 0.8071                 0.7833
 IR Inten    --      0.2409                 0.1879                 0.9140

                     40                     41                     42
                      A                      A                      A
 Frequencies --   1001.9853              1016.0652              1063.3181
 Red. masses --      3.5113                 1.1384                 2.1991
 Frc consts  --      2.0770                 0.6925                 1.4650
 IR Inten    --      4.7201                30.2775                 2.8987

                     43                     44                     45
                      A                      A                      A
 Frequencies --   1068.4357              1149.1609              1153.7630
 Red. masses --      2.2742                 2.0051                 1.5914
 Frc consts  --      1.5296                 1.5601                 1.2481
 IR Inten    --      2.8306                 0.8912                 8.0604

                     46                     47                     48
                      A                      A                      A
 Frequencies --   1161.7630              1203.6770              1206.5881
 Red. masses --      1.8528                 1.7519                 1.6444
 Frc consts  --      1.4734                 1.4955                 1.4105
 IR Inten    --      2.3170                16.2199                 1.7758

                     49                     50                     51
                      A                      A                      A
 Frequencies --   1251.8162              1261.5818              1266.8658
 Red. masses --      2.8840                 1.8752                 1.8182
 Frc consts  --      2.6628                 1.7584                 1.7193
 IR Inten    --      3.0329                 5.8872                 4.4283

                     52                     53                     54
                      A                      A                      A
 Frequencies --   1309.7118              1327.0862              1353.3022
 Red. masses --      1.3854                 1.4756                 1.5893
 Frc consts  --      1.4002                 1.5311                 1.7149
 IR Inten    --     10.1185                 0.2317                 1.2483

                     55                     56                     57
                      A                      A                      A
 Frequencies --   1359.0245              1373.4380              1381.9173
 Red. masses --      1.3513                 3.5871                 1.3602
 Frc consts  --      1.4705                 3.9866                 1.5304
 IR Inten    --     13.8093                 3.3836                 4.3868

                     58                     59                     60
                      A                      A                      A
 Frequencies --   1390.9352              1406.4446              1422.7762
 Red. masses --      1.6827                 2.5499                 1.6609
 Frc consts  --      1.9181                 2.9718                 1.9810
 IR Inten    --      2.4577                12.1023                 3.8558

                     61                     62                     63
                      A                      A                      A
 Frequencies --   1431.1892              1449.5035              1478.7525
 Red. masses --      1.2851                 1.2382                 2.7597
 Frc consts  --      1.5508                 1.5328                 3.5556
 IR Inten    --      5.1800                 5.9839                 4.2078

                     64                     65                     66
                      A                      A                      A
 Frequencies --   1507.2112              1516.0262              1519.9271
 Red. masses --      1.1712                 2.3463                 1.0832
 Frc consts  --      1.5675                 3.1772                 1.4744
 IR Inten    --      8.2155                 0.2631                 0.9440

                     67                     68                     69
                      A                      A                      A
 Frequencies --   1524.5112              1528.0261              1534.8017
 Red. masses --      1.0572                 3.1367                 1.0545
 Frc consts  --      1.4477                 4.3150                 1.4635
 IR Inten    --      3.7646                39.8774                 1.4369

                     70                     71                     72
                      A                      A                      A
 Frequencies --   1542.1410              1604.5191              1659.7269
 Red. masses --      1.0468                 6.5528                 5.8404
 Frc consts  --      1.4667                 9.9396                 9.4790
 IR Inten    --     10.7050                43.5567                16.7358

                     73                     74                     75
                      A                      A                      A
 Frequencies --   1666.4609              1729.8074              3010.4733
 Red. masses --      6.0557                 5.6357                 1.0659
 Frc consts  --      9.9085                 9.9356                 5.6918
 IR Inten    --      0.8479                15.7306                24.8076

                     76                     77                     78
                      A                      A                      A
 Frequencies --   3028.3101              3037.7588              3043.5951
 Red. masses --      1.0799                 1.0362                 1.0389
 Frc consts  --      5.8348                 5.6339                 5.6702
 IR Inten    --     19.4071                31.7786                41.8092

                     79                     80                     81
                      A                      A                      A
 Frequencies --   3068.7313              3101.6956              3107.6476
 Red. masses --      1.0980                 1.1008                 1.1005
 Frc consts  --      6.0920                 6.2394                 6.2617
 IR Inten    --     19.1333                10.2106                54.4190

                     82                     83                     84
                      A                      A                      A
 Frequencies --   3112.9625              3119.9005              3138.2881
 Red. masses --      1.1021                 1.1016                 1.0887
 Frc consts  --      6.2922                 6.3179                 6.3175
 IR Inten    --     43.8551                50.9230                17.7332

                     85                     86                     87
                      A                      A                      A
 Frequencies --   3162.9393              3163.3639              3172.8064
 Red. masses --      1.0889                 1.0894                 1.0905
 Frc consts  --      6.4186                 6.4227                 6.4681
 IR Inten    --     25.2626                26.6977                11.8631

                     88                     89                     90
                      A                      A                      A
 Frequencies --   3179.3384              3184.8311              3215.2257
 Red. masses --      1.0871                 1.0893                 1.0959
 Frc consts  --      6.4745                 6.5100                 6.6749
 IR Inten    --     25.8197                12.9895                26.2885

 - Thermochemistry -
 -------------------
 Temperature   298.150 Kelvin.  Pressure   1.00000 Atm.
 Atom     1 has atomic number  6 and mass  12.00000

 Molecular mass:   212.13135 amu.
 Principal axes and moments of inertia in atomic units:
                           1         2         3
     Eigenvalues --   935.303569914.53291**********
           X            0.99998   0.00564  -0.00135
           Y           -0.00565   0.99998  -0.00236
           Z            0.00134   0.00236   1.00000
 This molecule is an asymmetric top.
 Rotational symmetry number  1.
 Warning -- assumption of classical behavior for rotation
           may cause significant error
 Rotational temperatures (Kelvin)      0.09261     0.00874     0.00818
 Rotational constants (GHZ):           1.92958     0.18203     0.17037
 Zero-point vibrational energy     712068.7 (Joules/Mol)
                                  170.18850 (Kcal/Mol)
 Warning -- explicit consideration of  22 degrees of freedom as
           vibrations may cause significant error
 Vibrational temperatures:     19.13    62.32    63.82    95.08   181.26
          (Kelvin)            233.72   252.99   325.39   334.94   377.61
                              395.89   475.67   498.69   556.63   605.19
                              617.62   653.66   686.27   718.56   785.95
                              801.41   869.44   896.62   946.43  1095.83
                             1142.93  1148.32  1176.53  1190.27  1241.69
                             1292.62  1329.19  1341.34  1355.79  1372.64
                             1388.39  1393.96  1406.75  1428.31  1441.63
                             1461.89  1529.88  1537.24  1653.39  1660.01
                             1671.52  1731.82  1736.01  1801.08  1815.13
                             1822.74  1884.38  1909.38  1947.10  1955.33
                             1976.07  1988.27  2001.25  2023.56  2047.06
                             2059.16  2085.51  2127.60  2168.54  2181.22
                             2186.84  2193.43  2198.49  2208.24  2218.80
                             2308.55  2387.98  2397.67  2488.81  4331.40
                             4357.06  4370.66  4379.05  4415.22  4462.65
                             4471.21  4478.86  4488.84  4515.30  4550.76
                             4551.38  4564.96  4574.36  4582.26  4625.99

 Zero-point correction=                           0.271213 (Hartree/Particle)
 Thermal correction to Energy=                    0.285755
 Thermal correction to Enthalpy=                  0.286699
 Thermal correction to Gibbs Free Energy=         0.227533
 Sum of electronic and zero-point Energies=           -652.417414
 Sum of electronic and thermal Energies=              -652.402872
 Sum of electronic and thermal Enthalpies=            -652.401927
 Sum of electronic and thermal Free Energies=         -652.461094

                     E (Thermal)             CV                S
                      KCal/Mol        Cal/Mol-Kelvin    Cal/Mol-Kelvin
 Total                  179.314             55.925            124.526
 Electronic               0.000              0.000              0.000
 Translational            0.889              2.981             41.960
 Rotational               0.889              2.981             32.952
 Vibrational            177.537             49.963             49.615
 Vibration     1          0.593              1.987              7.445
 Vibration     2          0.595              1.980              5.101
 Vibration     3          0.595              1.980              5.054
 Vibration     4          0.597              1.970              4.267
 Vibration     5          0.611              1.927              3.007
 Vibration     6          0.623              1.888              2.521
 Vibration     7          0.628              1.872              2.372
 Vibration     8          0.650              1.801              1.909
 Vibration     9          0.654              1.791              1.857
 Vibration    10          0.670              1.742              1.645
 Vibration    11          0.677              1.719              1.564
 Vibration    12          0.713              1.614              1.257
 Vibration    13          0.725              1.582              1.182
 Vibration    14          0.755              1.498              1.012
 Vibration    15          0.783              1.425              0.890
 Vibration    16          0.791              1.407              0.861
 Vibration    17          0.813              1.351              0.783
 Vibration    18          0.834              1.301              0.718
 Vibration    19          0.855              1.251              0.660
 Vibration    20          0.901              1.148              0.552
 Vibration    21          0.913              1.124              0.530
 Vibration    22          0.963              1.023              0.442

                           ! Non-Optimized Parameters !
 Normal termination of Gaussian 16 at Fri Dec 11 01:24:37 2020.

 ----------------------------------------------------------------------
 # B3LYP/6-311++G(d,p) empiricaldispersion=gd3bj scf=xqc pop=npa geom=c
 heck
 ----------------------------------------------------------------------

 --------------------------------------
 CID_21134345_JID_6971_Energie_neutraal
 --------------------------------------
 Structure from the checkpoint file:  "JID_6971.chk"
 Charge =  0 Multiplicity = 1

 SCF Done:  E(RB3LYP) =  -652.854412152     A.U. after   15 cycles
 Normal termination of Gaussian 16 at Fri Dec 11 01:28:07 2020.

 ----------------------------------------------------------------------
 # B3LYP/6-311++G(d,p) empiricaldispersion=gd3bj scf=xqc pop=npa geom=c
 heck
 ----------------------------------------------------------------------

 ------------------------------------
 CID_21134345_JID_6971_Energie_kation
 ------------------------------------
 Structure from the checkpoint file:  "JID_6971.chk"
 Charge =  1 Multiplicity = 2

 SCF Done:  E(UB3LYP) =  -652.559622092     A.U. after   25 cycles
 Normal termination of Gaussian 16 at Fri Dec 11 01:35:50 2020.
 Gaussian 16:  ES64L-G16RevA.03 25-Dec-2016

 ----------------------------------------------------------------------
 # B3LYP/6-311++G(d,p) empiricaldispersion=gd3bj scf=xqc pop=npa geom=c
 heck
 ----------------------------------------------------------------------

 -----------------------------------
 CID_21134345_JID_6971_Energie_anion
 -----------------------------------
 Structure from the checkpoint file:  "JID_6971.chk"
 Charge = -1 Multiplicity = 2

                         Standard orientation:
 ---------------------------------------------------------------------
 Center     Atomic      Atomic             Coordinates (Angstroms)
 Number     Number       Type             X           Y           Z
 ---------------------------------------------------------------------
      1          6           0        4.748966    1.416495   -0.561099
      2          6           0        4.579664   -0.105238   -0.480310
      3          6           0        5.940872   -0.799968   -0.361884
      4          6           0        3.664659   -0.528382    0.694769
      5          6           0        2.275679    0.032196    0.619783
      6          6           0        1.184049   -0.702580    0.357425
      7          6           0       -0.195996   -0.228355    0.240625
      8          6           0       -0.551865    1.157444    0.298160
      9          7           0       -1.769368    1.636437    0.203488
     10          6           0       -2.796407    0.754451    0.032346
     11          6           0       -2.564839   -0.655097   -0.049403
     12          6           0       -1.235308   -1.121226    0.058952
     13          6           0       -3.684220   -1.503314   -0.232825
     14          6           0       -4.935446   -0.942657   -0.322502
     15          6           0       -5.054317    0.466501   -0.227619
     16          7           0       -4.040537    1.292945   -0.058269
     17          1           0        5.179664    1.810410    0.368875
     18          1           0        3.794816    1.925450   -0.732839
     19          1           0        5.422561    1.690367   -1.380853
     20          1           0        4.095911   -0.445836   -1.406835
     21          1           0        6.457986   -0.489684    0.555237
     22          1           0        5.832855   -1.890513   -0.331974
     23          1           0        6.587461   -0.547823   -1.210059
     24          1           0        3.614484   -1.624240    0.726909
     25          1           0        4.142179   -0.204610    1.632495
     26          1           0        2.180100    1.104725    0.777334
     27          1           0        1.310708   -1.777259    0.219033
     28          1           0        0.235324    1.898977    0.424634
     29          1           0       -1.038339   -2.190092    0.000920
     30          1           0       -3.536891   -2.578698   -0.298762
     31          1           0       -5.821972   -1.553094   -0.462739
     32          1           0       -6.040457    0.924632   -0.296413
 ---------------------------------------------------------------------

 SCF Done:  E(UB3LYP) =  -652.874978264     A.U. after   26 cycles

 The electronic state is 2-A.
 Alpha  occ. eigenvalues --  -14.14531 -14.14108 -10.08627 -10.08038 -10.07951
 Alpha  occ. eigenvalues --  -10.07433 -10.06923 -10.05828 -10.04793 -10.04691
 Alpha  occ. eigenvalues --  -10.03914 -10.03851 -10.03144 -10.03064 -10.02674
 Alpha  occ. eigenvalues --  -10.01998  -0.81266  -0.75754  -0.72530  -0.68512
 Alpha  occ. eigenvalues --   -0.66444  -0.62816  -0.61123  -0.60354  -0.56575
 Alpha  occ. eigenvalues --   -0.50615  -0.50003  -0.47356  -0.46436  -0.43701
 Alpha  occ. eigenvalues --   -0.39506  -0.38380  -0.37140  -0.36335  -0.35145
 Alpha  occ. eigenvalues --   -0.33556  -0.32344  -0.30732  -0.29982  -0.29325
 Alpha  occ. eigenvalues --   -0.28458  -0.27876  -0.27507  -0.26367  -0.25859
 Alpha  occ. eigenvalues --   -0.25313  -0.24589  -0.23947  -0.22603  -0.21974
 Alpha  occ. eigenvalues --   -0.21269  -0.18252  -0.15581  -0.11881  -0.11277
 Alpha  occ. eigenvalues --   -0.09737  -0.09172   0.03581
 Alpha virt. eigenvalues --    0.05949   0.08004   0.08337   0.08798   0.09093
 Alpha virt. eigenvalues --    0.09409   0.10519   0.10734   0.11086   0.11708
 Alpha virt. eigenvalues --    0.11822   0.12115   0.13151   0.13273   0.14333

  Beta  occ. eigenvalues --  -14.14275 -14.13874 -10.08606 -10.08035 -10.07986
  Beta  occ. eigenvalues --  -10.07430 -10.06938 -10.05815 -10.04816 -10.04465
  Beta  occ. eigenvalues --  -10.03953 -10.03726 -10.03190 -10.02951 -10.02292
  Beta  occ. eigenvalues --  -10.01585  -0.80904  -0.75304  -0.72462  -0.68096
  Beta  occ. eigenvalues --   -0.66085  -0.62392  -0.60877  -0.60343  -0.56386
  Beta  occ. eigenvalues --   -0.50274  -0.49601  -0.47267  -0.46057  -0.43467
  Beta  occ. eigenvalues --   -0.39218  -0.38264  -0.36973  -0.36225  -0.35067
  Beta  occ. eigenvalues --   -0.33489  -0.32247  -0.30715  -0.29843  -0.29200
  Beta  occ. eigenvalues --   -0.28381  -0.27427  -0.26998  -0.26280  -0.25660
  Beta  occ. eigenvalues --   -0.25139  -0.24484  -0.23900  -0.22505  -0.21081
  Beta  occ. eigenvalues --   -0.20838  -0.17041  -0.14411  -0.11537  -0.10160
  Beta  occ. eigenvalues --   -0.09512  -0.07579
  Beta virt. eigenvalues --    0.05902   0.07961   0.08292   0.08772   0.09102
  Beta virt. eigenvalues --    0.09416   0.09803   0.10495   0.10705   0.11055
  Beta virt. eigenvalues --    0.11669   0.11794   0.12070   0.13224   0.14216

 Mulliken charges and spin densities:
               1          2
     1  C   -0.647916  -0.044045
     2  C    0.443522  -0.008540
     3  C   -0.641109  -0.001179
     4  C   -0.746549   0.027245
     5  C    0.273257   0.108362
     6  C   -0.325250  -0.059222
     7  C    0.456239   0.073677
     8  C   -0.686106  -0.017529
     9  N   -0.021376   0.122415
    10  C   -1.333666  -0.026199
    11  C    0.997609  -0.064685
    12  C    0.040591   0.330949
    13  C   -0.143570   0.273776
    14  C   -0.340402   0.005859
    15  C   -0.128807   0.180289
    16  N   -0.049140   0.098565
    17  H    0.130055   0.004842
    18  H    0.131123   0.010357
    19  H    0.101911   0.007112
    20  H    0.160752   0.002806
    21  H    0.113749   0.012565
    22  H    0.110095   0.009889
    23  H    0.123113  -0.000973
    24  H    0.114437   0.000206
    25  H    0.123898   0.020680
    26  H    0.075170  -0.007562
    27  H    0.091389   0.002081
    28  H    0.159430  -0.002418
    29  H    0.071667  -0.023254
    30  H    0.090131  -0.022993
    31  H    0.114083   0.002409
    32  H    0.141672  -0.015487
 Sum of Mulliken charges =  -1.00000   1.00000

 Dipole moment (field-independent basis, Debye):
    X=              9.0516    Y=             -3.5692    Z=             -0.5230  Tot=              9.7439
 Quadrupole moment (field-independent basis, Debye-Ang):
   XX=           -160.6229   YY=           -113.7564   ZZ=           -107.3012
   XY=             12.5797   XZ=             -0.9395   YZ=              0.3295

 Summary of Natural Population Analysis:

                                       Natural Population
                Natural  -----------------------------------------------
    Atom  No    Charge         Core      Valence    Rydberg      Total
 -----------------------------------------------------------------------
      C    1   -0.28669      0.99966     2.28210    0.00493     3.28669
      C    2   -0.10829      0.99962     2.10130    0.00737     3.10829
      C    3   -0.28321      0.99966     2.27866    0.00489     3.28321
      C    4   -0.19907      0.99961     2.19064    0.00881     3.19907
      C    5   -0.07115      0.99955     2.06278    0.00882     3.07115
      C    6   -0.08910      0.99943     2.08087    0.00880     3.08910
      C    7   -0.05537      0.99950     2.04729    0.00858     3.05537
      C    8    0.04711      0.99958     1.93996    0.01334     2.95289
      N    9   -0.20071      0.99968     2.68873    0.01230     3.70071
      C   10    0.17362      0.99948     1.80480    0.02209     2.82638
      C   11   -0.07836      0.99949     2.07087    0.00800     3.07836
      C   12    0.01140      0.99951     1.98117    0.00792     2.98860
      C   13   -0.00776      0.99954     1.99930    0.00892     3.00776
      C   14   -0.14757      0.99957     2.13907    0.00893     3.14757
      C   15    0.06817      0.99962     1.91685    0.01536     2.93183
      N   16   -0.20728      0.99968     2.69570    0.01190     3.70728
      H   17    0.09286      0.00000     0.40624    0.00090     0.40714
      H   18    0.10533      0.00000     0.39393    0.00074     0.39467
      H   19    0.09356      0.00000     0.40561    0.00083     0.40644
      H   20    0.09220      0.00000     0.40597    0.00183     0.40780
      H   21    0.09346      0.00000     0.40558    0.00096     0.40654
      H   22    0.09680      0.00000     0.40240    0.00079     0.40320
      H   23    0.09400      0.00000     0.40508    0.00092     0.40600
      H   24    0.09465      0.00000     0.40399    0.00136     0.40535
      H   25    0.09256      0.00000     0.40620    0.00123     0.40744
      H   26    0.08606      0.00000     0.41237    0.00157     0.41394
      H   27    0.08474      0.00000     0.41326    0.00200     0.41526
      H   28    0.07703      0.00000     0.42146    0.00152     0.42297
      H   29    0.08182      0.00000     0.41626    0.00192     0.41818
      H   30    0.08441      0.00000     0.41374    0.00185     0.41559
      H   31    0.09092      0.00000     0.40783    0.00125     0.40908
      H   32    0.07387      0.00000     0.42462    0.00151     0.42613
 =======================================================================
   * Total *    0.00000     15.99317    40.82467    0.18216    57.00000

 Normal termination of Gaussian 16 at Fri Dec 11 01:43:52 2020.
