 Gaussian 16, Revision A.03,

 -----------------------------------------------------------
 # opt freq B3LYP/6-31G(d) empiricaldispersion=gd3bj scf=xqc
 -----------------------------------------------------------

 -------------------------------
 CID_101891923_JID_3287_neutraal
 -------------------------------
 Symbolic Z-matrix:
 Charge =  0 Multiplicity = 1

 SCF Done:  E(RB3LYP) =  -578.025124507     A.U. after   15 cycles
 SCF Done:  E(RB3LYP) =  -578.028156470     A.U. after   13 cycles
 SCF Done:  E(RB3LYP) =  -578.026279680     A.U. after   13 cycles
 SCF Done:  E(RB3LYP) =  -578.028358267     A.U. after   12 cycles
 SCF Done:  E(RB3LYP) =  -578.028836857     A.U. after   12 cycles
 SCF Done:  E(RB3LYP) =  -578.028822050     A.U. after   12 cycles
 SCF Done:  E(RB3LYP) =  -578.028968096     A.U. after   11 cycles
 SCF Done:  E(RB3LYP) =  -578.028969379     A.U. after   10 cycles
 SCF Done:  E(RB3LYP) =  -578.028977890     A.U. after    9 cycles
 SCF Done:  E(RB3LYP) =  -578.028981707     A.U. after   11 cycles
 SCF Done:  E(RB3LYP) =  -578.028982580     A.U. after   10 cycles
 SCF Done:  E(RB3LYP) =  -578.028982650     A.U. after    8 cycles
 Optimization completed.
    -- Stationary point found.
 Normal termination of Gaussian 16 at Wed Dec  9 22:45:00 2020.

 --------------------------------------------------------------------
 #N Geom=AllCheck Guess=TCheck SCRF=Check GenChk RB3LYP/6-31G(d) Freq
 --------------------------------------------------------------------

 Structure from the checkpoint file:  "JID_3287.chk"
 -------------------------------
 CID_101891923_JID_3287_neutraal
 -------------------------------
 Charge =  0 Multiplicity = 1

 SCF Done:  E(RB3LYP) =  -578.028982650     A.U. after    1 cycles

  Exact polarizability: 144.986  -5.518 112.867  -0.155  -3.147  82.262
 Approx polarizability: 220.814  -3.905 162.001   0.497  -9.628 127.788

                      1                      2                      3
                      A                      A                      A
 Frequencies --     40.2198                58.3116               115.6808
 Red. masses --      5.2126                 4.7402                 4.0855
 Frc consts  --      0.0050                 0.0095                 0.0322
 IR Inten    --      6.6911                 0.8706                 1.4138

                      4                      5                      6
                      A                      A                      A
 Frequencies --    139.1241               151.3503               177.7186
 Red. masses --      4.2463                 4.2511                 5.0074
 Frc consts  --      0.0484                 0.0574                 0.0932
 IR Inten    --      1.3519                 4.0334                 1.0426

                      7                      8                      9
                      A                      A                      A
 Frequencies --    183.7689               234.3519               280.1726
 Red. masses --      3.1988                 2.8274                 2.5368
 Frc consts  --      0.0636                 0.0915                 0.1173
 IR Inten    --      0.7322                 2.7701                 1.8620

                     10                     11                     12
                      A                      A                      A
 Frequencies --    304.5279               342.3891               349.4375
 Red. masses --      2.3522                 2.4588                 3.7998
 Frc consts  --      0.1285                 0.1698                 0.2734
 IR Inten    --      0.3657                 1.3321                 0.1092

                     13                     14                     15
                      A                      A                      A
 Frequencies --    383.3799               417.2704               438.1408
 Red. masses --      3.7503                 3.0470                 2.2009
 Frc consts  --      0.3248                 0.3126                 0.2489
 IR Inten    --      0.8363                 4.3341                 1.6223

                     16                     17                     18
                      A                      A                      A
 Frequencies --    525.9315               538.4960               570.3427
 Red. masses --      3.1266                 2.9389                 5.0845
 Frc consts  --      0.5095                 0.5021                 0.9745
 IR Inten    --      8.9826                 5.0677                 3.0341

                     19                     20                     21
                      A                      A                      A
 Frequencies --    642.4640               685.8806               722.1568
 Red. masses --      3.7494                 2.5089                 2.4273
 Frc consts  --      0.9118                 0.6954                 0.7458
 IR Inten    --      8.0765                 0.8145                 2.3557

                     22                     23                     24
                      A                      A                      A
 Frequencies --    761.1675               800.2667               807.3696
 Red. masses --      3.4298                 2.1961                 1.7327
 Frc consts  --      1.1708                 0.8286                 0.6655
 IR Inten    --      8.3448                 2.5920                 8.8409

                     25                     26                     27
                      A                      A                      A
 Frequencies --    853.1285               881.4561               889.9614
 Red. masses --      1.8505                 2.3980                 2.3233
 Frc consts  --      0.7935                 1.0977                 1.0842
 IR Inten    --      5.4538                 2.0253                 2.7074

                     28                     29                     30
                      A                      A                      A
 Frequencies --    956.9185               969.6351               996.3675
 Red. masses --      2.6043                 1.9566                 2.3761
 Frc consts  --      1.4050                 1.0838                 1.3898
 IR Inten    --      4.4324                21.4021                 9.2046

                     31                     32                     33
                      A                      A                      A
 Frequencies --   1030.6633              1062.9261              1072.5314
 Red. masses --      1.8019                 2.4981                 2.5257
 Frc consts  --      1.1277                 1.6629                 1.7118
 IR Inten    --      0.5247                 4.5401                 2.7856

                     34                     35                     36
                      A                      A                      A
 Frequencies --   1090.5317              1092.8866              1135.2704
 Red. masses --      2.2450                 3.0633                 1.6928
 Frc consts  --      1.5731                 2.1557                 1.2854
 IR Inten    --     10.4703                 9.2393                 6.5051

                     37                     38                     39
                      A                      A                      A
 Frequencies --   1172.9078              1202.9505              1226.7244
 Red. masses --      1.3657                 1.1922                 1.2606
 Frc consts  --      1.1070                 1.0165                 1.1177
 IR Inten    --     38.3904                 3.8488                 7.6450

                     40                     41                     42
                      A                      A                      A
 Frequencies --   1245.1791              1263.6898              1281.0770
 Red. masses --      1.8004                 1.8004                 1.2215
 Frc consts  --      1.6447                 1.6940                 1.1811
 IR Inten    --     93.5789                34.0007                 4.7842

                     43                     44                     45
                      A                      A                      A
 Frequencies --   1312.5373              1321.8847              1337.6982
 Red. masses --      1.3561                 1.2245                 1.2343
 Frc consts  --      1.3764                 1.2607                 1.3013
 IR Inten    --     10.8751                 2.1712                 0.4707

                     46                     47                     48
                      A                      A                      A
 Frequencies --   1356.1656              1376.2671              1388.1573
 Red. masses --      1.4946                 1.3330                 1.3457
 Frc consts  --      1.6196                 1.4876                 1.5279
 IR Inten    --     17.8773                15.9243                 8.8382

                     49                     50                     51
                      A                      A                      A
 Frequencies --   1389.7758              1392.5649              1412.4623
 Red. masses --      1.3442                 1.4116                 1.4323
 Frc consts  --      1.5297                 1.6128                 1.6836
 IR Inten    --      1.3572                 9.0102                12.4447

                     52                     53                     54
                      A                      A                      A
 Frequencies --   1490.7957              1500.5234              1508.6001
 Red. masses --      1.0848                 1.0908                 1.0936
 Frc consts  --      1.4204                 1.4470                 1.4665
 IR Inten    --      4.6590                 4.8173                13.7797

                     55                     56                     57
                      A                      A                      A
 Frequencies --   1511.8496              1520.2918              1524.6514
 Red. masses --      1.0923                 1.0950                 1.0845
 Frc consts  --      1.4710                 1.4912                 1.4853
 IR Inten    --      1.9882                11.6803                 0.7215

                     58                     59                     60
                      A                      A                      A
 Frequencies --   1529.9500              1764.6852              1806.2076
 Red. masses --      1.0849                11.4555                10.5459
 Frc consts  --      1.4963                21.0184                20.2708
 IR Inten    --      9.8199               239.6136               154.7200

                     61                     62                     63
                      A                      A                      A
 Frequencies --   2326.2000              3033.1828              3053.9598
 Red. masses --     11.9151                 1.0627                 1.0665
 Frc consts  --     37.9875                 5.7604                 5.8604
 IR Inten    --    107.3195                10.8392                14.9105

                     64                     65                     66
                      A                      A                      A
 Frequencies --   3055.1765              3061.4877              3064.2928
 Red. masses --      1.0621                 1.0628                 1.0599
 Frc consts  --      5.8409                 5.8690                 5.8640
 IR Inten    --     14.2077                10.9109                12.8721

                     67                     68                     69
                      A                      A                      A
 Frequencies --   3070.2428              3071.5464              3078.9196
 Red. masses --      1.0685                 1.0853                 1.0637
 Frc consts  --      5.9342                 6.0327                 5.9410
 IR Inten    --     10.6895                25.1988                12.7279

                     70                     71                     72
                      A                      A                      A
 Frequencies --   3092.9550              3099.1236              3107.0436
 Red. masses --      1.1007                 1.1031                 1.1033
 Frc consts  --      6.2039                 6.2423                 6.2755
 IR Inten    --     22.0340                38.0396                11.3158

                     73                     74                     75
                      A                      A                      A
 Frequencies --   3121.3114              3125.2211              3141.3732
 Red. masses --      1.1034                 1.1030                 1.0992
 Frc consts  --      6.3339                 6.3472                 6.3907
 IR Inten    --     30.4231                15.9380                20.3238

 - Thermochemistry -
 -------------------
 Temperature   298.150 Kelvin.  Pressure   1.00000 Atm.
 Atom     1 has atomic number  6 and mass  12.00000

 Molecular mass:   178.09938 amu.
 Principal axes and moments of inertia in atomic units:
                           1         2         3
     Eigenvalues --  2040.932712410.354324095.63476
           X            0.97869  -0.20534   0.00046
           Y            0.20534   0.97868   0.00379
           Z           -0.00123  -0.00361   0.99999
 This molecule is an asymmetric top.
 Rotational symmetry number  1.
 Warning -- assumption of classical behavior for rotation
           may cause significant error
 Rotational temperatures (Kelvin)      0.04244     0.03593     0.02115
 Rotational constants (GHZ):           0.88427     0.74875     0.44065
 Zero-point vibrational energy     604364.4 (Joules/Mol)
                                  144.44655 (Kcal/Mol)
 Warning -- explicit consideration of  18 degrees of freedom as
           vibrations may cause significant error
 Vibrational temperatures:     57.87    83.90   166.44   200.17   217.76
          (Kelvin)            255.70   264.40   337.18   403.11   438.15
                              492.62   502.76   551.60   600.36   630.39
                              756.70   774.78   820.60   924.36   986.83
                             1039.02  1095.15  1151.41  1161.62  1227.46
                             1268.22  1280.46  1376.79  1395.09  1433.55
                             1482.89  1529.31  1543.13  1569.03  1572.42
                             1633.40  1687.55  1730.78  1764.98  1791.54
                             1818.17  1843.18  1888.45  1901.90  1924.65
                             1951.22  1980.14  1997.25  1999.58  2003.59
                             2032.22  2144.92  2158.92  2170.54  2175.21
                             2187.36  2193.63  2201.26  2538.99  2598.73
                             3346.88  4364.07  4393.97  4395.72  4404.80
                             4408.83  4417.39  4419.27  4429.88  4450.07
                             4458.95  4470.34  4490.87  4496.50  4519.74

 Zero-point correction=                           0.230190 (Hartree/Particle)
 Thermal correction to Energy=                    0.242732
 Thermal correction to Enthalpy=                  0.243677
 Thermal correction to Gibbs Free Energy=         0.191059
 Sum of electronic and zero-point Energies=           -577.798792
 Sum of electronic and thermal Energies=              -577.786250
 Sum of electronic and thermal Enthalpies=            -577.785306
 Sum of electronic and thermal Free Energies=         -577.837924

                     E (Thermal)             CV                S
                      KCal/Mol        Cal/Mol-Kelvin    Cal/Mol-Kelvin
 Total                  152.317             47.472            110.743
 Electronic               0.000              0.000              0.000
 Translational            0.889              2.981             41.438
 Rotational               0.889              2.981             31.377
 Vibrational            150.539             41.510             37.928
 Vibration     1          0.594              1.981              5.248
 Vibration     2          0.596              1.974              4.514
 Vibration     3          0.608              1.936              3.171
 Vibration     4          0.615              1.914              2.816
 Vibration     5          0.619              1.901              2.655
 Vibration     6          0.628              1.870              2.352
 Vibration     7          0.631              1.862              2.290
 Vibration     8          0.654              1.788              1.845
 Vibration     9          0.680              1.710              1.533
 Vibration    10          0.695              1.665              1.392
 Vibration    11          0.722              1.591              1.201
 Vibration    12          0.727              1.576              1.169
 Vibration    13          0.753              1.506              1.026
 Vibration    14          0.780              1.433              0.901
 Vibration    15          0.798              1.387              0.832
 Vibration    16          0.881              1.193              0.596
 Vibration    17          0.894              1.165              0.569
 Vibration    18          0.926              1.095              0.504

                           ! Non-Optimized Parameters !
 Normal termination of Gaussian 16 at Wed Dec  9 22:52:03 2020.

 ----------------------------------------------------------------------
 # B3LYP/6-311++G(d,p) empiricaldispersion=gd3bj scf=xqc pop=npa geom=c
 heck
 ----------------------------------------------------------------------

 ---------------------------------------
 CID_101891923_JID_3287_Energie_neutraal
 ---------------------------------------
 Structure from the checkpoint file:  "JID_3287.chk"
 Charge =  0 Multiplicity = 1

 SCF Done:  E(RB3LYP) =  -578.194491550     A.U. after   15 cycles
 Normal termination of Gaussian 16 at Wed Dec  9 22:54:47 2020.

 ----------------------------------------------------------------------
 # B3LYP/6-311++G(d,p) empiricaldispersion=gd3bj scf=xqc pop=npa geom=c
 heck
 ----------------------------------------------------------------------

 -------------------------------------
 CID_101891923_JID_3287_Energie_kation
 -------------------------------------
 Structure from the checkpoint file:  "JID_3287.chk"
 Charge =  1 Multiplicity = 2

 SCF Done:  E(UB3LYP) =  -577.864750399     A.U. after   29 cycles
 Normal termination of Gaussian 16 at Wed Dec  9 23:01:31 2020.
 Gaussian 16:  ES64L-G16RevA.03 25-Dec-2016

 ----------------------------------------------------------------------
 # B3LYP/6-311++G(d,p) empiricaldispersion=gd3bj scf=xqc pop=npa geom=c
 heck
 ----------------------------------------------------------------------

 ------------------------------------
 CID_101891923_JID_3287_Energie_anion
 ------------------------------------
 Structure from the checkpoint file:  "JID_3287.chk"
 Charge = -1 Multiplicity = 2

                         Standard orientation:
 ---------------------------------------------------------------------
 Center     Atomic      Atomic             Coordinates (Angstroms)
 Number     Number       Type             X           Y           Z
 ---------------------------------------------------------------------
      1          6           0        2.918829   -0.859242   -0.190761
      2          6           0        2.353553    0.476174    0.331609
      3          6           0        1.338305    1.114861   -0.644340
      4          6           0        0.275446    1.990748    0.000633
      5          8           0        0.130936    3.156752   -0.319652
      6          6           0       -0.677189    1.354517    1.013889
      7          6           0       -2.079802    1.138410    0.406665
      8          6           0       -2.174366    0.082631   -0.719843
      9          6           0       -1.931509   -1.336756   -0.221376
     10          8           0       -2.847664   -2.076429    0.099003
     11          6           0       -0.540435   -1.737232   -0.103645
     12          6           0        0.647475   -1.946124    0.027717
     13          6           0        2.086044   -2.094454    0.232787
     14          1           0        2.991579   -0.824050   -1.284335
     15          1           0        3.936480   -1.014921    0.184737
     16          1           0        1.893286    0.308246    1.313124
     17          1           0        3.170009    1.186362    0.500030
     18          1           0        1.856352    1.717940   -1.395653
     19          1           0        0.807135    0.313360   -1.169910
     20          1           0       -0.283568    0.414334    1.405722
     21          1           0       -0.774297    2.057557    1.848207
     22          1           0       -2.772323    0.852031    1.206343
     23          1           0       -2.426583    2.097144    0.006330
     24          1           0       -3.188109    0.098816   -1.131282
     25          1           0       -1.472810    0.324942   -1.526751
     26          1           0        2.251996   -2.287714    1.302070
     27          1           0        2.446565   -2.987823   -0.293451
 ---------------------------------------------------------------------

 SCF Done:  E(UB3LYP) =  -578.201756357     A.U. after   33 cycles
 SCF Done:  E(UB3LYP) =  -578.201756357     a.u. after    1 cycles

 The electronic state is 2-A.
 Alpha  occ. eigenvalues --  -19.00179 -18.92672 -10.14692 -10.07944 -10.07606
 Alpha  occ. eigenvalues --  -10.07121 -10.06872 -10.06343 -10.05959 -10.05902
 Alpha  occ. eigenvalues --  -10.04062 -10.02084 -10.01604  -0.93401  -0.86856
 Alpha  occ. eigenvalues --   -0.71030  -0.68278  -0.65537  -0.60791  -0.60124
 Alpha  occ. eigenvalues --   -0.55173  -0.51169  -0.48509  -0.44695  -0.41367
 Alpha  occ. eigenvalues --   -0.37679  -0.36992  -0.35865  -0.34211  -0.33815
 Alpha  occ. eigenvalues --   -0.32213  -0.31139  -0.30528  -0.28845  -0.27825
 Alpha  occ. eigenvalues --   -0.27270  -0.26061  -0.24899  -0.24745  -0.23984
 Alpha  occ. eigenvalues --   -0.23396  -0.23148  -0.21829  -0.20854  -0.14067
 Alpha  occ. eigenvalues --   -0.13370  -0.12571  -0.09354   0.04693
 Alpha virt. eigenvalues --    0.06769   0.07825   0.08987   0.09139   0.09620
 Alpha virt. eigenvalues --    0.10492   0.11177   0.12112   0.12402   0.12737
 Alpha virt. eigenvalues --    0.13493   0.14493   0.14688   0.15460   0.16370

  Beta  occ. eigenvalues --  -19.00158 -18.92075 -10.14658 -10.07629 -10.07549
  Beta  occ. eigenvalues --  -10.07113 -10.06852 -10.06339 -10.05956 -10.05859
  Beta  occ. eigenvalues --  -10.04098 -10.01826 -10.01598  -0.93354  -0.85766
  Beta  occ. eigenvalues --   -0.70941  -0.68176  -0.65306  -0.60512  -0.59905
  Beta  occ. eigenvalues --   -0.55108  -0.50760  -0.48436  -0.44048  -0.41268
  Beta  occ. eigenvalues --   -0.37606  -0.36918  -0.35653  -0.34077  -0.33700
  Beta  occ. eigenvalues --   -0.32007  -0.30955  -0.30204  -0.28753  -0.27563
  Beta  occ. eigenvalues --   -0.27007  -0.25744  -0.24619  -0.24200  -0.23684
  Beta  occ. eigenvalues --   -0.23313  -0.22943  -0.21747  -0.19199  -0.13957
  Beta  occ. eigenvalues --   -0.12441  -0.11761  -0.08841
  Beta virt. eigenvalues --    0.07207   0.08033   0.08999   0.09128   0.09472
  Beta virt. eigenvalues --    0.10559   0.11120   0.11727   0.12180   0.12576
  Beta virt. eigenvalues --    0.12701   0.13621   0.14410   0.14699   0.15446

 Mulliken charges and spin densities:
               1          2
     1  C   -0.193143   0.055500
     2  C    0.011630  -0.078066
     3  C    0.159845  -0.415324
     4  C   -0.357520   0.147664
     5  O   -0.278129   0.005660
     6  C    0.131577  -0.113894
     7  C   -0.352967  -0.070770
     8  C    0.016957  -0.016210
     9  C   -0.202135   0.300671
    10  O   -0.371098   0.204599
    11  C   -0.109634  -0.130724
    12  C    0.538046  -0.099759
    13  C   -0.683398  -0.169543
    14  H    0.085255   0.058299
    15  H   -0.389108   0.545345
    16  H    0.033361   0.109658
    17  H    0.003373   0.153612
    18  H    0.158362   0.029149
    19  H    0.073673  -0.018814
    20  H    0.137866  -0.037176
    21  H    0.115743   0.050648
    22  H    0.179448  -0.021424
    23  H    0.064685   0.104630
    24  H    0.139364   0.042908
    25  H    0.056605   0.058531
    26  H   -0.124669   0.320120
    27  H    0.156012  -0.015290
 Sum of Mulliken charges =  -1.00000   1.00000

 Dipole moment (field-independent basis, Debye):
    X=              2.7821    Y=              3.1987    Z=             -0.5233  Tot=              4.2715
 Quadrupole moment (field-independent basis, Debye-Ang):
   XX=           -123.6062   YY=           -123.0499   ZZ=            -89.9436
   XY=            -10.6708   XZ=             -4.8935   YZ=              5.5187

 Summary of Natural Population Analysis:

                                       Natural Population
                Natural  -----------------------------------------------
    Atom  No    Charge         Core      Valence    Rydberg      Total
 -----------------------------------------------------------------------
      C    1   -0.18024      0.99963     2.17099    0.00962     3.18024
      C    2   -0.19171      0.99962     2.18356    0.00852     3.19171
      C    3   -0.24137      0.99957     2.23312    0.00868     3.24137
      C    4    0.30693      0.99966     1.67201    0.02141     2.69307
      O    5   -0.29734      0.99987     3.29002    0.00745     4.29734
      C    6   -0.24167      0.99957     2.23382    0.00828     3.24167
      C    7   -0.17490      0.99962     2.16775    0.00753     3.17490
      C    8   -0.22541      0.99960     2.21733    0.00848     3.22541
      C    9    0.27087      0.99962     1.70428    0.02523     2.72913
      O   10   -0.23277      0.99988     3.22648    0.00641     4.23277
      C   11   -0.02523      0.99920     2.01657    0.00947     3.02523
      C   12    0.02593      0.99935     1.96422    0.01050     2.97407
      C   13   -0.22688      0.99958     2.21868    0.00863     3.22688
      H   14    0.09296      0.00000     0.40597    0.00107     0.40704
      H   15    0.09683      0.00000     0.40169    0.00147     0.40317
      H   16    0.09936      0.00000     0.39929    0.00135     0.40064
      H   17    0.09671      0.00000     0.40231    0.00098     0.40329
      H   18    0.10159      0.00000     0.39699    0.00142     0.39841
      H   19    0.12198      0.00000     0.37614    0.00188     0.37802
      H   20    0.11162      0.00000     0.38700    0.00138     0.38838
      H   21    0.10488      0.00000     0.39396    0.00117     0.39512
      H   22    0.09825      0.00000     0.40041    0.00135     0.40175
      H   23    0.09584      0.00000     0.40215    0.00201     0.40416
      H   24    0.10365      0.00000     0.39428    0.00207     0.39635
      H   25    0.09506      0.00000     0.40356    0.00137     0.40494
      H   26    0.11097      0.00000     0.38662    0.00242     0.38903
      H   27    0.10720      0.00000     0.39151    0.00129     0.39280
 =======================================================================
   * Total *    0.00311     12.99477    34.84070    0.16143    47.99689

 Normal termination of Gaussian 16 at Wed Dec  9 23:09:08 2020.
