 Gaussian 16, Revision A.03,

 -----------------------------------------------------------
 # opt freq B3LYP/6-31G(d) empiricaldispersion=gd3bj scf=xqc
 -----------------------------------------------------------

 ------------------------------
 CID_79989307_JID_6157_neutraal
 ------------------------------
 Symbolic Z-matrix:
 Charge =  0 Multiplicity = 1

 SCF Done:  E(RB3LYP) =  -1017.56413669     A.U. after   15 cycles
 SCF Done:  E(RB3LYP) =  -1017.57225171     A.U. after   12 cycles
 SCF Done:  E(RB3LYP) =  -1017.57114465     A.U. after   13 cycles
 SCF Done:  E(RB3LYP) =  -1017.57482299     A.U. after   13 cycles
 SCF Done:  E(RB3LYP) =  -1017.57731392     A.U. after   12 cycles
 SCF Done:  E(RB3LYP) =  -1017.57789177     A.U. after   12 cycles
 SCF Done:  E(RB3LYP) =  -1017.57804975     A.U. after   11 cycles
 SCF Done:  E(RB3LYP) =  -1017.57811133     A.U. after   10 cycles
 SCF Done:  E(RB3LYP) =  -1017.57811748     A.U. after   11 cycles
 SCF Done:  E(RB3LYP) =  -1017.57814364     A.U. after   10 cycles
 SCF Done:  E(RB3LYP) =  -1017.57826968     A.U. after    9 cycles
 SCF Done:  E(RB3LYP) =  -1017.57827003     A.U. after    7 cycles
 SCF Done:  E(RB3LYP) =  -1017.57827009     A.U. after    7 cycles
 SCF Done:  E(RB3LYP) =  -1017.57827012     A.U. after    7 cycles
 SCF Done:  E(RB3LYP) =  -1017.57827013     A.U. after    6 cycles
 Optimization completed.
    -- Stationary point found.
 Normal termination of Gaussian 16 at Thu Dec 10 21:47:25 2020.

 --------------------------------------------------------------------
 #N Geom=AllCheck Guess=TCheck SCRF=Check GenChk RB3LYP/6-31G(d) Freq
 --------------------------------------------------------------------

 Structure from the checkpoint file:  "JID_6157.chk"
 ------------------------------
 CID_79989307_JID_6157_neutraal
 ------------------------------
 Charge =  0 Multiplicity = 1

 SCF Done:  E(RB3LYP) =  -1017.57827013     A.U. after    1 cycles

  Exact polarizability: 187.558   6.927 155.235  -8.836  12.399 150.455
 Approx polarizability: 271.976  14.799 220.147 -21.589  31.080 241.282

                      1                      2                      3
                      A                      A                      A
 Frequencies --     34.0011                41.9148                55.8878
 Red. masses --      2.0078                 1.4500                 3.3695
 Frc consts  --      0.0014                 0.0015                 0.0062
 IR Inten    --      0.4157                 0.1032                 0.0631

                      4                      5                      6
                      A                      A                      A
 Frequencies --     64.9203                79.2009                90.9482
 Red. masses --      3.0921                 2.9039                 1.9473
 Frc consts  --      0.0077                 0.0107                 0.0095
 IR Inten    --      0.0387                 1.1419                 0.4822

                      7                      8                      9
                      A                      A                      A
 Frequencies --    112.6783               130.5612               182.7897
 Red. masses --      3.2186                 2.8737                 3.9248
 Frc consts  --      0.0241                 0.0289                 0.0773
 IR Inten    --      0.5381                 0.9208                 0.2446

                     10                     11                     12
                      A                      A                      A
 Frequencies --    204.8053               221.0042               243.5398
 Red. masses --      3.2110                 2.5332                 1.1535
 Frc consts  --      0.0794                 0.0729                 0.0403
 IR Inten    --      0.5627                 1.1267                 0.7046

                     13                     14                     15
                      A                      A                      A
 Frequencies --    253.8918               262.6810               268.7381
 Red. masses --      1.2360                 2.1356                 1.5244
 Frc consts  --      0.0469                 0.0868                 0.0649
 IR Inten    --      1.6488                 0.0858                 1.5640

                     16                     17                     18
                      A                      A                      A
 Frequencies --    273.0109               308.5720               315.4049
 Red. masses --      1.4766                 3.5034                 2.0781
 Frc consts  --      0.0648                 0.1965                 0.1218
 IR Inten    --      1.0622                 1.7808                 0.9421

                     19                     20                     21
                      A                      A                      A
 Frequencies --    342.0294               350.1557               356.1665
 Red. masses --      1.4085                 1.5495                 2.6013
 Frc consts  --      0.0971                 0.1119                 0.1944
 IR Inten    --      0.8396                 1.1466                 3.1612

                     22                     23                     24
                      A                      A                      A
 Frequencies --    375.3440               401.5490               423.3956
 Red. masses --      2.3905                 2.8261                 2.3760
 Frc consts  --      0.1984                 0.2685                 0.2510
 IR Inten    --      3.2157                 3.4091                 2.8342

                     25                     26                     27
                      A                      A                      A
 Frequencies --    458.2058               473.3289               504.4749
 Red. masses --      2.9395                 2.8183                 3.5188
 Frc consts  --      0.3636                 0.3720                 0.5276
 IR Inten    --      0.1978                 5.0743                 2.7748

                     28                     29                     30
                      A                      A                      A
 Frequencies --    545.2540               569.6971               600.5158
 Red. masses --      5.2156                 3.1285                 3.3714
 Frc consts  --      0.9136                 0.5982                 0.7163
 IR Inten    --      0.2328                15.3463                 2.9637

                     31                     32                     33
                      A                      A                      A
 Frequencies --    652.4129               684.0550               693.8481
 Red. masses --      3.1985                 4.9577                 4.2562
 Frc consts  --      0.8021                 1.3668                 1.2073
 IR Inten    --      1.4777                 4.2687                 8.5453

                     34                     35                     36
                      A                      A                      A
 Frequencies --    722.0063               737.4038               827.2221
 Red. masses --      1.6524                 2.5780                 2.2471
 Frc consts  --      0.5075                 0.8259                 0.9060
 IR Inten    --     26.8641                 6.7353                16.0944

                     37                     38                     39
                      A                      A                      A
 Frequencies --    830.1956               858.7282               885.2802
 Red. masses --      1.5013                 1.9449                 1.2590
 Frc consts  --      0.6096                 0.8450                 0.5813
 IR Inten    --      6.1257                49.7734                 1.1598

                     40                     41                     42
                      A                      A                      A
 Frequencies --    911.6206               926.6957               945.3169
 Red. masses --      2.6836                 2.2730                 2.1031
 Frc consts  --      1.3140                 1.1501                 1.1073
 IR Inten    --     56.3690                 6.0257                 6.7187

                     43                     44                     45
                      A                      A                      A
 Frequencies --    953.8771               973.3764              1013.0180
 Red. masses --      1.4656                 1.6024                 2.1267
 Frc consts  --      0.7857                 0.8945                 1.2859
 IR Inten    --      1.9490                 4.3041                49.6214

                     46                     47                     48
                      A                      A                      A
 Frequencies --   1025.6821              1040.9350              1063.1426
 Red. masses --      1.6372                 1.5168                 2.1926
 Frc consts  --      1.0148                 0.9683                 1.4601
 IR Inten    --      2.5227                23.6933                 1.9608

                     49                     50                     51
                      A                      A                      A
 Frequencies --   1071.9622              1082.9416              1111.3221
 Red. masses --      1.5557                 1.5716                 1.2901
 Frc consts  --      1.0533                 1.0859                 0.9388
 IR Inten    --      1.5145                14.5700                 0.4523

                     52                     53                     54
                      A                      A                      A
 Frequencies --   1128.6454              1133.9215              1155.3535
 Red. masses --      3.4131                 1.2342                 2.0824
 Frc consts  --      2.5617                 0.9350                 1.6377
 IR Inten    --     56.4893                 4.8471                25.1387

                     55                     56                     57
                      A                      A                      A
 Frequencies --   1172.2084              1182.7597              1195.2314
 Red. masses --      2.7678                 1.9397                 1.8735
 Frc consts  --      2.2408                 1.5987                 1.5769
 IR Inten    --      5.4060                11.9573                16.5842

                     58                     59                     60
                      A                      A                      A
 Frequencies --   1200.1988              1220.0731              1252.8068
 Red. masses --      1.7923                 2.1173                 2.5839
 Frc consts  --      1.5212                 1.8570                 2.3895
 IR Inten    --     11.8434                 4.0644                19.4729

                     61                     62                     63
                      A                      A                      A
 Frequencies --   1260.3371              1292.8984              1306.5587
 Red. masses --      1.8795                 2.4736                 1.3533
 Frc consts  --      1.7590                 2.4361                 1.3611
 IR Inten    --      4.2654                10.2422                 2.0857

                     64                     65                     66
                      A                      A                      A
 Frequencies --   1313.7811              1352.9251              1362.5326
 Red. masses --      2.1656                 1.5335                 1.2595
 Frc consts  --      2.2023                 1.6538                 1.3777
 IR Inten    --     15.4962                10.2976                12.4320

                     67                     68                     69
                      A                      A                      A
 Frequencies --   1412.9969              1414.5031              1421.5010
 Red. masses --      1.2780                 2.5657                 1.2493
 Frc consts  --      1.5034                 3.0245                 1.4873
 IR Inten    --      6.9862                 2.9141                 6.0015

                     70                     71                     72
                      A                      A                      A
 Frequencies --   1441.8653              1446.0974              1447.3404
 Red. masses --      1.2981                 1.2656                 1.3141
 Frc consts  --      1.5900                 1.5593                 1.6219
 IR Inten    --     17.8819                 4.8050                 0.8615

                     73                     74                     75
                      A                      A                      A
 Frequencies --   1469.4581              1498.2471              1501.5972
 Red. masses --      1.1499                 2.8072                 1.1877
 Frc consts  --      1.4630                 3.7127                 1.5778
 IR Inten    --      2.0753                 7.5604                 2.2062

                     76                     77                     78
                      A                      A                      A
 Frequencies --   1504.9557              1511.8485              1514.7350
 Red. masses --      1.1732                 1.0553                 1.0484
 Frc consts  --      1.5656                 1.4212                 1.4172
 IR Inten    --     22.4376                 2.2767                 4.8687

                     79                     80                     81
                      A                      A                      A
 Frequencies --   1516.9809              1522.8282              1525.7375
 Red. masses --      1.0505                 1.0489                 1.0926
 Frc consts  --      1.4243                 1.4332                 1.4985
 IR Inten    --      7.0836                 4.3398                 7.9415

                     82                     83                     84
                      A                      A                      A
 Frequencies --   1529.1325              1531.9667              1532.8768
 Red. masses --      1.2320                 1.0731                 1.0728
 Frc consts  --      1.6972                 1.4839                 1.4852
 IR Inten    --      7.3106                 0.3022                16.1520

                     85                     86                     87
                      A                      A                      A
 Frequencies --   1538.3959              1545.0934              1551.9947
 Red. masses --      1.0527                 1.0554                 1.0676
 Frc consts  --      1.4679                 1.4846                 1.5151
 IR Inten    --      4.3146                 4.4656                 2.2260

                     88                     89                     90
                      A                      A                      A
 Frequencies --   1553.9877              1563.6290              1620.4570
 Red. masses --      1.0710                 1.0522                 5.3268
 Frc consts  --      1.5238                 1.5157                 8.2413
 IR Inten    --      4.3509                 2.7434                 1.4369

                     91                     92                     93
                      A                      A                      A
 Frequencies --   2946.3733              2962.5485              2974.3517
 Red. masses --      1.0620                 1.0618                 1.0706
 Frc consts  --      5.4319                 5.4907                 5.5805
 IR Inten    --     72.0762               147.8318                42.4542

                     94                     95                     96
                      A                      A                      A
 Frequencies --   3043.2919              3046.5012              3053.8568
 Red. masses --      1.0402                 1.0430                 1.0831
 Frc consts  --      5.6764                 5.7035                 5.9515
 IR Inten    --     31.4476                19.7880                24.4778

                     97                     98                     99
                      A                      A                      A
 Frequencies --   3054.6236              3064.6512              3071.3031
 Red. masses --      1.0398                 1.0542                 1.0649
 Frc consts  --      5.7164                 5.8333                 5.9184
 IR Inten    --     16.4136                 7.7482                45.4585

                    100                    101                    102
                      A                      A                      A
 Frequencies --   3074.7260              3088.1177              3090.5324
 Red. masses --      1.0807                 1.0766                 1.1008
 Frc consts  --      6.0195                 6.0489                 6.1948
 IR Inten    --     29.3179                38.2746                21.4171

                    103                    104                    105
                      A                      A                      A
 Frequencies --   3111.8389              3112.1545              3127.5708
 Red. masses --      1.1005                 1.1014                 1.1012
 Frc consts  --      6.2785                 6.2853                 6.3464
 IR Inten    --     23.8175                34.9405                45.1761

                    106                    107                    108
                      A                      A                      A
 Frequencies --   3129.9123              3140.1115              3153.3382
 Red. masses --      1.1033                 1.0965                 1.1008
 Frc consts  --      6.3678                 6.3703                 6.4492
 IR Inten    --     28.6542                21.9025                16.3591

                    109                    110                    111
                      A                      A                      A
 Frequencies --   3160.7797              3162.1075              3187.3844
 Red. masses --      1.0985                 1.0962                 1.0942
 Frc consts  --      6.4663                 6.4582                 6.5496
 IR Inten    --      9.3887                29.0895                 6.5939

                    112                    113                    114
                      A                      A                      A
 Frequencies --   3204.2851              3260.5511              3478.1065
 Red. masses --      1.0906                 1.0967                 1.0732
 Frc consts  --      6.5975                 6.8693                 7.6492
 IR Inten    --     14.1277                 3.7263                 0.1307

 - Thermochemistry -
 -------------------
 Temperature   298.150 Kelvin.  Pressure   1.00000 Atm.
 Atom     1 has atomic number  6 and mass  12.00000

 Molecular mass:   240.16602 amu.
 Principal axes and moments of inertia in atomic units:
                           1         2         3
     Eigenvalues --  3342.699844216.858105379.42872
           X            0.99793  -0.06296  -0.01277
           Y            0.06255   0.99757  -0.03073
           Z            0.01467   0.02986   0.99945
 This molecule is an asymmetric top.
 Rotational symmetry number  1.
 Warning -- assumption of classical behavior for rotation
           may cause significant error
 Rotational temperatures (Kelvin)      0.02591     0.02054     0.01610
 Rotational constants (GHZ):           0.53991     0.42798     0.33549
 Zero-point vibrational energy     938489.5 (Joules/Mol)
                                  224.30436 (Kcal/Mol)
 Warning -- explicit consideration of  30 degrees of freedom as
           vibrations may cause significant error
 Vibrational temperatures:     48.92    60.31    80.41    93.41   113.95
          (Kelvin)            130.85   162.12   187.85   262.99   294.67
                              317.98   350.40   365.29   377.94   386.65
                              392.80   443.97   453.80   492.10   503.80
                              512.44   540.04   577.74   609.17   659.26
                              681.01   725.83   784.50   819.67   864.01
                              938.68   984.20   998.29  1038.81  1060.96
                             1190.19  1194.47  1235.52  1273.72  1311.62
                             1333.31  1360.10  1372.42  1400.47  1457.51
                             1475.73  1497.67  1529.63  1542.31  1558.11
                             1598.94  1623.87  1631.46  1662.30  1686.55
                             1701.73  1719.67  1726.82  1755.41  1802.51
                             1813.34  1860.19  1879.85  1890.24  1946.56
                             1960.38  2032.99  2035.15  2045.22  2074.52
                             2080.61  2082.40  2114.22  2155.64  2160.46
                             2165.30  2175.21  2179.37  2182.60  2191.01
                             2195.20  2200.08  2204.16  2205.47  2213.41
                             2223.04  2232.97  2235.84  2249.71  2331.48
                             4239.17  4262.45  4279.43  4378.62  4383.24
                             4393.82  4394.92  4409.35  4418.92  4423.84
                             4443.11  4446.59  4477.24  4477.70  4499.88
                             4503.25  4517.92  4536.95  4547.66  4549.57
                             4585.94  4610.25  4691.21  5004.22

 Zero-point correction=                           0.357452 (Hartree/Particle)
 Thermal correction to Energy=                    0.376272
 Thermal correction to Enthalpy=                  0.377216
 Thermal correction to Gibbs Free Energy=         0.310707
 Sum of electronic and zero-point Energies=          -1017.220818
 Sum of electronic and thermal Energies=             -1017.201999
 Sum of electronic and thermal Enthalpies=           -1017.201054
 Sum of electronic and thermal Free Energies=        -1017.267563

                     E (Thermal)             CV                S
                      KCal/Mol        Cal/Mol-Kelvin    Cal/Mol-Kelvin
 Total                  236.114             71.019            139.980
 Electronic               0.000              0.000              0.000
 Translational            0.889              2.981             42.330
 Rotational               0.889              2.981             32.694
 Vibrational            234.337             65.057             64.956
 Vibration     1          0.594              1.983              5.581
 Vibration     2          0.595              1.980              5.166
 Vibration     3          0.596              1.975              4.597
 Vibration     4          0.597              1.971              4.302
 Vibration     5          0.600              1.963              3.911
 Vibration     6          0.602              1.956              3.640
 Vibration     7          0.607              1.939              3.222
 Vibration     8          0.612              1.923              2.938
 Vibration     9          0.630              1.863              2.300
 Vibration    10          0.640              1.833              2.089
 Vibration    11          0.648              1.809              1.951
 Vibration    12          0.659              1.773              1.777
 Vibration    13          0.665              1.756              1.703
 Vibration    14          0.670              1.741              1.644
 Vibration    15          0.673              1.731              1.604
 Vibration    16          0.676              1.723              1.577
 Vibration    17          0.698              1.657              1.370
 Vibration    18          0.703              1.644              1.334
 Vibration    19          0.721              1.591              1.203
 Vibration    20          0.727              1.575              1.165
 Vibration    21          0.732              1.563              1.139
 Vibration    22          0.746              1.523              1.058
 Vibration    23          0.767              1.467              0.957
 Vibration    24          0.786              1.419              0.881
 Vibration    25          0.816              1.343              0.771
 Vibration    26          0.830              1.309              0.728
 Vibration    27          0.860              1.240              0.647
 Vibration    28          0.900              1.150              0.554
 Vibration    29          0.926              1.097              0.505
 Vibration    30          0.959              1.031              0.449

                           ! Non-Optimized Parameters !
 Normal termination of Gaussian 16 at Thu Dec 10 22:04:08 2020.

 ----------------------------------------------------------------------
 # B3LYP/6-311++G(d,p) empiricaldispersion=gd3bj scf=xqc pop=npa geom=c
 heck
 ----------------------------------------------------------------------

 --------------------------------------
 CID_79989307_JID_6157_Energie_neutraal
 --------------------------------------
 Structure from the checkpoint file:  "JID_6157.chk"
 Charge =  0 Multiplicity = 1

 SCF Done:  E(RB3LYP) =  -1017.77582769     A.U. after   15 cycles
 Normal termination of Gaussian 16 at Thu Dec 10 22:13:39 2020.

 ----------------------------------------------------------------------
 # B3LYP/6-311++G(d,p) empiricaldispersion=gd3bj scf=xqc pop=npa geom=c
 heck
 ----------------------------------------------------------------------

 ------------------------------------
 CID_79989307_JID_6157_Energie_kation
 ------------------------------------
 Structure from the checkpoint file:  "JID_6157.chk"
 Charge =  1 Multiplicity = 2

 SCF Done:  E(UB3LYP) =  -1017.50772246     A.U. after   27 cycles
 Normal termination of Gaussian 16 at Thu Dec 10 22:39:39 2020.
 Gaussian 16:  ES64L-G16RevA.03 25-Dec-2016

 ----------------------------------------------------------------------
 # B3LYP/6-311++G(d,p) empiricaldispersion=gd3bj scf=xqc pop=npa geom=c
 heck
 ----------------------------------------------------------------------

 -----------------------------------
 CID_79989307_JID_6157_Energie_anion
 -----------------------------------
 Structure from the checkpoint file:  "JID_6157.chk"
 Charge = -1 Multiplicity = 2

                         Standard orientation:
 ---------------------------------------------------------------------
 Center     Atomic      Atomic             Coordinates (Angstroms)
 Number     Number       Type             X           Y           Z
 ---------------------------------------------------------------------
      1          6           0       -0.691907    3.820467   -1.143226
      2          6           0       -0.855770    2.677333   -0.147258
      3          7           0        0.257442    1.733671   -0.268315
      4          6           0        0.128208    0.556505    0.611457
      5          6           0       -0.965729   -0.376594    0.151614
      6          6           0       -2.238727   -0.515672    0.654860
      7          6           0       -3.043940   -1.411941   -0.128490
      8          6           0       -2.387430   -1.922041   -1.207956
      9         16           0       -0.746114   -1.354573   -1.293952
     10          6           0       -2.785526    0.170455    1.879221
     11          6           0        1.497600   -0.158987    0.844563
     12          6           0        2.470634    0.812333    1.541466
     13          6           0        1.234760   -1.327751    1.810663
     14          7           0        2.005426   -0.643635   -0.472175
     15          6           0        2.809202    0.314393   -1.231850
     16          6           0        2.670152   -1.939205   -0.491517
     17          1           0        0.268098    4.325561   -0.994881
     18          1           0       -1.496917    4.554735   -1.031317
     19          1           0       -0.722997    3.448126   -2.174915
     20          1           0       -0.846060    3.072465    0.876924
     21          1           0       -1.837190    2.192925   -0.291916
     22          1           0        0.273568    1.395406   -1.230005
     23          1           0       -0.167739    0.949833    1.590225
     24          1           0       -4.072537   -1.652967    0.121761
     25          1           0       -2.758810   -2.625057   -1.942034
     26          1           0       -3.588516    0.870609    1.616445
     27          1           0       -3.211203   -0.560102    2.577897
     28          1           0       -2.021576    0.735882    2.417942
     29          1           0        2.118024    1.034406    2.554967
     30          1           0        3.466380    0.363217    1.627634
     31          1           0        2.550817    1.757236    1.001925
     32          1           0        0.573653   -2.082783    1.381124
     33          1           0        2.168203   -1.806736    2.120253
     34          1           0        0.747842   -0.939115    2.711165
     35          1           0        3.852215    0.382636   -0.872861
     36          1           0        2.840131   -0.007385   -2.279367
     37          1           0        2.369508    1.308821   -1.186600
     38          1           0        3.622142   -1.957994    0.072379
     39          1           0        2.019659   -2.725863   -0.108432
     40          1           0        2.901900   -2.186704   -1.532934
 ---------------------------------------------------------------------

 SCF Done:  E(UB3LYP) =  -1017.76048504     A.U. after   33 cycles
 SCF Done:  E(UB3LYP) =  -1017.76048504     a.u. after    1 cycles

 The electronic state is 2-A.
 Alpha  occ. eigenvalues --  -88.76984 -14.21095 -14.20138 -10.11631 -10.10922
 Alpha  occ. eigenvalues --  -10.09674 -10.09611 -10.09357 -10.09049 -10.08716
 Alpha  occ. eigenvalues --  -10.08331 -10.07497 -10.07145 -10.06693 -10.06200
 Alpha  occ. eigenvalues --  -10.05649  -7.85540  -5.81832  -5.81453  -5.81142
 Alpha  occ. eigenvalues --   -0.83700  -0.80916  -0.77554  -0.70002  -0.66750
 Alpha  occ. eigenvalues --   -0.65294  -0.62967  -0.61444  -0.58356  -0.57822
 Alpha  occ. eigenvalues --   -0.56170  -0.54363  -0.51487  -0.46610  -0.44364
 Alpha  occ. eigenvalues --   -0.43418  -0.39555  -0.39482  -0.38098  -0.37308
 Alpha  occ. eigenvalues --   -0.36024  -0.35065  -0.34199  -0.33017  -0.32474
 Alpha  occ. eigenvalues --   -0.32245  -0.31166  -0.29960  -0.29899  -0.29328
 Alpha  occ. eigenvalues --   -0.28241  -0.28071  -0.27811  -0.27208  -0.27096
 Alpha  occ. eigenvalues --   -0.26809  -0.26190  -0.25519  -0.25263  -0.24042
 Alpha  occ. eigenvalues --   -0.23535  -0.22470  -0.15233  -0.14473  -0.12514
 Alpha  occ. eigenvalues --   -0.11550   0.04301
 Alpha virt. eigenvalues --    0.06165   0.06541   0.06717   0.07768   0.08102
 Alpha virt. eigenvalues --    0.08243   0.08584   0.08814   0.09689   0.10263
 Alpha virt. eigenvalues --    0.10476   0.10915   0.11135   0.11457   0.11558

  Beta  occ. eigenvalues --  -88.76982 -14.21092 -14.20132 -10.11629 -10.10914
  Beta  occ. eigenvalues --  -10.09671 -10.09603 -10.09339 -10.09028 -10.08703
  Beta  occ. eigenvalues --  -10.08328 -10.07487 -10.07113 -10.06671 -10.06181
  Beta  occ. eigenvalues --  -10.05625  -7.85538  -5.81829  -5.81451  -5.81139
  Beta  occ. eigenvalues --   -0.83690  -0.80903  -0.77544  -0.69984  -0.66726
  Beta  occ. eigenvalues --   -0.65266  -0.62944  -0.61415  -0.58315  -0.57779
  Beta  occ. eigenvalues --   -0.56132  -0.54331  -0.51429  -0.46581  -0.44326
  Beta  occ. eigenvalues --   -0.43395  -0.39523  -0.39454  -0.38070  -0.37288
  Beta  occ. eigenvalues --   -0.35996  -0.35039  -0.34177  -0.32988  -0.32452
  Beta  occ. eigenvalues --   -0.32214  -0.31141  -0.29936  -0.29868  -0.29292
  Beta  occ. eigenvalues --   -0.28210  -0.28045  -0.27788  -0.27174  -0.27073
  Beta  occ. eigenvalues --   -0.26786  -0.26167  -0.25492  -0.25228  -0.24023
  Beta  occ. eigenvalues --   -0.23517  -0.22452  -0.15217  -0.14457  -0.12496
  Beta  occ. eigenvalues --   -0.11537
  Beta virt. eigenvalues --    0.06147   0.06875   0.07045   0.07262   0.07823
  Beta virt. eigenvalues --    0.08490   0.08575   0.09093   0.09230   0.09926
  Beta virt. eigenvalues --    0.10650   0.10723   0.11151   0.11424   0.11746

 Mulliken charges and spin densities:
               1          2
     1  C    0.733132  -1.321546
     2  C   -0.305131   0.055017
     3  N    0.171883  -0.042439
     4  C   -0.716872   0.327313
     5  C    1.214373  -0.501747
     6  C   -1.347836   1.265651
     7  C   -0.962134   0.948892
     8  C   -0.006739  -0.217311
     9  S    0.150392  -0.608537
    10  C    2.027715  -2.751916
    11  C   -2.048607   1.781641
    12  C    0.444440  -0.886769
    13  C    0.404299  -1.030350
    14  N    0.082331   0.065087
    15  C   -0.037416  -0.353620
    16  C    0.261267  -0.593138
    17  H   -0.043965   0.199333
    18  H   -0.172554   0.311394
    19  H   -0.084720   0.212776
    20  H   -0.391044   0.545957
    21  H    0.330549  -0.164637
    22  H    0.235816  -0.092732
    23  H    1.055789  -0.745633
    24  H   -0.412022   0.583798
    25  H   -0.164473   0.382892
    26  H   -0.091865   0.270666
    27  H   -0.147693   0.309290
    28  H   -0.719417   0.810508
    29  H   -0.376746   0.506094
    30  H    0.028368   0.145372
    31  H    0.068384   0.095607
    32  H    0.229623  -0.070535
    33  H   -0.140516   0.303451
    34  H   -0.113083   0.266252
    35  H   -0.129448   0.244472
    36  H   -0.015320   0.153792
    37  H    0.182195  -0.032655
    38  H   -0.107976   0.254538
    39  H   -0.165674   0.321735
    40  H    0.080692   0.052038
 Sum of Mulliken charges =  -1.00000   1.00000

 Dipole moment (field-independent basis, Debye):
    X=              1.2688    Y=             -1.9037    Z=             -3.5698  Tot=              4.2400
 Quadrupole moment (field-independent basis, Debye-Ang):
   XX=           -175.1850   YY=           -165.7159   ZZ=           -155.2222
   XY=              4.0524   XZ=              1.8080   YZ=             -2.1726

 Summary of Natural Population Analysis:

                                       Natural Population
                Natural  -----------------------------------------------
    Atom  No    Charge         Core      Valence    Rydberg      Total
 -----------------------------------------------------------------------
      C    1   -0.28502      0.99966     2.28110    0.00425     3.28502
      C    2   -0.08532      0.99963     2.07599    0.00969     3.08532
      N    3   -0.34159      0.99974     2.83051    0.01134     3.84159
      C    4   -0.02872      0.99945     2.01084    0.01843     3.02872
      C    5   -0.09943      0.99939     2.08486    0.01517     3.09943
      C    6   -0.04570      0.99941     2.03500    0.01130     3.04570
      C    7   -0.12483      0.99948     2.11429    0.01106     3.12483
      C    8   -0.19544      0.99953     2.18512    0.01080     3.19544
      S    9    0.20807      4.99941     2.77161    0.02090     7.79193
      C   10   -0.28931      0.99963     2.28373    0.00595     3.28931
      C   11    0.08213      0.99954     1.90122    0.01711     2.91787
      C   12   -0.29886      0.99961     2.29211    0.00714     3.29886
      C   13   -0.29465      0.99961     2.28813    0.00691     3.29465
      N   14   -0.29896      0.99970     2.78595    0.01331     3.79896
      C   15   -0.18199      0.99963     2.17400    0.00836     3.18199
      C   16   -0.17572      0.99963     2.16745    0.00863     3.17572
      H   17    0.09926      0.00000     0.39954    0.00120     0.40074
      H   18    0.10014      0.00000     0.39889    0.00097     0.39986
      H   19    0.09357      0.00000     0.40535    0.00108     0.40643
      H   20    0.09054      0.00000     0.40772    0.00174     0.40946
      H   21    0.08247      0.00000     0.41522    0.00231     0.41753
      H   22    0.17178      0.00000     0.32457    0.00365     0.32822
      H   23    0.10543      0.00000     0.39172    0.00285     0.39457
      H   24    0.10473      0.00000     0.39429    0.00098     0.39527
      H   25    0.10683      0.00000     0.39234    0.00083     0.39317
      H   26    0.10553      0.00000     0.39308    0.00139     0.39447
      H   27    0.10447      0.00000     0.39442    0.00111     0.39553
      H   28    0.10395      0.00000     0.39458    0.00147     0.39605
      H   29    0.10249      0.00000     0.39635    0.00116     0.39751
      H   30    0.10048      0.00000     0.39841    0.00111     0.39952
      H   31    0.10995      0.00000     0.38867    0.00138     0.39005
      H   32    0.10767      0.00000     0.39107    0.00126     0.39233
      H   33    0.10310      0.00000     0.39595    0.00095     0.39690
      H   34    0.10480      0.00000     0.39404    0.00117     0.39520
      H   35    0.08243      0.00000     0.41637    0.00120     0.41757
      H   36    0.09248      0.00000     0.40674    0.00078     0.40752
      H   37    0.10680      0.00000     0.39172    0.00148     0.39320
      H   38    0.08191      0.00000     0.41677    0.00132     0.41809
      H   39    0.09970      0.00000     0.39921    0.00110     0.40030
      H   40    0.09482      0.00000     0.40433    0.00086     0.40518
 =======================================================================
   * Total *   -0.00000     19.99305    45.79326    0.21369    66.00000

 Normal termination of Gaussian 16 at Thu Dec 10 23:09:50 2020.
