 Gaussian 16, Revision A.03,

 -----------------------------------------------------------
 # opt freq B3LYP/6-31G(d) empiricaldispersion=gd3bj scf=xqc
 -----------------------------------------------------------

 -----------------------------
 CID_54493948_JID_573_neutraal
 -----------------------------
 Symbolic Z-matrix:
 Charge =  0 Multiplicity = 1

 SCF Done:  E(RB3LYP) =  -391.882983791     A.U. after   13 cycles
 SCF Done:  E(RB3LYP) =  -391.890576627     A.U. after   11 cycles
 SCF Done:  E(RB3LYP) =  -391.890934967     A.U. after   11 cycles
 SCF Done:  E(RB3LYP) =  -391.890971921     A.U. after   10 cycles
 SCF Done:  E(RB3LYP) =  -391.890984962     A.U. after    9 cycles
 SCF Done:  E(RB3LYP) =  -391.890997591     A.U. after    9 cycles
 SCF Done:  E(RB3LYP) =  -391.891005103     A.U. after    9 cycles
 SCF Done:  E(RB3LYP) =  -391.891007967     A.U. after    8 cycles
 SCF Done:  E(RB3LYP) =  -391.891010246     A.U. after    8 cycles
 SCF Done:  E(RB3LYP) =  -391.891011148     A.U. after    7 cycles
 SCF Done:  E(RB3LYP) =  -391.891011646     A.U. after    8 cycles
 SCF Done:  E(RB3LYP) =  -391.891011751     A.U. after    7 cycles
 Optimization completed.
    -- Stationary point found.
 Normal termination of Gaussian 16 at Tue Dec  8 12:13:20 2020.

 --------------------------------------------------------------------
 #N Geom=AllCheck Guess=TCheck SCRF=Check GenChk RB3LYP/6-31G(d) Freq
 --------------------------------------------------------------------

 Structure from the checkpoint file:  "JID_573.chk"
 -----------------------------
 CID_54493948_JID_573_neutraal
 -----------------------------
 Charge =  0 Multiplicity = 1

 SCF Done:  E(RB3LYP) =  -391.891011751     A.U. after    1 cycles

  Exact polarizability: 142.357  -2.439  95.367  -3.708  -2.447  85.222
 Approx polarizability: 170.287  -7.484 136.538  -6.634  -4.415 123.849

                      1                      2                      3
                      A                      A                      A
 Frequencies --     31.0328                43.7056                72.7031
 Red. masses --      3.0746                 3.2590                 2.5472
 Frc consts  --      0.0017                 0.0037                 0.0079
 IR Inten    --      0.0446                 0.0020                 0.0098

                      4                      5                      6
                      A                      A                      A
 Frequencies --     98.9078               134.6225               159.2151
 Red. masses --      3.1399                 2.5885                 2.2812
 Frc consts  --      0.0181                 0.0276                 0.0341
 IR Inten    --      0.2857                 0.1086                 0.2274

                      7                      8                      9
                      A                      A                      A
 Frequencies --    204.3038               225.2542               267.4855
 Red. masses --      1.2774                 1.3193                 1.9220
 Frc consts  --      0.0314                 0.0394                 0.0810
 IR Inten    --      0.0308                 0.0541                 0.0767

                     10                     11                     12
                      A                      A                      A
 Frequencies --    294.0560               344.4965               384.2389
 Red. masses --      1.7055                 2.1205                 1.9949
 Frc consts  --      0.0869                 0.1483                 0.1735
 IR Inten    --      0.1985                 0.4418                 1.0678

                     13                     14                     15
                      A                      A                      A
 Frequencies --    396.8983               453.5525               530.1674
 Red. masses --      2.4392                 2.0531                 2.7388
 Frc consts  --      0.2264                 0.2488                 0.4536
 IR Inten    --      1.4987                 0.0937                 2.1486

                     16                     17                     18
                      A                      A                      A
 Frequencies --    539.8475               701.4391               745.2645
 Red. masses --      2.4565                 1.7541                 1.5281
 Frc consts  --      0.4218                 0.5085                 0.5001
 IR Inten    --      0.9013                14.8496                 3.2274

                     19                     20                     21
                      A                      A                      A
 Frequencies --    781.1488               825.0129               838.2021
 Red. masses --      1.8482                 2.0813                 1.4230
 Frc consts  --      0.6645                 0.8347                 0.5890
 IR Inten    --      0.0877                 1.8879                 3.9150

                     22                     23                     24
                      A                      A                      A
 Frequencies --    855.1382               893.1212               920.9967
 Red. masses --      1.6000                 1.5478                 1.6119
 Frc consts  --      0.6894                 0.7274                 0.8056
 IR Inten    --      2.2932                 4.7359                 2.4914

                     25                     26                     27
                      A                      A                      A
 Frequencies --    934.2467               989.8133              1001.5621
 Red. masses --      1.7340                 2.4318                 1.1710
 Frc consts  --      0.8917                 1.4037                 0.6921
 IR Inten    --      1.9583                 4.6211                 4.2557

                     28                     29                     30
                      A                      A                      A
 Frequencies --   1007.2950              1026.0266              1049.3796
 Red. masses --      1.7539                 1.7505                 1.4072
 Frc consts  --      1.0485                 1.0858                 0.9130
 IR Inten    --      0.7972                 1.1881                 1.1783

                     31                     32                     33
                      A                      A                      A
 Frequencies --   1067.2480              1094.7709              1100.9015
 Red. masses --      1.5545                 1.6902                 1.8013
 Frc consts  --      1.0432                 1.1935                 1.2863
 IR Inten    --      0.6686                 1.7702                 3.2855

                     34                     35                     36
                      A                      A                      A
 Frequencies --   1135.7699              1143.7619              1158.5222
 Red. masses --      2.0033                 1.7220                 2.0557
 Frc consts  --      1.5226                 1.3272                 1.6256
 IR Inten    --      2.6448                 5.4650                 0.5322

                     37                     38                     39
                      A                      A                      A
 Frequencies --   1171.1263              1180.9899              1221.4731
 Red. masses --      1.8623                 1.7579                 1.2936
 Frc consts  --      1.5049                 1.4446                 1.1372
 IR Inten    --      2.7927                 2.0205                 0.9623

                     40                     41                     42
                      A                      A                      A
 Frequencies --   1250.3923              1304.9654              1335.6217
 Red. masses --      1.3763                 1.2269                 1.2005
 Frc consts  --      1.2678                 1.2310                 1.2618
 IR Inten    --      1.2927                 1.6714                 1.0139

                     43                     44                     45
                      A                      A                      A
 Frequencies --   1353.6369              1369.1204              1382.7810
 Red. masses --      1.2211                 1.4211                 1.4234
 Frc consts  --      1.3183                 1.5695                 1.6036
 IR Inten    --     17.0070                 0.0402                 9.9196

                     46                     47                     48
                      A                      A                      A
 Frequencies --   1405.4083              1412.0980              1425.1968
 Red. masses --      1.4209                 1.4217                 1.4041
 Frc consts  --      1.6535                 1.6703                 1.6804
 IR Inten    --      0.9312                 4.1629                 3.8627

                     49                     50                     51
                      A                      A                      A
 Frequencies --   1440.3163              1443.8388              1491.8870
 Red. masses --      1.3124                 1.2722                 1.1901
 Frc consts  --      1.6041                 1.5626                 1.5606
 IR Inten    --      2.5866                 5.3102                 2.1713

                     52                     53                     54
                      A                      A                      A
 Frequencies --   1507.2021              1516.3445              1520.7481
 Red. masses --      1.0824                 1.0814                 1.0472
 Frc consts  --      1.4487                 1.4650                 1.4269
 IR Inten    --      2.5643                 5.8359                 2.2469

                     55                     56                     57
                      A                      A                      A
 Frequencies --   1525.2315              1527.9762              1530.1055
 Red. masses --      1.0899                 1.0572                 1.0488
 Frc consts  --      1.4939                 1.4543                 1.4468
 IR Inten    --      5.1699                 3.3856                 4.3476

                     58                     59                     60
                      A                      A                      A
 Frequencies --   1534.4187              1542.8798              1863.8480
 Red. masses --      1.0593                 1.0752                 9.9886
 Frc consts  --      1.4695                 1.5080                20.4445
 IR Inten    --      5.7943                 2.7766                 1.1634

                     61                     62                     63
                      A                      A                      A
 Frequencies --   3026.6830              3029.3520              3035.2195
 Red. masses --      1.0665                 1.0625                 1.0621
 Frc consts  --      5.7564                 5.7447                 5.7652
 IR Inten    --     38.5950                 5.6687                34.2711

                     64                     65                     66
                      A                      A                      A
 Frequencies --   3040.9398              3041.9075              3045.4821
 Red. masses --      1.0550                 1.0355                 1.0440
 Frc consts  --      5.7479                 5.6456                 5.7049
 IR Inten    --     11.3378                44.8741                28.5001

                     67                     68                     69
                      A                      A                      A
 Frequencies --   3062.0124              3068.5279              3079.9827
 Red. masses --      1.0972                 1.1004                 1.0992
 Frc consts  --      6.0612                 6.1044                 6.1434
 IR Inten    --     19.0101                47.1478                80.9498

                     70                     71                     72
                      A                      A                      A
 Frequencies --   3085.4883              3104.1986              3106.8653
 Red. masses --      1.0999                 1.1028                 1.0924
 Frc consts  --      6.1696                 6.2609                 6.2125
 IR Inten    --     43.7371                30.1496                 1.0022

                     73                     74                     75
                      A                      A                      A
 Frequencies --   3108.6984              3111.6220              3115.5949
 Red. masses --      1.1016                 1.0544                 1.1019
 Frc consts  --      6.2724                 6.0151                 6.3022
 IR Inten    --     50.1594                24.1723                50.2754

                     76                     77                     78
                      A                      A                      A
 Frequencies --   3123.7214              3142.1083              3185.2799
 Red. masses --      1.0951                 1.0880                 1.1154
 Frc consts  --      6.2957                 6.3289                 6.6680
 IR Inten    --     49.2737                28.6119                15.7639

 - Thermochemistry -
 -------------------
 Temperature   298.150 Kelvin.  Pressure   1.00000 Atm.
 Atom     1 has atomic number  6 and mass  12.00000

 Molecular mass:   138.14085 amu.
 Principal axes and moments of inertia in atomic units:
                           1         2         3
     Eigenvalues --   549.897763907.123394076.24257
           X            1.00000   0.00260  -0.00056
           Y           -0.00260   0.99999  -0.00181
           Z            0.00056   0.00182   1.00000
 This molecule is an asymmetric top.
 Rotational symmetry number  1.
 Warning -- assumption of classical behavior for rotation
           may cause significant error
 Rotational temperatures (Kelvin)      0.15751     0.02217     0.02125
 Rotational constants (GHZ):           3.28196     0.46191     0.44275
 Zero-point vibrational energy     677214.4 (Joules/Mol)
                                  161.85812 (Kcal/Mol)
 Warning -- explicit consideration of  16 degrees of freedom as
           vibrations may cause significant error
 Vibrational temperatures:     44.65    62.88   104.60   142.31   193.69
          (Kelvin)            229.08   293.95   324.09   384.85   423.08
                              495.65   552.83   571.05   652.56   762.79
                              776.72  1009.21  1072.27  1123.90  1187.01
                             1205.99  1230.35  1285.00  1325.11  1344.17
                             1424.12  1441.02  1449.27  1476.22  1509.82
                             1535.53  1575.13  1583.95  1634.12  1645.62
                             1666.86  1684.99  1699.18  1757.43  1799.04
                             1877.55  1921.66  1947.58  1969.86  1989.51
                             2022.07  2031.69  2050.54  2072.29  2077.36
                             2146.49  2168.53  2181.68  2188.02  2194.47
                             2198.42  2201.48  2207.69  2219.86  2681.66
                             4354.72  4358.56  4367.00  4375.23  4376.63
                             4381.77  4405.55  4414.93  4431.41  4439.33
                             4466.25  4470.09  4472.72  4476.93  4482.65
                             4494.34  4520.79  4582.91

 Zero-point correction=                           0.257937 (Hartree/Particle)
 Thermal correction to Energy=                    0.270098
 Thermal correction to Enthalpy=                  0.271042
 Thermal correction to Gibbs Free Energy=         0.218669
 Sum of electronic and zero-point Energies=           -391.633074
 Sum of electronic and thermal Energies=              -391.620914
 Sum of electronic and thermal Enthalpies=            -391.619970
 Sum of electronic and thermal Free Energies=         -391.672343

                     E (Thermal)             CV                S
                      KCal/Mol        Cal/Mol-Kelvin    Cal/Mol-Kelvin
 Total                  169.489             44.409            110.228
 Electronic               0.000              0.000              0.000
 Translational            0.889              2.981             40.681
 Rotational               0.889              2.981             30.550
 Vibrational            167.711             38.448             38.997
 Vibration     1          0.594              1.983              5.762
 Vibration     2          0.595              1.980              5.084
 Vibration     3          0.599              1.967              4.079
 Vibration     4          0.604              1.950              3.476
 Vibration     5          0.613              1.919              2.879
 Vibration     6          0.621              1.892              2.559
 Vibration     7          0.640              1.834              2.094
 Vibration     8          0.650              1.803              1.916
 Vibration     9          0.673              1.733              1.612
 Vibration    10          0.689              1.685              1.451
 Vibration    11          0.723              1.586              1.191
 Vibration    12          0.753              1.504              1.022
 Vibration    13          0.763              1.477              0.974
 Vibration    14          0.812              1.353              0.785
 Vibration    15          0.885              1.183              0.587
 Vibration    16          0.895              1.162              0.566

                           ! Non-Optimized Parameters !
 Normal termination of Gaussian 16 at Tue Dec  8 12:19:29 2020.

 ----------------------------------------------------------------------
 # B3LYP/6-311++G(d,p) empiricaldispersion=gd3bj scf=xqc pop=npa geom=c
 heck
 ----------------------------------------------------------------------

 -------------------------------------
 CID_54493948_JID_573_Energie_neutraal
 -------------------------------------
 Structure from the checkpoint file:  "JID_573.chk"
 Charge =  0 Multiplicity = 1

 SCF Done:  E(RB3LYP) =  -391.999100473     A.U. after   13 cycles
 Normal termination of Gaussian 16 at Tue Dec  8 12:24:39 2020.

 ----------------------------------------------------------------------
 # B3LYP/6-311++G(d,p) empiricaldispersion=gd3bj scf=xqc pop=npa geom=c
 heck
 ----------------------------------------------------------------------

 -----------------------------------
 CID_54493948_JID_573_Energie_kation
 -----------------------------------
 Structure from the checkpoint file:  "JID_573.chk"
 Charge =  1 Multiplicity = 2

 SCF Done:  E(UB3LYP) =  -391.679079967     A.U. after   20 cycles
 Normal termination of Gaussian 16 at Tue Dec  8 12:30:01 2020.
 Gaussian 16:  ES64L-G16RevA.03 25-Dec-2016

 ----------------------------------------------------------------------
 # B3LYP/6-311++G(d,p) empiricaldispersion=gd3bj scf=xqc pop=npa geom=c
 heck
 ----------------------------------------------------------------------

 ----------------------------------
 CID_54493948_JID_573_Energie_anion
 ----------------------------------
 Structure from the checkpoint file:  "JID_573.chk"
 Charge = -1 Multiplicity = 2

                         Standard orientation:
 ---------------------------------------------------------------------
 Center     Atomic      Atomic             Coordinates (Angstroms)
 Number     Number       Type             X           Y           Z
 ---------------------------------------------------------------------
      1          6           0        4.094578   -0.392881   -0.706734
      2          6           0        3.025000   -0.984190    0.216300
      3          6           0        2.292073    0.061145    1.070873
      4          6           0        1.554995    1.153224    0.280120
      5          6           0        0.509672    0.632939   -0.728529
      6          6           0       -0.554425   -0.227224   -0.100335
      7          6           0       -1.814624    0.147389    0.058323
      8          6           0       -2.844774    1.172431   -0.175344
      9          6           0       -3.177417   -0.173130    0.499220
     10          6           0       -4.009348   -1.206926   -0.235341
     11          1           0        3.657327    0.271103   -1.460718
     12          1           0        4.638973   -1.181366   -1.238273
     13          1           0        4.826200    0.192517   -0.135944
     14          1           0        2.299316   -1.549673   -0.383488
     15          1           0        3.492916   -1.715749    0.888108
     16          1           0        1.576396   -0.453389    1.725036
     17          1           0        3.018963    0.546218    1.737309
     18          1           0        1.048813    1.817805    0.991900
     19          1           0        2.281738    1.774100   -0.259737
     20          1           0        0.033327    1.490010   -1.218387
     21          1           0        1.021422    0.063500   -1.517352
     22          1           0       -0.251757   -1.210610    0.261185
     23          1           0       -2.853889    2.071785    0.439282
     24          1           0       -3.208674    1.329890   -1.190828
     25          1           0       -3.371378   -0.116657    1.572095
     26          1           0       -3.804310   -2.216559    0.139916
     27          1           0       -5.081849   -1.011845   -0.115214
     28          1           0       -3.777912   -1.197736   -1.306211
 ---------------------------------------------------------------------

 SCF Done:  E(UB3LYP) =  -391.982511519     A.U. after   32 cycles

 The electronic state is 2-A.
 Alpha  occ. eigenvalues --  -10.07978 -10.07133 -10.07034 -10.06488 -10.06458
 Alpha  occ. eigenvalues --  -10.06329 -10.06274 -10.06142 -10.06001 -10.05630
 Alpha  occ. eigenvalues --   -0.76486  -0.70787  -0.66591  -0.61938  -0.60283
 Alpha  occ. eigenvalues --   -0.56252  -0.51269  -0.48061  -0.45176  -0.41809
 Alpha  occ. eigenvalues --   -0.38759  -0.36675  -0.36024  -0.34500  -0.32343
 Alpha  occ. eigenvalues --   -0.31253  -0.30737  -0.29855  -0.29003  -0.26936
 Alpha  occ. eigenvalues --   -0.26376  -0.25679  -0.25156  -0.22549  -0.21988
 Alpha  occ. eigenvalues --   -0.21543  -0.19164  -0.17762  -0.14366   0.04530
 Alpha virt. eigenvalues --    0.06241   0.07489   0.07763   0.08662   0.08694
 Alpha virt. eigenvalues --    0.09040   0.10426   0.10598   0.10874   0.11331
 Alpha virt. eigenvalues --    0.11542   0.11996   0.12252   0.12442   0.13314

  Beta  occ. eigenvalues --  -10.07966 -10.07115 -10.07014 -10.06470 -10.06443
  Beta  occ. eigenvalues --  -10.06314 -10.06236 -10.06124 -10.05985 -10.05592
  Beta  occ. eigenvalues --   -0.76423  -0.70753  -0.66548  -0.61885  -0.60224
  Beta  occ. eigenvalues --   -0.56198  -0.51212  -0.47991  -0.45114  -0.41745
  Beta  occ. eigenvalues --   -0.38716  -0.36634  -0.35966  -0.34462  -0.32296
  Beta  occ. eigenvalues --   -0.31209  -0.30697  -0.29821  -0.28963  -0.26889
  Beta  occ. eigenvalues --   -0.26341  -0.25624  -0.25127  -0.22514  -0.21947
  Beta  occ. eigenvalues --   -0.21508  -0.19135  -0.17726  -0.14238
  Beta virt. eigenvalues --    0.06605   0.07279   0.08018   0.08168   0.08982
  Beta virt. eigenvalues --    0.09267   0.09535   0.10783   0.10995   0.11212
  Beta virt. eigenvalues --    0.11644   0.11878   0.12324   0.12471   0.12784

 Mulliken charges and spin densities:
               1          2
     1  C    1.380699  -1.995980
     2  C   -1.186979   1.023532
     3  C    0.126352  -0.385742
     4  C    0.766870  -1.120918
     5  C   -0.258453   0.051547
     6  C   -3.740394   3.837424
     7  C    2.944802  -3.117110
     8  C    1.248102  -1.960654
     9  C   -1.196957   1.600995
    10  C    1.684953  -2.412840
    11  H   -0.220207   0.364438
    12  H   -0.366715   0.501934
    13  H   -0.140715   0.273273
    14  H   -0.026484   0.160012
    15  H   -0.346131   0.495102
    16  H    0.121495   0.017645
    17  H   -0.325831   0.477429
    18  H   -0.015500   0.160195
    19  H    0.040046   0.104436
    20  H    0.007653   0.165888
    21  H   -0.031446   0.179538
    22  H   -0.051366   0.247702
    23  H   -0.272291   0.430590
    24  H    0.019424   0.124362
    25  H   -0.447266   0.646530
    26  H   -0.122008   0.256724
    27  H   -0.444813   0.592630
    28  H   -0.146840   0.281318
 Sum of Mulliken charges =  -1.00000   1.00000

 Dipole moment (field-independent basis, Debye):
    X=              0.4342    Y=              1.0397    Z=             -1.0546  Tot=              1.5432
 Quadrupole moment (field-independent basis, Debye-Ang):
   XX=           -168.5943   YY=            -99.7631   ZZ=            -96.2268
   XY=             -0.7532   XZ=              6.0642   YZ=             -1.9768

 Summary of Natural Population Analysis:

                                       Natural Population
                Natural  -----------------------------------------------
    Atom  No    Charge         Core      Valence    Rydberg      Total
 -----------------------------------------------------------------------
      C    1   -0.28780      0.99967     2.28267    0.00546     3.28780
      C    2   -0.19324      0.99964     2.18492    0.00868     3.19324
      C    3   -0.19113      0.99963     2.18289    0.00861     3.19113
      C    4   -0.18624      0.99962     2.17820    0.00842     3.18624
      C    5   -0.20263      0.99961     2.19501    0.00800     3.20263
      C    6   -0.08821      0.99944     2.08071    0.00807     3.08821
      C    7   -0.00775      0.99949     1.99582    0.01244     3.00775
      C    8   -0.20790      0.99960     2.20067    0.00762     3.20790
      C    9   -0.11841      0.99959     2.10878    0.01004     3.11841
      C   10   -0.28287      0.99965     2.27677    0.00645     3.28287
      H   11    0.09599      0.00000     0.40281    0.00120     0.40401
      H   12    0.09899      0.00000     0.39979    0.00121     0.40101
      H   13    0.09577      0.00000     0.40298    0.00126     0.40423
      H   14    0.09250      0.00000     0.40616    0.00134     0.40750
      H   15    0.09543      0.00000     0.40341    0.00116     0.40457
      H   16    0.09769      0.00000     0.40097    0.00134     0.40231
      H   17    0.09523      0.00000     0.40358    0.00119     0.40477
      H   18    0.09765      0.00000     0.40105    0.00130     0.40235
      H   19    0.09494      0.00000     0.40383    0.00123     0.40506
      H   20    0.10114      0.00000     0.39765    0.00120     0.39886
      H   21    0.09810      0.00000     0.40054    0.00136     0.40190
      H   22    0.09522      0.00000     0.40338    0.00141     0.40478
      H   23    0.10588      0.00000     0.39244    0.00167     0.39412
      H   24    0.10065      0.00000     0.39822    0.00113     0.39935
      H   25    0.10413      0.00000     0.39362    0.00225     0.39587
      H   26    0.09979      0.00000     0.39887    0.00134     0.40021
      H   27    0.09921      0.00000     0.39922    0.00157     0.40079
      H   28    0.09785      0.00000     0.40097    0.00117     0.40215
 =======================================================================
   * Total *   -0.00000      9.99594    28.89593    0.10813    39.00000

 Normal termination of Gaussian 16 at Tue Dec  8 12:43:17 2020.
