 Gaussian 16, Revision A.03,

 -----------------------------------------------------------
 # opt freq B3LYP/6-31G(d) empiricaldispersion=gd3bj scf=xqc
 -----------------------------------------------------------

 -------------------------------
 CID_106964737_JID_5546_neutraal
 -------------------------------
 Symbolic Z-matrix:
 Charge =  0 Multiplicity = 1

 SCF Done:  E(RB3LYP) =  -686.120456413     A.U. after   14 cycles
 SCF Done:  E(RB3LYP) =  -686.128944056     A.U. after   12 cycles
 SCF Done:  E(RB3LYP) =  -686.129960331     A.U. after   11 cycles
 SCF Done:  E(RB3LYP) =  -686.130244885     A.U. after   10 cycles
 SCF Done:  E(RB3LYP) =  -686.130359277     A.U. after   11 cycles
 SCF Done:  E(RB3LYP) =  -686.130428742     A.U. after   11 cycles
 SCF Done:  E(RB3LYP) =  -686.130505886     A.U. after   12 cycles
 SCF Done:  E(RB3LYP) =  -686.130613247     A.U. after   12 cycles
 SCF Done:  E(RB3LYP) =  -686.130659741     A.U. after   11 cycles
 SCF Done:  E(RB3LYP) =  -686.130667369     A.U. after    9 cycles
 SCF Done:  E(RB3LYP) =  -686.130670689     A.U. after   10 cycles
 SCF Done:  E(RB3LYP) =  -686.130672345     A.U. after   10 cycles
 SCF Done:  E(RB3LYP) =  -686.130673118     A.U. after    9 cycles
 SCF Done:  E(RB3LYP) =  -686.130673244     A.U. after    8 cycles
 Optimization completed.
    -- Stationary point found.
 Normal termination of Gaussian 16 at Thu Dec 10 16:30:27 2020.

 --------------------------------------------------------------------
 #N Geom=AllCheck Guess=TCheck SCRF=Check GenChk RB3LYP/6-31G(d) Freq
 --------------------------------------------------------------------

 Structure from the checkpoint file:  "JID_5546.chk"
 -------------------------------
 CID_106964737_JID_5546_neutraal
 -------------------------------
 Charge =  0 Multiplicity = 1

 SCF Done:  E(RB3LYP) =  -686.130673244     A.U. after    1 cycles

  Exact polarizability: 168.735   6.074 117.065  -0.271  -5.439 109.741
 Approx polarizability: 203.309   8.591 168.438   3.400 -21.491 178.476

                      1                      2                      3
                      A                      A                      A
 Frequencies --     23.7876                34.9482                68.6002
 Red. masses --      3.3296                 4.0967                 4.3722
 Frc consts  --      0.0011                 0.0029                 0.0121
 IR Inten    --      0.7525                 0.7559                 1.9002

                      4                      5                      6
                      A                      A                      A
 Frequencies --     69.9343                75.3370               107.2477
 Red. masses --      4.4842                 1.6774                 3.6883
 Frc consts  --      0.0129                 0.0056                 0.0250
 IR Inten    --      2.9639                 0.5278                 2.2720

                      7                      8                      9
                      A                      A                      A
 Frequencies --    147.2936               158.9234               211.6370
 Red. masses --      2.9131                 2.9323                 3.8937
 Frc consts  --      0.0372                 0.0436                 0.1028
 IR Inten    --      0.9651                 1.2860                 6.0012

                     10                     11                     12
                      A                      A                      A
 Frequencies --    249.0908               268.4727               272.9336
 Red. masses --      1.7289                 1.7821                 1.5055
 Frc consts  --      0.0632                 0.0757                 0.0661
 IR Inten    --      0.9485                 2.1744                 0.3312

                     13                     14                     15
                      A                      A                      A
 Frequencies --    284.3099               306.5726               349.4519
 Red. masses --      1.5061                 2.3047                 3.2896
 Frc consts  --      0.0717                 0.1276                 0.2367
 IR Inten    --      1.2798                 1.2690                 3.3957

                     16                     17                     18
                      A                      A                      A
 Frequencies --    379.3427               386.2920               411.5195
 Red. masses --      2.6693                 2.6290                 2.9377
 Frc consts  --      0.2263                 0.2311                 0.2931
 IR Inten    --      1.2834                 1.9718                 4.9368

                     19                     20                     21
                      A                      A                      A
 Frequencies --    446.0307               504.9130               522.3447
 Red. masses --      1.5373                 2.5892                 3.8500
 Frc consts  --      0.1802                 0.3889                 0.6189
 IR Inten    --     51.1370                50.7660                18.3999

                     22                     23                     24
                      A                      A                      A
 Frequencies --    650.3814               681.7412               718.2995
 Red. masses --      4.3247                 2.2781                 5.9482
 Frc consts  --      1.0778                 0.6238                 1.8082
 IR Inten    --      3.9703                 7.1234                11.4611

                     25                     26                     27
                      A                      A                      A
 Frequencies --    741.7875               758.7184               784.4768
 Red. masses --      2.0096                 2.7237                 2.1832
 Frc consts  --      0.6515                 0.9238                 0.7916
 IR Inten    --      5.1817                34.2355                33.4424

                     28                     29                     30
                      A                      A                      A
 Frequencies --    808.3857               826.7737               834.6553
 Red. masses --      1.7623                 1.5708                 1.7511
 Frc consts  --      0.6785                 0.6326                 0.7187
 IR Inten    --     68.8140                 4.4642                33.0075

                     31                     32                     33
                      A                      A                      A
 Frequencies --    878.5432               881.6006               933.9145
 Red. masses --      2.0261                 1.8371                 2.0140
 Frc consts  --      0.9214                 0.8412                 1.0350
 IR Inten    --      3.5771                16.3437                 2.3846

                     34                     35                     36
                      A                      A                      A
 Frequencies --    941.9947               950.0963               955.8351
 Red. masses --      2.1879                 2.1094                 2.8915
 Frc consts  --      1.1439                 1.1219                 1.5565
 IR Inten    --      4.1204                 1.5543                 5.3976

                     37                     38                     39
                      A                      A                      A
 Frequencies --    980.6437               992.1316              1000.4042
 Red. masses --      3.4859                 2.8671                 2.4118
 Frc consts  --      1.9751                 1.6628                 1.4221
 IR Inten    --      7.5996                 9.4605                10.2922

                     40                     41                     42
                      A                      A                      A
 Frequencies --   1019.0469              1043.4819              1069.3868
 Red. masses --      2.2606                 2.8359                 1.5521
 Frc consts  --      1.3831                 1.8193                 1.0458
 IR Inten    --     12.5861                 2.0297                 9.8384

                     43                     44                     45
                      A                      A                      A
 Frequencies --   1099.0703              1130.8755              1164.3486
 Red. masses --      3.1044                 2.4831                 2.6233
 Frc consts  --      2.2094                 1.8710                 2.0954
 IR Inten    --     34.0184                18.8005                33.3993

                     46                     47                     48
                      A                      A                      A
 Frequencies --   1174.8489              1185.5655              1203.6919
 Red. masses --      1.7733                 1.8999                 1.9660
 Frc consts  --      1.4421                 1.5734                 1.6783
 IR Inten    --      3.1207                 2.6376                 4.0388

                     49                     50                     51
                      A                      A                      A
 Frequencies --   1219.6742              1231.4790              1244.1714
 Red. masses --      1.5336                 2.4927                 2.5267
 Frc consts  --      1.3442                 2.2273                 2.3044
 IR Inten    --      8.9830                10.7993                70.5714

                     52                     53                     54
                      A                      A                      A
 Frequencies --   1272.7908              1284.0776              1296.2374
 Red. masses --      1.2500                 1.4216                 1.4402
 Frc consts  --      1.1931                 1.3810                 1.4257
 IR Inten    --      0.3035                 2.4729                 3.2125

                     55                     56                     57
                      A                      A                      A
 Frequencies --   1306.3479              1323.0251              1331.3745
 Red. masses --      1.9055                 1.7828                 1.5282
 Frc consts  --      1.9160                 1.8386                 1.5960
 IR Inten    --      7.0088                56.1322                 2.6116

                     58                     59                     60
                      A                      A                      A
 Frequencies --   1366.5073              1386.1421              1415.9583
 Red. masses --      1.5592                 1.3673                 1.2836
 Frc consts  --      1.7154                 1.5479                 1.5162
 IR Inten    --      8.5952                20.6154                 3.2676

                     61                     62                     63
                      A                      A                      A
 Frequencies --   1434.9192              1444.3691              1484.2524
 Red. masses --      1.2596                 1.3245                 1.0766
 Frc consts  --      1.5280                 1.6280                 1.3974
 IR Inten    --     14.7985                 9.3606                 4.8889

                     64                     65                     66
                      A                      A                      A
 Frequencies --   1500.2336              1509.8114              1510.6045
 Red. masses --      1.0888                 1.1343                 1.0861
 Frc consts  --      1.4438                 1.5235                 1.4602
 IR Inten    --      4.1501                14.1082                 0.8022

                     67                     68                     69
                      A                      A                      A
 Frequencies --   1520.1914              1527.8420              1530.0374
 Red. masses --      1.1153                 1.0530                 1.2038
 Frc consts  --      1.5186                 1.4482                 1.6604
 IR Inten    --     10.9801                11.7615                 6.5578

                     70                     71                     72
                      A                      A                      A
 Frequencies --   1533.0338              1537.0224              1539.7117
 Red. masses --      1.1581                 1.1353                 1.4512
 Frc consts  --      1.6037                 1.5803                 2.0271
 IR Inten    --     20.3228                 5.4553                55.6228

                     73                     74                     75
                      A                      A                      A
 Frequencies --   1552.2894              1621.6656              1669.5334
 Red. masses --      1.0905                10.0646                10.3958
 Frc consts  --      1.5482                15.5944                17.0725
 IR Inten    --      4.8577               112.7165               380.8305

                     76                     77                     78
                      A                      A                      A
 Frequencies --   2977.8289              3046.9054              3047.8915
 Red. masses --      1.0713                 1.0381                 1.0436
 Frc consts  --      5.5971                 5.6780                 5.7119
 IR Inten    --     54.6083                24.0549                17.5764

                     79                     80                     81
                      A                      A                      A
 Frequencies --   3056.3578              3068.7120              3068.9248
 Red. masses --      1.0831                 1.0619                 1.0576
 Frc consts  --      5.9611                 5.8918                 5.8685
 IR Inten    --     28.5323                23.5136                41.7672

                     82                     83                     84
                      A                      A                      A
 Frequencies --   3082.9512              3100.4606              3112.4851
 Red. masses --      1.0606                 1.0612                 1.0999
 Frc consts  --      5.9394                 6.0101                 6.2780
 IR Inten    --     38.1701                13.2672                30.3464

                     85                     86                     87
                      A                      A                      A
 Frequencies --   3113.0116              3118.1789              3126.6759
 Red. masses --      1.0997                 1.1083                 1.1029
 Frc consts  --      6.2790                 6.3491                 6.3524
 IR Inten    --     43.1113                12.9647                 9.6871

                     88                     89                     90
                      A                      A                      A
 Frequencies --   3134.7281              3134.7943              3142.6120
 Red. masses --      1.1063                 1.1047                 1.1019
 Frc consts  --      6.4051                 6.3961                 6.4114
 IR Inten    --     22.5120                36.8404                13.9632

                     91                     92                     93
                      A                      A                      A
 Frequencies --   3157.7125              3483.5360              3577.0794
 Red. masses --      1.1088                 1.0739                 1.0756
 Frc consts  --      6.5142                 7.6778                 8.1089
 IR Inten    --     26.8716                 0.0570                21.2096

 - Thermochemistry -
 -------------------
 Temperature   298.150 Kelvin.  Pressure   1.00000 Atm.
 Atom     1 has atomic number  6 and mass  12.00000

 Molecular mass:   210.14806 amu.
 Principal axes and moments of inertia in atomic units:
                           1         2         3
     Eigenvalues --  1381.842616867.217797480.26094
           X            0.99993  -0.01143  -0.00072
           Y            0.01145   0.99946   0.03065
           Z            0.00037  -0.03066   0.99953
 This molecule is an asymmetric top.
 Rotational symmetry number  1.
 Warning -- assumption of classical behavior for rotation
           may cause significant error
 Rotational temperatures (Kelvin)      0.06268     0.01261     0.01158
 Rotational constants (GHZ):           1.30604     0.26281     0.24127
 Zero-point vibrational energy     752653.5 (Joules/Mol)
                                  179.88849 (Kcal/Mol)
 Warning -- explicit consideration of  21 degrees of freedom as
           vibrations may cause significant error
 Vibrational temperatures:     34.23    50.28    98.70   100.62   108.39
          (Kelvin)            154.31   211.92   228.66   304.50   358.39
                              386.27   392.69   409.06   441.09   502.78
                              545.79   555.79   592.08   641.74   726.46
                              751.54   935.75   980.87  1033.47  1067.27
                             1091.63  1128.69  1163.09  1189.54  1200.88
                             1264.03  1268.43  1343.69  1355.32  1366.98
                             1375.23  1410.93  1427.46  1439.36  1466.18
                             1501.34  1538.61  1581.32  1627.08  1675.24
                             1690.35  1705.76  1731.84  1754.84  1771.82
                             1790.09  1831.26  1847.50  1865.00  1879.54
                             1903.54  1915.55  1966.10  1994.35  2037.25
                             2064.53  2078.12  2135.51  2158.50  2172.28
                             2173.42  2187.22  2198.22  2201.38  2205.69
                             2211.43  2215.30  2233.40  2333.22  2402.09
                             4284.43  4383.82  4385.24  4397.42  4415.19
                             4415.50  4435.68  4460.87  4478.17  4478.93
                             4486.36  4498.59  4510.17  4510.27  4521.52
                             4543.24  5012.03  5146.62

 Zero-point correction=                           0.286671 (Hartree/Particle)
 Thermal correction to Energy=                    0.302113
 Thermal correction to Enthalpy=                  0.303057
 Thermal correction to Gibbs Free Energy=         0.242373
 Sum of electronic and zero-point Energies=           -685.844003
 Sum of electronic and thermal Energies=              -685.828560
 Sum of electronic and thermal Enthalpies=            -685.827616
 Sum of electronic and thermal Free Energies=         -685.888301

                     E (Thermal)             CV                S
                      KCal/Mol        Cal/Mol-Kelvin    Cal/Mol-Kelvin
 Total                  189.579             57.589            127.722
 Electronic               0.000              0.000              0.000
 Translational            0.889              2.981             41.932
 Rotational               0.889              2.981             32.629
 Vibrational            187.801             51.627             53.162
 Vibration     1          0.593              1.985              6.290
 Vibration     2          0.594              1.983              5.527
 Vibration     3          0.598              1.969              4.193
 Vibration     4          0.598              1.968              4.155
 Vibration     5          0.599              1.965              4.009
 Vibration     6          0.606              1.943              3.318
 Vibration     7          0.617              1.906              2.707
 Vibration     8          0.621              1.893              2.563
 Vibration     9          0.643              1.823              2.030
 Vibration    10          0.662              1.764              1.737
 Vibration    11          0.673              1.731              1.606
 Vibration    12          0.676              1.723              1.578
 Vibration    13          0.683              1.703              1.508
 Vibration    14          0.697              1.661              1.381
 Vibration    15          0.727              1.576              1.169
 Vibration    16          0.749              1.514              1.042
 Vibration    17          0.755              1.499              1.014
 Vibration    18          0.775              1.445              0.921
 Vibration    19          0.805              1.370              0.808
 Vibration    20          0.860              1.239              0.646
 Vibration    21          0.877              1.201              0.605

 Optimization completed.
    -- Stationary point found.
 Normal termination of Gaussian 16 at Thu Dec 10 16:39:28 2020.

 ----------------------------------------------------------------------
 # B3LYP/6-311++G(d,p) empiricaldispersion=gd3bj scf=xqc pop=npa geom=c
 heck
 ----------------------------------------------------------------------

 ---------------------------------------
 CID_106964737_JID_5546_Energie_neutraal
 ---------------------------------------
 Structure from the checkpoint file:  "JID_5546.chk"
 Charge =  0 Multiplicity = 1

 SCF Done:  E(RB3LYP) =  -686.324079227     A.U. after   14 cycles
 Normal termination of Gaussian 16 at Thu Dec 10 16:43:18 2020.

 ----------------------------------------------------------------------
 # B3LYP/6-311++G(d,p) empiricaldispersion=gd3bj scf=xqc pop=npa geom=c
 heck
 ----------------------------------------------------------------------

 -------------------------------------
 CID_106964737_JID_5546_Energie_kation
 -------------------------------------
 Structure from the checkpoint file:  "JID_5546.chk"
 Charge =  1 Multiplicity = 2

 SCF Done:  E(UB3LYP) =  -686.032171837     A.U. after   22 cycles
 Normal termination of Gaussian 16 at Thu Dec 10 16:51:42 2020.
 Gaussian 16:  ES64L-G16RevA.03 25-Dec-2016

 ----------------------------------------------------------------------
 # B3LYP/6-311++G(d,p) empiricaldispersion=gd3bj scf=xqc pop=npa geom=c
 heck
 ----------------------------------------------------------------------

 ------------------------------------
 CID_106964737_JID_5546_Energie_anion
 ------------------------------------
 Structure from the checkpoint file:  "JID_5546.chk"
 Charge = -1 Multiplicity = 2

                         Standard orientation:
 ---------------------------------------------------------------------
 Center     Atomic      Atomic             Coordinates (Angstroms)
 Number     Number       Type             X           Y           Z
 ---------------------------------------------------------------------
      1          6           0       -4.663558    2.113846    0.246709
      2          6           0       -3.677946    1.098005   -0.322102
      3          7           0       -3.930909   -0.226852    0.247770
      4          6           0       -3.087020   -1.298830   -0.280460
      5          6           0       -1.620949   -1.167343   -0.003757
      6          7           0       -0.934140   -1.660917    0.970443
      7          7           0        0.384135   -1.186646    0.839953
      8          6           0        0.373085   -0.419222   -0.214682
      9          8           0       -0.849378   -0.350081   -0.816421
     10          7           0        1.374818    0.340394   -0.735259
     11          6           0        2.756599    0.126942   -0.287592
     12          6           0        3.706242    1.293228   -0.673200
     13          6           0        4.267172    1.269778    0.773612
     14          6           0        3.015045    0.463742    1.207502
     15          6           0        3.287506   -1.247292   -0.696869
     16          1           0       -5.693846    1.796516    0.058185
     17          1           0       -4.508965    3.100136   -0.203924
     18          1           0       -4.535013    2.220528    1.331169
     19          1           0       -3.811466    1.016334   -1.408903
     20          1           0       -2.644923    1.452196   -0.162122
     21          1           0       -3.809898   -0.187132    1.259291
     22          1           0       -3.411545   -2.244158    0.163498
     23          1           0       -3.248577   -1.361223   -1.362762
     24          1           0        1.261814    0.560587   -1.718060
     25          1           0        4.401570    1.109295   -1.498829
     26          1           0        3.140901    2.208756   -0.873128
     27          1           0        4.429137    2.237365    1.255335
     28          1           0        5.188954    0.685575    0.850854
     29          1           0        2.226133    1.108155    1.602364
     30          1           0        3.146400   -0.386502    1.879752
     31          1           0        2.677261   -2.036139   -0.247958
     32          1           0        3.271018   -1.359722   -1.788088
     33          1           0        4.321684   -1.378898   -0.360613
 ---------------------------------------------------------------------

 SCF Done:  E(UB3LYP) =  -686.312324848     A.U. after   32 cycles

 The electronic state is 2-A.
 Alpha  occ. eigenvalues --  -19.10838 -14.24408 -14.23962 -14.22332 -14.21777
 Alpha  occ. eigenvalues --  -10.19838 -10.16389 -10.12631 -10.12604 -10.10183
 Alpha  occ. eigenvalues --  -10.07740 -10.07436 -10.07211 -10.07194 -10.06359
 Alpha  occ. eigenvalues --   -1.05795  -0.87693  -0.86246  -0.82664  -0.75781
 Alpha  occ. eigenvalues --   -0.71938  -0.66483  -0.63071  -0.60456  -0.57337
 Alpha  occ. eigenvalues --   -0.56324  -0.52901  -0.51296  -0.50642  -0.45156
 Alpha  occ. eigenvalues --   -0.44062  -0.41555  -0.40843  -0.40680  -0.38256
 Alpha  occ. eigenvalues --   -0.37577  -0.36619  -0.35829  -0.33779  -0.32962
 Alpha  occ. eigenvalues --   -0.31989  -0.30713  -0.30272  -0.28910  -0.28070
 Alpha  occ. eigenvalues --   -0.27487  -0.26247  -0.25150  -0.24891  -0.24330
 Alpha  occ. eigenvalues --   -0.23849  -0.22648  -0.21398  -0.21000  -0.18349
 Alpha  occ. eigenvalues --   -0.15285  -0.12946   0.04214
 Alpha virt. eigenvalues --    0.06038   0.07010   0.07537   0.07906   0.08207
 Alpha virt. eigenvalues --    0.08743   0.09136   0.09837   0.10146   0.10444
 Alpha virt. eigenvalues --    0.10569   0.11010   0.11301   0.11985   0.12889

  Beta  occ. eigenvalues --  -19.10825 -14.24370 -14.23949 -14.22331 -14.21769
  Beta  occ. eigenvalues --  -10.19831 -10.16382 -10.12632 -10.12595 -10.10162
  Beta  occ. eigenvalues --  -10.07726 -10.07407 -10.07186 -10.07186 -10.06326
  Beta  occ. eigenvalues --   -1.05777  -0.87675  -0.86200  -0.82645  -0.75761
  Beta  occ. eigenvalues --   -0.71905  -0.66450  -0.63028  -0.60419  -0.57292
  Beta  occ. eigenvalues --   -0.56289  -0.52848  -0.51240  -0.50599  -0.45113
  Beta  occ. eigenvalues --   -0.43991  -0.41525  -0.40806  -0.40637  -0.38216
  Beta  occ. eigenvalues --   -0.37544  -0.36584  -0.35802  -0.33751  -0.32927
  Beta  occ. eigenvalues --   -0.31955  -0.30682  -0.30243  -0.28882  -0.28035
  Beta  occ. eigenvalues --   -0.27445  -0.26212  -0.25116  -0.24850  -0.24296
  Beta  occ. eigenvalues --   -0.23821  -0.22630  -0.21363  -0.20965  -0.18337
  Beta  occ. eigenvalues --   -0.15266  -0.12911
  Beta virt. eigenvalues --    0.06307   0.06714   0.07572   0.08136   0.08241
  Beta virt. eigenvalues --    0.08591   0.09025   0.09286   0.10164   0.10484
  Beta virt. eigenvalues --    0.10704   0.10988   0.11450   0.11581   0.12033

 Mulliken charges and spin densities:
               1          2
     1  C    0.407046  -0.921455
     2  C   -0.087726  -0.231916
     3  N   -0.128953   0.125199
     4  C    0.348331  -1.106842
     5  C    0.530181  -0.018923
     6  N   -0.020956   0.157922
     7  N   -0.084238  -0.188102
     8  C   -0.527377   0.299509
     9  O    0.029727   0.007221
    10  N   -0.259995   0.209348
    11  C   -1.819801   1.656191
    12  C    0.654040  -0.879394
    13  C    0.487773  -0.966978
    14  C   -0.169911  -0.005134
    15  C    1.177551  -1.705436
    16  H   -0.003613   0.155107
    17  H   -0.202875   0.338742
    18  H   -0.103765   0.230741
    19  H   -0.236421   0.402931
    20  H   -0.044419   0.210162
    21  H    0.188001   0.016138
    22  H    0.119917   0.068204
    23  H   -0.119232   0.318858
    24  H   -0.391642   0.696486
    25  H   -0.405134   0.573619
    26  H   -0.222104   0.367570
    27  H    0.066994   0.074618
    28  H    0.008413   0.116230
    29  H    0.067761   0.096333
    30  H    0.084201   0.092988
    31  H    0.179757  -0.036595
    32  H   -0.389338   0.568188
    33  H   -0.132192   0.278467
 Sum of Mulliken charges =  -1.00000   1.00000

 Dipole moment (field-independent basis, Debye):
    X=             -1.0719    Y=             -1.7766    Z=              3.8341  Tot=              4.3596
 Quadrupole moment (field-independent basis, Debye-Ang):
   XX=           -174.4958   YY=           -132.0828   ZZ=           -133.0340
   XY=              6.6432   XZ=              7.0559   YZ=              6.6375

 Summary of Natural Population Analysis:

                                       Natural Population
                Natural  -----------------------------------------------
    Atom  No    Charge         Core      Valence    Rydberg      Total
 -----------------------------------------------------------------------
      C    1   -0.28605      0.99967     2.28180    0.00459     3.28605
      C    2   -0.09137      0.99964     2.08097    0.01076     3.09137
      N    3   -0.33222      0.99975     2.82107    0.01140     3.83222
      C    4   -0.11538      0.99958     2.10473    0.01107     3.11538
      C    5    0.23551      0.99959     1.74493    0.01998     2.76449
      N    6   -0.15830      0.99966     2.64677    0.01187     3.65830
      N    7   -0.20624      0.99967     2.69502    0.01156     3.70624
      C    8    0.34822      0.99959     1.63179    0.02040     2.65178
      O    9   -0.24811      0.99985     3.24065    0.00760     4.24811
      N   10   -0.32139      0.99963     2.80851    0.01325     3.82139
      C   11    0.05947      0.99955     1.92437    0.01661     2.94053
      C   12   -0.18587      0.99959     2.17714    0.00914     3.18587
      C   13   -0.19130      0.99965     2.18456    0.00709     3.19130
      C   14   -0.18422      0.99959     2.17709    0.00755     3.18422
      C   15   -0.29305      0.99960     2.28669    0.00676     3.29305
      H   16    0.09827      0.00000     0.40023    0.00150     0.40173
      H   17    0.10181      0.00000     0.39701    0.00117     0.39819
      H   18    0.09354      0.00000     0.40521    0.00125     0.40646
      H   19    0.09161      0.00000     0.40654    0.00185     0.40839
      H   20    0.08487      0.00000     0.41301    0.00213     0.41513
      H   21    0.17096      0.00000     0.32615    0.00289     0.32904
      H   22    0.10809      0.00000     0.39085    0.00106     0.39191
      H   23    0.10377      0.00000     0.39483    0.00140     0.39623
      H   24    0.20274      0.00000     0.28862    0.00864     0.29726
      H   25    0.10069      0.00000     0.39749    0.00182     0.39931
      H   26    0.10397      0.00000     0.39420    0.00183     0.39603
      H   27    0.09578      0.00000     0.40314    0.00108     0.40422
      H   28    0.09471      0.00000     0.40381    0.00148     0.40529
      H   29    0.10502      0.00000     0.39370    0.00128     0.39498
      H   30    0.10206      0.00000     0.39684    0.00109     0.39794
      H   31    0.10911      0.00000     0.38945    0.00144     0.39089
      H   32    0.10293      0.00000     0.39550    0.00157     0.39707
      H   33    0.10038      0.00000     0.39852    0.00110     0.39962
 =======================================================================
   * Total *    0.00000     14.99461    41.80118    0.20421    57.00000

 Normal termination of Gaussian 16 at Thu Dec 10 17:05:50 2020.
