 Gaussian 16, Revision A.03,

 -----------------------------------------------------------
 # opt freq B3LYP/6-31G(d) empiricaldispersion=gd3bj scf=xqc
 -----------------------------------------------------------

 -------------------------------
 CID_128113658_JID_8077_neutraal
 -------------------------------
 Symbolic Z-matrix:
 Charge =  0 Multiplicity = 1

 SCF Done:  E(RB3LYP) =  -1142.10571276     A.U. after   16 cycles
 SCF Done:  E(RB3LYP) =  -1142.11102883     A.U. after   12 cycles
 SCF Done:  E(RB3LYP) =  -1142.11168493     A.U. after   11 cycles
 SCF Done:  E(RB3LYP) =  -1142.11175628     A.U. after   11 cycles
 SCF Done:  E(RB3LYP) =  -1142.11178738     A.U. after   11 cycles
 SCF Done:  E(RB3LYP) =  -1142.11180921     A.U. after   10 cycles
 SCF Done:  E(RB3LYP) =  -1142.11182217     A.U. after   11 cycles
 SCF Done:  E(RB3LYP) =  -1142.11182548     A.U. after   10 cycles
 SCF Done:  E(RB3LYP) =  -1142.11182676     A.U. after    9 cycles
 SCF Done:  E(RB3LYP) =  -1142.11182703     A.U. after    8 cycles
 SCF Done:  E(RB3LYP) =  -1142.11182709     A.U. after    7 cycles
 Optimization completed.
    -- Stationary point found.
 Normal termination of Gaussian 16 at Fri Dec 11 18:38:36 2020.

 --------------------------------------------------------------------
 #N Geom=AllCheck Guess=TCheck SCRF=Check GenChk RB3LYP/6-31G(d) Freq
 --------------------------------------------------------------------

 Structure from the checkpoint file:  "JID_8077.chk"
 -------------------------------
 CID_128113658_JID_8077_neutraal
 -------------------------------
 Charge =  0 Multiplicity = 1

 SCF Done:  E(RB3LYP) =  -1142.11182709     A.U. after    1 cycles

  Exact polarizability: 270.664  -2.067 173.839   6.132   4.864  96.294
 Approx polarizability: 346.893   6.542 323.615  14.470  16.128 154.228

                      1                      2                      3
                      A                      A                      A
 Frequencies --     27.3654                33.6153                51.5122
 Red. masses --      5.9787                 3.8667                 5.0128
 Frc consts  --      0.0026                 0.0026                 0.0078
 IR Inten    --      0.1574                 0.1942                 0.5017

                      4                      5                      6
                      A                      A                      A
 Frequencies --     57.2165                96.2342               120.3364
 Red. masses --      4.9438                 8.8728                 4.5368
 Frc consts  --      0.0095                 0.0484                 0.0387
 IR Inten    --      0.4295                 0.0429                 1.1738

                      7                      8                      9
                      A                      A                      A
 Frequencies --    138.7804               173.8585               195.8625
 Red. masses --      4.6208                 3.1933                 3.4140
 Frc consts  --      0.0524                 0.0569                 0.0772
 IR Inten    --      0.0764                 0.0066                 0.1449

                     10                     11                     12
                      A                      A                      A
 Frequencies --    223.3984               281.4462               303.9402
 Red. masses --      1.2120                 4.1064                 4.1936
 Frc consts  --      0.0356                 0.1916                 0.2283
 IR Inten    --      0.1249                 0.5686                 0.6340

                     13                     14                     15
                      A                      A                      A
 Frequencies --    328.7538               366.6452               377.0879
 Red. masses --      3.8119                 2.2455                 2.5174
 Frc consts  --      0.2427                 0.1778                 0.2109
 IR Inten    --      3.1684                 0.1562                 0.4258

                     16                     17                     18
                      A                      A                      A
 Frequencies --    400.3066               404.0354               443.0230
 Red. masses --      3.3105                 3.4381                 5.1926
 Frc consts  --      0.3126                 0.3307                 0.6005
 IR Inten    --      0.6231                 0.1633                 0.2714

                     19                     20                     21
                      A                      A                      A
 Frequencies --    459.4773               496.5773               521.7665
 Red. masses --      3.5638                 2.9370                 6.9415
 Frc consts  --      0.4433                 0.4267                 1.1134
 IR Inten    --      0.7117                 1.3251                 0.1854

                     22                     23                     24
                      A                      A                      A
 Frequencies --    586.0781               614.8607               659.2854
 Red. masses --      3.2961                 4.2609                13.0444
 Frc consts  --      0.6671                 0.9491                 3.3406
 IR Inten    --      1.4239                 8.9329                 3.6450

                     25                     26                     27
                      A                      A                      A
 Frequencies --    698.6738               711.2272               752.9907
 Red. masses --      2.4665                 5.5904                 7.7215
 Frc consts  --      0.7094                 1.6661                 2.5795
 IR Inten    --      5.1716                 1.5925                 1.2224

                     28                     29                     30
                      A                      A                      A
 Frequencies --    769.1935               770.9042               793.2907
 Red. masses --      2.9133                 6.6193                 3.6361
 Frc consts  --      1.0156                 2.3177                 1.3482
 IR Inten    --      2.2989                 6.6739                 2.7909

                     31                     32                     33
                      A                      A                      A
 Frequencies --    798.7394               802.0166               831.8725
 Red. masses --      1.2309                 1.6232                 3.5706
 Frc consts  --      0.4627                 0.6151                 1.4558
 IR Inten    --     27.5248                 0.8753                 2.3035

                     34                     35                     36
                      A                      A                      A
 Frequencies --    881.6427               882.2639               894.4137
 Red. masses --      2.5880                 2.1156                 1.4542
 Frc consts  --      1.1852                 0.9702                 0.6854
 IR Inten    --     29.1206                27.4186                 3.7908

                     37                     38                     39
                      A                      A                      A
 Frequencies --    904.2762               950.7727               962.9073
 Red. masses --      2.0570                 9.3083                 5.9813
 Frc consts  --      0.9910                 4.9576                 3.2675
 IR Inten    --      2.4362                36.3559                11.4457

                     40                     41                     42
                      A                      A                      A
 Frequencies --    968.5058               982.7997               984.5599
 Red. masses --      3.1191                 1.4344                 1.4769
 Frc consts  --      1.7238                 0.8163                 0.8435
 IR Inten    --     24.9831                 0.9559                 2.9843

                     43                     44                     45
                      A                      A                      A
 Frequencies --   1011.0921              1017.2862              1042.6543
 Red. masses --      2.6486                 1.8932                 8.1528
 Frc consts  --      1.5953                 1.1543                 5.2220
 IR Inten    --      6.6043                 4.2253                 4.3985

                     46                     47                     48
                      A                      A                      A
 Frequencies --   1079.0008              1114.4646              1132.4656
 Red. masses --      1.7253                 1.4334                 3.9731
 Frc consts  --      1.1835                 1.0489                 3.0022
 IR Inten    --      1.1306                 6.6258                45.2044

                     49                     50                     51
                      A                      A                      A
 Frequencies --   1149.8426              1156.4286              1162.7601
 Red. masses --      2.2146                 2.0709                 1.8529
 Frc consts  --      1.7251                 1.6317                 1.4759
 IR Inten    --     15.4961                20.4337                 0.4557

                     52                     53                     54
                      A                      A                      A
 Frequencies --   1197.6742              1214.8787              1243.5741
 Red. masses --      1.3191                 1.8228                 1.5240
 Frc consts  --      1.1148                 1.5851                 1.3886
 IR Inten    --      6.2143                24.7453                12.7579

                     55                     56                     57
                      A                      A                      A
 Frequencies --   1264.5668              1280.3004              1315.2473
 Red. masses --      1.2946                 1.6222                 1.5341
 Frc consts  --      1.2198                 1.5667                 1.5635
 IR Inten    --     19.3984                 7.1564                 3.6748

                     58                     59                     60
                      A                      A                      A
 Frequencies --   1343.0297              1350.3655              1358.2625
 Red. masses --      2.1688                 1.3415                 1.4625
 Frc consts  --      2.3048                 1.4412                 1.5897
 IR Inten    --      3.8720                 0.9579                 0.7929

                     61                     62                     63
                      A                      A                      A
 Frequencies --   1375.8802              1380.3331              1394.5823
 Red. masses --      1.5919                 1.5229                 1.5767
 Frc consts  --      1.7755                 1.7096                 1.8067
 IR Inten    --      1.2503                31.4061                47.7994

                     64                     65                     66
                      A                      A                      A
 Frequencies --   1401.9642              1404.1139              1439.0528
 Red. masses --      2.4656                 1.7282                 1.9607
 Frc consts  --      2.8553                 2.0075                 2.3922
 IR Inten    --     50.5312                45.5422                 8.6042

                     67                     68                     69
                      A                      A                      A
 Frequencies --   1445.0942              1455.4667              1508.2063
 Red. masses --      1.4931                 3.7629                 1.0952
 Frc consts  --      1.8371                 4.6965                 1.4678
 IR Inten    --      4.8256                92.4421                 3.1146

                     70                     71                     72
                      A                      A                      A
 Frequencies --   1514.2145              1516.4190              1517.5488
 Red. masses --      1.0878                 3.2443                 1.2489
 Frc consts  --      1.4695                 4.3955                 1.6945
 IR Inten    --      2.7692                15.3310                 5.4675

                     73                     74                     75
                      A                      A                      A
 Frequencies --   1532.2357              1537.2868              1538.7030
 Red. masses --      1.1041                 1.0632                 1.0641
 Frc consts  --      1.5272                 1.4803                 1.4844
 IR Inten    --      4.4710                17.0704                 4.1941

                     76                     77                     78
                      A                      A                      A
 Frequencies --   1607.1207              1618.2846              1715.0143
 Red. masses --     10.6358                 9.0429                 7.0709
 Frc consts  --     16.1852                13.9530                12.2535
 IR Inten    --    169.1690                83.2998               178.8817

                     79                     80                     81
                      A                      A                      A
 Frequencies --   3025.5219              3027.9166              3033.3342
 Red. masses --      1.0775                 1.0712                 1.0681
 Frc consts  --      5.8114                 5.7863                 5.7901
 IR Inten    --      7.1866                 7.5748                19.6025

                     82                     83                     84
                      A                      A                      A
 Frequencies --   3041.2862              3047.7599              3052.5429
 Red. masses --      1.0604                 1.0507                 1.0523
 Frc consts  --      5.7789                 5.7501                 5.7772
 IR Inten    --     28.8619                62.9544                34.2487

                     85                     86                     87
                      A                      A                      A
 Frequencies --   3082.3372              3085.2689              3095.1190
 Red. masses --      1.1026                 1.1031                 1.0979
 Frc consts  --      6.1719                 6.1864                 6.1970
 IR Inten    --     32.9726                51.9307                35.8649

                     88                     89                     90
                      A                      A                      A
 Frequencies --   3113.4692              3117.1092              3162.8995
 Red. masses --      1.1024                 1.1007                 1.0910
 Frc consts  --      6.2965                 6.3011                 6.4302
 IR Inten    --     33.3740                49.3882                 3.4211

                     91                     92                     93
                      A                      A                      A
 Frequencies --   3192.1898              3246.8937              3255.2955
 Red. masses --      1.0885                 1.0933                 1.0946
 Frc consts  --      6.5350                 6.7907                 6.8342
 IR Inten    --      6.6508                 0.5993                 1.6520

 - Thermochemistry -
 -------------------
 Temperature   298.150 Kelvin.  Pressure   1.00000 Atm.
 Atom     1 has atomic number  6 and mass  12.00000

 Molecular mass:   261.09358 amu.
 Principal axes and moments of inertia in atomic units:
                           1         2         3
     Eigenvalues --  1901.76563********************
           X            0.99999   0.00524   0.00031
           Y           -0.00524   0.99998   0.00205
           Z           -0.00030  -0.00205   1.00000
 This molecule is an asymmetric top.
 Rotational symmetry number  1.
 Warning -- assumption of classical behavior for rotation
           may cause significant error
 Rotational temperatures (Kelvin)      0.04554     0.00743     0.00653
 Rotational constants (GHZ):           0.94898     0.15471     0.13617
 Zero-point vibrational energy     703505.1 (Joules/Mol)
                                  168.14176 (Kcal/Mol)
 Warning -- explicit consideration of  23 degrees of freedom as
           vibrations may cause significant error
 Vibrational temperatures:     39.37    48.36    74.11    82.32   138.46
          (Kelvin)            173.14   199.67   250.14   281.80   321.42
                              404.94   437.30   473.00   527.52   542.55
                              575.95   581.32   637.41   661.09   714.46
                              750.71   843.24   884.65   948.56  1005.24
                             1023.30  1083.39  1106.70  1109.16  1141.37
                             1149.21  1153.92  1196.88  1268.49  1269.38
                             1286.86  1301.05  1367.95  1385.41  1393.46
                             1414.03  1416.56  1454.74  1463.65  1500.15
                             1552.44  1603.47  1629.37  1654.37  1663.84
                             1672.95  1723.19  1747.94  1789.23  1819.43
                             1842.07  1892.35  1932.32  1942.87  1954.24
                             1979.58  1985.99  2006.49  2017.11  2020.21
                             2070.48  2079.17  2094.09  2169.97  2178.62
                             2181.79  2183.41  2204.55  2211.81  2213.85
                             2312.29  2328.35  2467.52  4353.05  4356.50
                             4364.29  4375.73  4385.05  4391.93  4434.80
                             4439.01  4453.19  4479.59  4484.82  4550.71
                             4592.85  4671.56  4683.64

 Zero-point correction=                           0.267951 (Hartree/Particle)
 Thermal correction to Energy=                    0.283596
 Thermal correction to Enthalpy=                  0.284540
 Thermal correction to Gibbs Free Energy=         0.222697
 Sum of electronic and zero-point Energies=          -1141.843876
 Sum of electronic and thermal Energies=             -1141.828231
 Sum of electronic and thermal Enthalpies=           -1141.827287
 Sum of electronic and thermal Free Energies=        -1141.889130

                     E (Thermal)             CV                S
                      KCal/Mol        Cal/Mol-Kelvin    Cal/Mol-Kelvin
 Total                  177.959             60.218            130.160
 Electronic               0.000              0.000              0.000
 Translational            0.889              2.981             42.579
 Rotational               0.889              2.981             34.041
 Vibrational            176.182             54.257             53.541
 Vibration     1          0.593              1.984              6.012
 Vibration     2          0.594              1.983              5.604
 Vibration     3          0.596              1.977              4.758
 Vibration     4          0.596              1.975              4.551
 Vibration     5          0.603              1.952              3.529
 Vibration     6          0.609              1.932              3.095
 Vibration     7          0.614              1.915              2.821
 Vibration     8          0.627              1.875              2.393
 Vibration     9          0.636              1.846              2.172
 Vibration    10          0.649              1.805              1.931
 Vibration    11          0.681              1.708              1.525
 Vibration    12          0.695              1.666              1.395
 Vibration    13          0.712              1.618              1.266
 Vibration    14          0.740              1.541              1.094
 Vibration    15          0.748              1.519              1.051
 Vibration    16          0.766              1.469              0.962
 Vibration    17          0.769              1.461              0.948
 Vibration    18          0.803              1.376              0.817
 Vibration    19          0.817              1.340              0.768
 Vibration    20          0.852              1.258              0.667
 Vibration    21          0.877              1.202              0.606
 Vibration    22          0.943              1.061              0.474
 Vibration    23          0.974              1.000              0.425

                           ! Non-Optimized Parameters !
 Normal termination of Gaussian 16 at Fri Dec 11 18:52:37 2020.

 ----------------------------------------------------------------------
 # B3LYP/6-311++G(d,p) empiricaldispersion=gd3bj scf=xqc pop=npa geom=c
 heck
 ----------------------------------------------------------------------

 ---------------------------------------
 CID_128113658_JID_8077_Energie_neutraal
 ---------------------------------------
 Structure from the checkpoint file:  "JID_8077.chk"
 Charge =  0 Multiplicity = 1

 SCF Done:  E(RB3LYP) =  -1142.32917646     A.U. after   16 cycles
 Normal termination of Gaussian 16 at Fri Dec 11 18:59:36 2020.

 ----------------------------------------------------------------------
 # B3LYP/6-311++G(d,p) empiricaldispersion=gd3bj scf=xqc pop=npa geom=c
 heck
 ----------------------------------------------------------------------

 -------------------------------------
 CID_128113658_JID_8077_Energie_kation
 -------------------------------------
 Structure from the checkpoint file:  "JID_8077.chk"
 Charge =  1 Multiplicity = 2

 SCF Done:  E(UB3LYP) =  -1142.02403413     A.U. after   26 cycles
 Normal termination of Gaussian 16 at Fri Dec 11 19:15:55 2020.
 Gaussian 16:  ES64L-G16RevA.03 25-Dec-2016

 ----------------------------------------------------------------------
 # B3LYP/6-311++G(d,p) empiricaldispersion=gd3bj scf=xqc pop=npa geom=c
 heck
 ----------------------------------------------------------------------

 ------------------------------------
 CID_128113658_JID_8077_Energie_anion
 ------------------------------------
 Structure from the checkpoint file:  "JID_8077.chk"
 Charge = -1 Multiplicity = 2

                         Standard orientation:
 ---------------------------------------------------------------------
 Center     Atomic      Atomic             Coordinates (Angstroms)
 Number     Number       Type             X           Y           Z
 ---------------------------------------------------------------------
      1          6           0       -5.341096   -1.670961   -0.573557
      2          6           0       -4.580431   -1.095144    0.629224
      3          6           0       -3.093993   -1.498544    0.629147
      4          6           0       -2.274084   -0.781003   -0.466608
      5          6           0       -2.452288    0.709317   -0.356360
      6          6           0       -1.461905    1.609723   -0.188137
      7          6           0       -0.042813    1.344098   -0.108763
      8          7           0        0.646793    0.230010   -0.160260
      9          6           0        1.944636    0.668484   -0.019836
     10          7           0        2.075341    1.972150    0.112252
     11          8           0        0.752263    2.430532    0.053807
     12          6           0        3.071341   -0.241593   -0.017878
     13          6           0        3.032389   -1.608108   -0.148820
     14          7           0        4.243669   -2.251735   -0.114835
     15          6           0        5.209930   -1.390958    0.040841
     16         16           0        4.724206    0.282325    0.159611
     17          6           0       -3.890090    1.160212   -0.378169
     18          6           0       -4.702415    0.437904    0.718674
     19          1           0       -4.949942   -1.304948   -1.529107
     20          1           0       -6.402590   -1.401641   -0.528970
     21          1           0       -5.272042   -2.764576   -0.589441
     22          1           0       -5.038822   -1.515984    1.534654
     23          1           0       -2.654102   -1.252799    1.604417
     24          1           0       -2.995084   -2.583271    0.501264
     25          1           0       -2.639921   -1.096633   -1.454517
     26          1           0       -1.222892   -1.060883   -0.404040
     27          1           0       -1.711697    2.663459   -0.099489
     28          1           0        2.118907   -2.175960   -0.273130
     29          1           0        6.257625   -1.662558    0.096847
     30          1           0       -4.321821    0.922661   -1.360922
     31          1           0       -3.961486    2.245656   -0.251899
     32          1           0       -5.754484    0.741495    0.654263
     33          1           0       -4.332749    0.770989    1.697199
 ---------------------------------------------------------------------

 SCF Done:  E(UB3LYP) =  -1142.34940421     A.U. after   29 cycles

 The electronic state is 2-A.
 Alpha  occ. eigenvalues --  -88.75754 -19.05382 -14.20167 -14.19333 -14.17466
 Alpha  occ. eigenvalues --  -10.12243 -10.10137 -10.09772 -10.08373 -10.08231
 Alpha  occ. eigenvalues --  -10.07390 -10.07379 -10.07278 -10.06914 -10.06754
 Alpha  occ. eigenvalues --  -10.05773 -10.05399 -10.05036  -7.84395  -5.80661
 Alpha  occ. eigenvalues --   -5.80322  -5.80019  -1.00997  -0.84050  -0.79296
 Alpha  occ. eigenvalues --   -0.74745  -0.73209  -0.68245  -0.67153  -0.64483
 Alpha  occ. eigenvalues --   -0.62433  -0.61193  -0.56940  -0.52233  -0.51611
 Alpha  occ. eigenvalues --   -0.49605  -0.46128  -0.44326  -0.43566  -0.41128
 Alpha  occ. eigenvalues --   -0.39138  -0.38662  -0.35867  -0.35233  -0.34929
 Alpha  occ. eigenvalues --   -0.33833  -0.32002  -0.31414  -0.31359  -0.30169
 Alpha  occ. eigenvalues --   -0.29170  -0.28877  -0.28249  -0.27635  -0.26484
 Alpha  occ. eigenvalues --   -0.25818  -0.24468  -0.23712  -0.23389  -0.22169
 Alpha  occ. eigenvalues --   -0.21055  -0.20715  -0.19275  -0.18983  -0.16028
 Alpha  occ. eigenvalues --   -0.15805  -0.15542  -0.12768  -0.11133   0.03026
 Alpha virt. eigenvalues --    0.05642   0.06923   0.07873   0.07923   0.08570
 Alpha virt. eigenvalues --    0.09023   0.10482   0.10705   0.10831   0.11379
 Alpha virt. eigenvalues --    0.11658   0.12702   0.12888   0.13102   0.13335

  Beta  occ. eigenvalues --  -88.75731 -19.04992 -14.19643 -14.19368 -14.17526
  Beta  occ. eigenvalues --  -10.12054 -10.09898 -10.09784 -10.08373 -10.08143
  Beta  occ. eigenvalues --  -10.07378 -10.07352 -10.07205 -10.06937 -10.06731
  Beta  occ. eigenvalues --  -10.05450 -10.05416 -10.05053  -7.84374  -5.80654
  Beta  occ. eigenvalues --   -5.80315  -5.79936  -1.00375  -0.83909  -0.79126
  Beta  occ. eigenvalues --   -0.74514  -0.72731  -0.68038  -0.66887  -0.64424
  Beta  occ. eigenvalues --   -0.62119  -0.61054  -0.56776  -0.51994  -0.51491
  Beta  occ. eigenvalues --   -0.49245  -0.45940  -0.44084  -0.43385  -0.40891
  Beta  occ. eigenvalues --   -0.39019  -0.38601  -0.35820  -0.35079  -0.33787
  Beta  occ. eigenvalues --   -0.33608  -0.31818  -0.31295  -0.31212  -0.30056
  Beta  occ. eigenvalues --   -0.28736  -0.28568  -0.28222  -0.27439  -0.26333
  Beta  occ. eigenvalues --   -0.25738  -0.24328  -0.23625  -0.23216  -0.22061
  Beta  occ. eigenvalues --   -0.20592  -0.20020  -0.18566  -0.17997  -0.15792
  Beta  occ. eigenvalues --   -0.15585  -0.15304  -0.12072  -0.09156
  Beta virt. eigenvalues --    0.05683   0.07718   0.07834   0.08014   0.08523
  Beta virt. eigenvalues --    0.08699   0.09256   0.10407   0.10715   0.10773
  Beta virt. eigenvalues --    0.11300   0.11607   0.12719   0.13060   0.13217

 Mulliken charges and spin densities:
               1          2
     1  C   -0.423598  -0.278676
     2  C    0.218560   0.306702
     3  C   -0.478825  -0.197895
     4  C   -0.367518  -0.004200
     5  C    0.508929   0.290828
     6  C   -0.918860  -0.110050
     7  C   -0.096763   0.095299
     8  N   -0.024200  -0.036083
     9  C    0.548684  -0.028785
    10  N   -0.451954   0.259279
    11  O    0.160461   0.077552
    12  C    0.086235   0.037830
    13  C   -0.419182   0.056958
    14  N   -0.059279  -0.021510
    15  C   -0.148075   0.164150
    16  S   -0.308241   0.045239
    17  C   -0.310419   0.050035
    18  C   -0.414591  -0.183155
    19  H    0.097372   0.051272
    20  H    0.064555   0.069013
    21  H    0.088790   0.042512
    22  H    0.129264   0.051299
    23  H    0.135667   0.009632
    24  H    0.103080   0.033912
    25  H    0.093515   0.043445
    26  H    0.231658  -0.021388
    27  H    0.189518  -0.000954
    28  H    0.220058  -0.000454
    29  H    0.189745  -0.011361
    30  H    0.057242   0.079528
    31  H    0.141774   0.020316
    32  H    0.026695   0.110406
    33  H    0.129702  -0.000695
 Sum of Mulliken charges =  -1.00000   1.00000

 Dipole moment (field-independent basis, Debye):
    X=             -5.5315    Y=             -1.0120    Z=              0.5283  Tot=              5.6480
 Quadrupole moment (field-independent basis, Debye-Ang):
   XX=           -176.0228   YY=           -144.1538   ZZ=           -124.2786
   XY=              2.4687   XZ=             -1.3852   YZ=             -1.0271

 Summary of Natural Population Analysis:

                                       Natural Population
                Natural  -----------------------------------------------
    Atom  No    Charge         Core      Valence    Rydberg      Total
 -----------------------------------------------------------------------
      C    1   -0.28689      0.99965     2.28184    0.00540     3.28689
      C    2   -0.11253      0.99960     2.10459    0.00833     3.11253
      C    3   -0.18020      0.99962     2.17282    0.00776     3.18020
      C    4   -0.21906      0.99959     2.21068    0.00879     3.21906
      C    5    0.08237      0.99954     1.90702    0.01107     2.91763
      C    6   -0.13929      0.99943     2.13452    0.00534     3.13929
      C    7    0.28776      0.99963     1.69268    0.01993     2.71224
      N    8   -0.29361      0.99967     2.78303    0.01092     3.79361
      C    9    0.13053      0.99959     1.85208    0.01780     2.86947
      N   10   -0.01998      0.99967     2.50814    0.01218     3.51998
      O   11   -0.14358      0.99986     3.13262    0.01110     4.14358
      C   12   -0.10765      0.99935     2.09649    0.01180     3.10765
      C   13   -0.00318      0.99952     1.98855    0.01510     3.00318
      N   14   -0.25343      0.99969     2.74045    0.01328     3.75343
      C   15   -0.02500      0.99968     2.00717    0.01815     3.02500
      S   16    0.19914      4.99946     2.78220    0.01921     7.80086
      C   17   -0.20521      0.99960     2.19613    0.00948     3.20521
      C   18   -0.18082      0.99961     2.17346    0.00775     3.18082
      H   19    0.09777      0.00000     0.40091    0.00132     0.40223
      H   20    0.09526      0.00000     0.40362    0.00112     0.40474
      H   21    0.09659      0.00000     0.40235    0.00106     0.40341
      H   22    0.09139      0.00000     0.40677    0.00183     0.40861
      H   23    0.09795      0.00000     0.40090    0.00116     0.40205
      H   24    0.09457      0.00000     0.40402    0.00141     0.40543
      H   25    0.09733      0.00000     0.40106    0.00162     0.40267
      H   26    0.12533      0.00000     0.37291    0.00177     0.37467
      H   27    0.09901      0.00000     0.39984    0.00114     0.40099
      H   28    0.10223      0.00000     0.39659    0.00118     0.39777
      H   29    0.08836      0.00000     0.41023    0.00141     0.41164
      H   30    0.09806      0.00000     0.40014    0.00180     0.40194
      H   31    0.09750      0.00000     0.40023    0.00228     0.40250
      H   32    0.09302      0.00000     0.40547    0.00151     0.40698
      H   33    0.09659      0.00000     0.40221    0.00120     0.40341
 =======================================================================
   * Total *    0.00031     21.99277    46.77171    0.23521    68.99969

 Normal termination of Gaussian 16 at Fri Dec 11 19:34:29 2020.
