 Gaussian 16, Revision A.03,

 -----------------------------------------------------------
 # opt freq B3LYP/6-31G(d) empiricaldispersion=gd3bj scf=xqc
 -----------------------------------------------------------

 -------------------------------
 CID_146790909_JID_2051_neutraal
 -------------------------------
 Symbolic Z-matrix:
 Charge =  0 Multiplicity = 1

 SCF Done:  E(RB3LYP) =  -485.384477056     A.U. after   13 cycles
 SCF Done:  E(RB3LYP) =  -485.387539635     A.U. after   11 cycles
 SCF Done:  E(RB3LYP) =  -485.387938008     A.U. after   11 cycles
 SCF Done:  E(RB3LYP) =  -485.388061484     A.U. after   11 cycles
 SCF Done:  E(RB3LYP) =  -485.388117883     A.U. after    9 cycles
 SCF Done:  E(RB3LYP) =  -485.388169115     A.U. after   10 cycles
 SCF Done:  E(RB3LYP) =  -485.388218571     A.U. after    9 cycles
 SCF Done:  E(RB3LYP) =  -485.388245860     A.U. after   10 cycles
 SCF Done:  E(RB3LYP) =  -485.388253262     A.U. after   10 cycles
 SCF Done:  E(RB3LYP) =  -485.388294910     A.U. after    9 cycles
 SCF Done:  E(RB3LYP) =  -485.388964205     A.U. after   11 cycles
 SCF Done:  E(RB3LYP) =  -485.388965915     A.U. after    8 cycles
 SCF Done:  E(RB3LYP) =  -485.388966022     A.U. after    7 cycles
 SCF Done:  E(RB3LYP) =  -485.388966116     A.U. after    7 cycles
 SCF Done:  E(RB3LYP) =  -485.388966132     A.U. after    6 cycles
 Optimization completed.
    -- Stationary point found.
 Normal termination of Gaussian 16 at Wed Dec  9 16:54:49 2020.

 --------------------------------------------------------------------
 #N Geom=AllCheck Guess=TCheck SCRF=Check GenChk RB3LYP/6-31G(d) Freq
 --------------------------------------------------------------------

 Structure from the checkpoint file:  "JID_2051.chk"
 -------------------------------
 CID_146790909_JID_2051_neutraal
 -------------------------------
 Charge =  0 Multiplicity = 1

 SCF Done:  E(RB3LYP) =  -485.388966132     A.U. after    1 cycles

  Exact polarizability: 162.644   6.638 118.265 -11.524   4.329  95.042
 Approx polarizability: 216.344   8.758 180.845 -23.327   8.389 142.047

                      1                      2                      3
                      A                      A                      A
 Frequencies --     42.7339                54.3879                56.8501
 Red. masses --      3.1371                 2.6081                 3.4838
 Frc consts  --      0.0034                 0.0045                 0.0066
 IR Inten    --      0.5647                 0.4258                 0.4015

                      4                      5                      6
                      A                      A                      A
 Frequencies --    115.8956               158.7196               182.2749
 Red. masses --      2.9871                 1.8996                 2.8051
 Frc consts  --      0.0236                 0.0282                 0.0549
 IR Inten    --      0.4256                 6.3625                 1.9675

                      7                      8                      9
                      A                      A                      A
 Frequencies --    197.4869               266.3393               271.7305
 Red. masses --      1.2409                 1.7331                 1.4596
 Frc consts  --      0.0285                 0.0724                 0.0635
 IR Inten    --      1.4455                15.0814                26.5143

                     10                     11                     12
                      A                      A                      A
 Frequencies --    301.8308               322.3966               342.2114
 Red. masses --      2.5282                 2.3297                 2.5538
 Frc consts  --      0.1357                 0.1427                 0.1762
 IR Inten    --      6.4931                 4.7834                 5.7769

                     13                     14                     15
                      A                      A                      A
 Frequencies --    373.5139               393.3408               423.0021
 Red. masses --      3.0458                 2.2406                 2.2023
 Frc consts  --      0.2504                 0.2042                 0.2322
 IR Inten    --      1.1420                 0.3412                 2.0418

                     16                     17                     18
                      A                      A                      A
 Frequencies --    453.1274               516.7942               548.2591
 Red. masses --      2.1007                 2.6038                 2.3670
 Frc consts  --      0.2541                 0.4097                 0.4192
 IR Inten    --      8.1526                 2.8086                 0.3904

                     19                     20                     21
                      A                      A                      A
 Frequencies --    587.8275               711.5818               721.4360
 Red. masses --      2.7185                 2.4371                 3.1161
 Frc consts  --      0.5534                 0.7271                 0.9555
 IR Inten    --      2.7617                 1.9641                 1.1614

                     22                     23                     24
                      A                      A                      A
 Frequencies --    799.0999               834.9518               850.0888
 Red. masses --      1.6041                 1.7919                 1.9117
 Frc consts  --      0.6035                 0.7360                 0.8140
 IR Inten    --      1.1013                 6.4567                 4.2716

                     25                     26                     27
                      A                      A                      A
 Frequencies --    873.0517               884.2398               889.8449
 Red. masses --      1.8964                 1.9795                 1.8507
 Frc consts  --      0.8516                 0.9119                 0.8634
 IR Inten    --     30.1024                33.0890                 3.7425

                     28                     29                     30
                      A                      A                      A
 Frequencies --    904.5423               942.2610               968.7561
 Red. masses --      1.6149                 1.4241                 2.1410
 Frc consts  --      0.7785                 0.7449                 1.1839
 IR Inten    --     81.7330                 2.4330                 0.9172

                     31                     32                     33
                      A                      A                      A
 Frequencies --    984.8077              1004.9280              1029.1694
 Red. masses --      1.6802                 1.6845                 1.6611
 Frc consts  --      0.9601                 1.0023                 1.0366
 IR Inten    --      5.0039                 6.9574                 2.2516

                     34                     35                     36
                      A                      A                      A
 Frequencies --   1053.4727              1068.0190              1095.5591
 Red. masses --      1.5188                 2.2067                 1.8419
 Frc consts  --      0.9931                 1.4831                 1.3026
 IR Inten    --      3.6972                10.4183                 5.4012

                     37                     38                     39
                      A                      A                      A
 Frequencies --   1101.5681              1134.0224              1146.0347
 Red. masses --      2.1182                 1.8242                 2.3724
 Frc consts  --      1.5144                 1.3822                 1.8359
 IR Inten    --      3.1331                 5.8538                 1.6351

                     40                     41                     42
                      A                      A                      A
 Frequencies --   1164.7213              1188.1667              1191.7971
 Red. masses --      1.9574                 1.7589                 1.5204
 Frc consts  --      1.5645                 1.4630                 1.2724
 IR Inten    --      0.4572                 1.1393                 1.7274

                     43                     44                     45
                      A                      A                      A
 Frequencies --   1203.3101              1238.9542              1284.7447
 Red. masses --      1.3200                 1.2103                 1.3038
 Frc consts  --      1.1261                 1.0946                 1.2679
 IR Inten    --      3.5531                 1.0934                 1.7506

                     46                     47                     48
                      A                      A                      A
 Frequencies --   1290.1878              1308.8163              1362.1968
 Red. masses --      1.3088                 1.1779                 1.2932
 Frc consts  --      1.2836                 1.1888                 1.4139
 IR Inten    --      0.1300                 1.9605                 2.1898

                     49                     50                     51
                      A                      A                      A
 Frequencies --   1371.5327              1389.2931              1394.9098
 Red. masses --      1.2253                 1.4397                 1.2967
 Frc consts  --      1.3580                 1.6372                 1.4865
 IR Inten    --      9.3473                 0.3917                 0.4514

                     52                     53                     54
                      A                      A                      A
 Frequencies --   1396.7177              1405.4265              1435.2036
 Red. masses --      1.3812                 1.4303                 1.5210
 Frc consts  --      1.5875                 1.6645                 1.8459
 IR Inten    --     11.5759                 1.0654                 0.5801

                     55                     56                     57
                      A                      A                      A
 Frequencies --   1444.0580              1449.6579              1450.8363
 Red. masses --      1.2630                 1.5125                 1.6026
 Frc consts  --      1.5517                 1.8727                 1.9876
 IR Inten    --      0.7086                 3.9223                 8.5329

                     58                     59                     60
                      A                      A                      A
 Frequencies --   1497.3731              1502.1556              1508.7908
 Red. masses --      1.0973                 1.0849                 1.0485
 Frc consts  --      1.4495                 1.4423                 1.4063
 IR Inten    --      0.0885                 3.9777                 6.7341

                     61                     62                     63
                      A                      A                      A
 Frequencies --   1516.8009              1520.7527              1522.9367
 Red. masses --      1.0886                 1.0913                 1.0988
 Frc consts  --      1.4756                 1.4870                 1.5015
 IR Inten    --      6.3845                 0.9680                 5.7207

                     64                     65                     66
                      A                      A                      A
 Frequencies --   1524.9377              1532.6140              1703.3488
 Red. masses --      1.0799                 1.0853                 1.0983
 Frc consts  --      1.4796                 1.5020                 1.8775
 IR Inten    --      5.1624                 5.6836                21.1855

                     67                     68                     69
                      A                      A                      A
 Frequencies --   1703.9635              1729.7342              2966.6245
 Red. masses --      7.1007                 5.4240                 1.0723
 Frc consts  --     12.1471                 9.5615                 5.5600
 IR Inten    --      2.6478                12.8363                79.7409

                     70                     71                     72
                      A                      A                      A
 Frequencies --   2996.4519              3015.2826              3018.3976
 Red. masses --      1.0648                 1.0697                 1.0680
 Frc consts  --      5.6327                 5.7302                 5.7332
 IR Inten    --     28.5856                 6.0605                39.8731

                     73                     74                     75
                      A                      A                      A
 Frequencies --   3020.4597              3023.2319              3043.3496
 Red. masses --      1.0631                 1.0684                 1.0638
 Frc consts  --      5.7144                 5.7534                 5.8049
 IR Inten    --     32.9982                67.7219                30.6391

                     76                     77                     78
                      A                      A                      A
 Frequencies --   3047.1959              3061.9654              3072.2827
 Red. masses --      1.0643                 1.0993                 1.0894
 Frc consts  --      5.8228                 6.0727                 6.0587
 IR Inten    --     44.3871                31.8420                39.1554

                     79                     80                     81
                      A                      A                      A
 Frequencies --   3081.3658              3082.7065              3086.1089
 Red. masses --      1.0911                 1.0951                 1.1021
 Frc consts  --      6.1038                 6.1314                 6.1844
 IR Inten    --     68.9086                13.8750                44.7643

                     82                     83                     84
                      A                      A                      A
 Frequencies --   3095.7756              3121.5362              3126.7271
 Red. masses --      1.0994                 1.0902                 1.0931
 Frc consts  --      6.2078                 6.2587                 6.2962
 IR Inten    --     50.9662                32.9503                19.1954

                     85                     86                     87
                      A                      A                      A
 Frequencies --   3144.4425              3468.2313              3549.4867
 Red. masses --      1.0888                 1.0499                 1.0915
 Frc consts  --      6.3427                 7.4410                 8.1024
 IR Inten    --     55.6238                 4.1749                 0.1684

 - Thermochemistry -
 -------------------
 Temperature   298.150 Kelvin.  Pressure   1.00000 Atm.
 Atom     1 has atomic number  6 and mass  12.00000

 Molecular mass:   165.15175 amu.
 Principal axes and moments of inertia in atomic units:
                           1         2         3
     Eigenvalues --  1107.827893533.786103865.99426
           X            0.99998   0.00542  -0.00290
           Y           -0.00539   0.99994   0.01003
           Z            0.00295  -0.01001   0.99995
 This molecule is an asymmetric top.
 Rotational symmetry number  1.
 Warning -- assumption of classical behavior for rotation
           may cause significant error
 Rotational temperatures (Kelvin)      0.07818     0.02451     0.02240
 Rotational constants (GHZ):           1.62908     0.51071     0.46682
 Zero-point vibrational energy     746838.9 (Joules/Mol)
                                  178.49879 (Kcal/Mol)
 Warning -- explicit consideration of  19 degrees of freedom as
           vibrations may cause significant error
 Vibrational temperatures:     61.48    78.25    81.79   166.75   228.36
          (Kelvin)            262.25   284.14   383.20   390.96   434.27
                              463.86   492.37   537.40   565.93   608.61
                              651.95   743.55   788.82   845.75  1023.81
                             1037.99  1149.73  1201.31  1223.09  1256.13
                             1272.22  1280.29  1301.43  1355.70  1393.82
                             1416.92  1445.87  1480.75  1515.71  1536.64
                             1576.27  1584.91  1631.61  1648.89  1675.77
                             1709.51  1714.73  1731.29  1782.58  1848.46
                             1856.29  1883.09  1959.90  1973.33  1998.88
                             2006.96  2009.57  2022.10  2064.94  2077.68
                             2085.73  2087.43  2154.39  2161.27  2170.81
                             2182.34  2188.02  2191.17  2194.05  2205.09
                             2450.74  2451.62  2488.70  4268.31  4311.23
                             4338.32  4342.80  4345.77  4349.76  4378.70
                             4384.24  4405.49  4420.33  4433.40  4435.33
                             4440.22  4454.13  4491.19  4498.66  4524.15
                             4990.01  5106.92

 Zero-point correction=                           0.284456 (Hartree/Particle)
 Thermal correction to Energy=                    0.297376
 Thermal correction to Enthalpy=                  0.298320
 Thermal correction to Gibbs Free Energy=         0.244878
 Sum of electronic and zero-point Energies=           -485.104510
 Sum of electronic and thermal Energies=              -485.091591
 Sum of electronic and thermal Enthalpies=            -485.090646
 Sum of electronic and thermal Free Energies=         -485.144089

                     E (Thermal)             CV                S
                      KCal/Mol        Cal/Mol-Kelvin    Cal/Mol-Kelvin
 Total                  186.606             49.312            112.478
 Electronic               0.000              0.000              0.000
 Translational            0.889              2.981             41.213
 Rotational               0.889              2.981             31.093
 Vibrational            184.828             43.350             40.172
 Vibration     1          0.595              1.980              5.128
 Vibration     2          0.596              1.976              4.651
 Vibration     3          0.596              1.975              4.564
 Vibration     4          0.608              1.936              3.168
 Vibration     5          0.621              1.893              2.565
 Vibration     6          0.630              1.864              2.305
 Vibration     7          0.637              1.843              2.156
 Vibration     8          0.672              1.735              1.620
 Vibration     9          0.675              1.725              1.585
 Vibration    10          0.694              1.670              1.407
 Vibration    11          0.707              1.631              1.298
 Vibration    12          0.721              1.591              1.202
 Vibration    13          0.745              1.526              1.065
 Vibration    14          0.761              1.484              0.987
 Vibration    15          0.785              1.420              0.882
 Vibration    16          0.812              1.354              0.786
 Vibration    17          0.872              1.213              0.617
 Vibration    18          0.903              1.143              0.548
 Vibration    19          0.945              1.058              0.471

 Optimization completed.
    -- Stationary point found.
 Normal termination of Gaussian 16 at Wed Dec  9 17:02:01 2020.

 ----------------------------------------------------------------------
 # B3LYP/6-311++G(d,p) empiricaldispersion=gd3bj scf=xqc pop=npa geom=c
 heck
 ----------------------------------------------------------------------

 ---------------------------------------
 CID_146790909_JID_2051_Energie_neutraal
 ---------------------------------------
 Structure from the checkpoint file:  "JID_2051.chk"
 Charge =  0 Multiplicity = 1

 SCF Done:  E(RB3LYP) =  -485.528199836     A.U. after   14 cycles
 Normal termination of Gaussian 16 at Wed Dec  9 17:05:02 2020.

 ----------------------------------------------------------------------
 # B3LYP/6-311++G(d,p) empiricaldispersion=gd3bj scf=xqc pop=npa geom=c
 heck
 ----------------------------------------------------------------------

 -------------------------------------
 CID_146790909_JID_2051_Energie_kation
 -------------------------------------
 Structure from the checkpoint file:  "JID_2051.chk"
 Charge =  1 Multiplicity = 2

 SCF Done:  E(UB3LYP) =  -485.252551110     A.U. after   27 cycles
 Normal termination of Gaussian 16 at Wed Dec  9 17:13:00 2020.
 Gaussian 16:  ES64L-G16RevA.03 25-Dec-2016

 ----------------------------------------------------------------------
 # B3LYP/6-311++G(d,p) empiricaldispersion=gd3bj scf=xqc pop=npa geom=c
 heck
 ----------------------------------------------------------------------

 ------------------------------------
 CID_146790909_JID_2051_Energie_anion
 ------------------------------------
 Structure from the checkpoint file:  "JID_2051.chk"
 Charge = -1 Multiplicity = 2

                         Standard orientation:
 ---------------------------------------------------------------------
 Center     Atomic      Atomic             Coordinates (Angstroms)
 Number     Number       Type             X           Y           Z
 ---------------------------------------------------------------------
      1          6           0       -3.915798   -0.987182    0.202652
      2          6           0       -2.522391   -0.427510    0.051253
      3          6           0       -1.566697   -1.171222   -0.545018
      4          6           0       -0.170798   -0.890570   -0.870146
      5          6           0        0.507267    0.275169   -0.869403
      6          6           0       -0.122082    1.588627   -0.469917
      7          6           0       -0.963220    1.519333    0.815140
      8          6           0       -2.373467    0.963961    0.617181
      9          6           0        1.962882    0.312909   -1.270825
     10          6           0        2.925289    0.673020   -0.118065
     11          6           0        2.778175   -0.223405    1.113667
     12          7           0        2.988631   -1.634844    0.768850
     13          1           0       -4.014622   -1.973756   -0.259598
     14          1           0       -4.659416   -0.320721   -0.257691
     15          1           0       -4.196340   -1.075900    1.261893
     16          1           0       -1.880006   -2.167380   -0.858234
     17          1           0        0.376284   -1.768488   -1.216159
     18          1           0       -0.754071    1.952505   -1.294462
     19          1           0        0.665403    2.340067   -0.344696
     20          1           0       -0.429030    0.917464    1.560105
     21          1           0       -1.058331    2.527337    1.237471
     22          1           0       -2.890683    0.987124    1.588647
     23          1           0       -2.949813    1.655380   -0.018760
     24          1           0        2.257110   -0.658593   -1.683235
     25          1           0        2.103366    1.050400   -2.075205
     26          1           0        3.952616    0.597189   -0.493427
     27          1           0        2.770429    1.715408    0.190369
     28          1           0        3.541716    0.060371    1.847753
     29          1           0        1.797659   -0.030345    1.583817
     30          1           0        3.052565   -2.184260    1.624321
     31          1           0        2.159793   -1.978680    0.286030
 ---------------------------------------------------------------------

 SCF Done:  E(UB3LYP) =  -485.514862781     A.U. after   33 cycles
 SCF Done:  E(UB3LYP) =  -485.514862781     a.u. after    1 cycles

 The electronic state is 2-A.
 Alpha  occ. eigenvalues --  -14.18964 -10.08209 -10.05481 -10.05389 -10.05360
 Alpha  occ. eigenvalues --  -10.05270 -10.05211 -10.05033 -10.04849 -10.04747
 Alpha  occ. eigenvalues --  -10.04121 -10.03876  -0.77962  -0.72013  -0.68520
 Alpha  occ. eigenvalues --   -0.65031  -0.63638  -0.58503  -0.56415  -0.53039
 Alpha  occ. eigenvalues --   -0.50032  -0.46580  -0.42410  -0.39335  -0.38089
 Alpha  occ. eigenvalues --   -0.36597  -0.35636  -0.34719  -0.31992  -0.30967
 Alpha  occ. eigenvalues --   -0.30397  -0.29828  -0.29528  -0.28723  -0.27987
 Alpha  occ. eigenvalues --   -0.25852  -0.24808  -0.23875  -0.22704  -0.22228
 Alpha  occ. eigenvalues --   -0.21657  -0.20716  -0.19452  -0.17540  -0.14202
 Alpha  occ. eigenvalues --   -0.09120   0.04853
 Alpha virt. eigenvalues --    0.06981   0.07400   0.08076   0.08868   0.08889
 Alpha virt. eigenvalues --    0.09706   0.10214   0.10720   0.11077   0.11811
 Alpha virt. eigenvalues --    0.11945   0.12484   0.13079   0.14182   0.14695

  Beta  occ. eigenvalues --  -14.18952 -10.08191 -10.05479 -10.05374 -10.05351
  Beta  occ. eigenvalues --  -10.05258 -10.05054 -10.05008 -10.04835 -10.04629
  Beta  occ. eigenvalues --  -10.04111 -10.03833  -0.77941  -0.71851  -0.68348
  Beta  occ. eigenvalues --   -0.64954  -0.63533  -0.58411  -0.56361  -0.52967
  Beta  occ. eigenvalues --   -0.49877  -0.46510  -0.42249  -0.39296  -0.38001
  Beta  occ. eigenvalues --   -0.36478  -0.35555  -0.34640  -0.31840  -0.30872
  Beta  occ. eigenvalues --   -0.30344  -0.29772  -0.29470  -0.28669  -0.27909
  Beta  occ. eigenvalues --   -0.25783  -0.24750  -0.23764  -0.22625  -0.22163
  Beta  occ. eigenvalues --   -0.21600  -0.20667  -0.19359  -0.17155  -0.14169
  Beta  occ. eigenvalues --   -0.08495
  Beta virt. eigenvalues --    0.06981   0.07617   0.07939   0.08550   0.09282
  Beta virt. eigenvalues --    0.09530   0.09978   0.10625   0.11052   0.11488
  Beta virt. eigenvalues --    0.12058   0.12218   0.12574   0.13276   0.14418

 Mulliken charges and spin densities:
               1          2
     1  C    0.751642  -1.388107
     2  C   -0.002684   0.852322
     3  C   -0.354167  -0.469369
     4  C   -0.182254  -0.362734
     5  C    0.973253   0.073404
     6  C   -1.195604   0.776242
     7  C   -0.217752   0.140272
     8  C    0.583442  -1.250991
     9  C   -0.426800  -0.118840
    10  C    0.566803  -0.701576
    11  C    0.188522  -0.672734
    12  N   -0.491254   0.133237
    13  H   -0.036012   0.169646
    14  H   -0.163264   0.310074
    15  H    0.104482   0.019165
    16  H   -0.040085   0.148638
    17  H    0.003225   0.099429
    18  H   -0.090715   0.246064
    19  H   -0.259305   0.429244
    20  H    0.248046  -0.141644
    21  H   -0.610430   0.774527
    22  H    0.055352   0.086554
    23  H   -0.233031   0.408172
    24  H    0.007735   0.147077
    25  H   -0.183285   0.350134
    26  H   -0.081688   0.231320
    27  H   -0.019634   0.127012
    28  H   -0.151731   0.304882
    29  H   -0.073580   0.176750
    30  H    0.081005   0.143442
    31  H    0.249767  -0.041609
 Sum of Mulliken charges =  -1.00000   1.00000

 Dipole moment (field-independent basis, Debye):
    X=              0.2589    Y=             -3.6265    Z=              1.5864  Tot=              3.9667
 Quadrupole moment (field-independent basis, Debye-Ang):
   XX=           -143.7850   YY=           -113.6229   ZZ=           -103.5460
   XY=              4.8793   XZ=             -3.9520   YZ=             -1.7046

 Summary of Natural Population Analysis:

                                       Natural Population
                Natural  -----------------------------------------------
    Atom  No    Charge         Core      Valence    Rydberg      Total
 -----------------------------------------------------------------------
      C    1   -0.29305      0.99963     2.28788    0.00554     3.29305
      C    2    0.02893      0.99951     1.96247    0.00908     2.97107
      C    3   -0.12352      0.99947     2.11433    0.00971     3.12352
      C    4   -0.11825      0.99946     2.10933    0.00946     3.11825
      C    5    0.02622      0.99949     1.96341    0.01088     2.97378
      C    6   -0.20908      0.99958     2.19963    0.00987     3.20908
      C    7   -0.18395      0.99963     2.17478    0.00955     3.18395
      C    8   -0.20197      0.99958     2.19356    0.00883     3.20197
      C    9   -0.20268      0.99959     2.19329    0.00980     3.20268
      C   10   -0.18823      0.99962     2.17975    0.00886     3.18823
      C   11   -0.09080      0.99963     2.08069    0.01048     3.09080
      N   12   -0.42616      0.99977     2.91629    0.01009     3.92616
      H   13    0.09743      0.00000     0.40174    0.00083     0.40257
      H   14    0.10171      0.00000     0.39678    0.00151     0.39829
      H   15    0.09515      0.00000     0.40382    0.00103     0.40485
      H   16    0.08930      0.00000     0.40930    0.00140     0.41070
      H   17    0.08776      0.00000     0.41069    0.00155     0.41224
      H   18    0.10743      0.00000     0.39047    0.00209     0.39257
      H   19    0.09959      0.00000     0.39893    0.00148     0.40041
      H   20    0.09419      0.00000     0.40411    0.00170     0.40581
      H   21    0.09799      0.00000     0.40058    0.00144     0.40201
      H   22    0.09714      0.00000     0.40173    0.00113     0.40286
      H   23    0.10527      0.00000     0.39188    0.00286     0.39473
      H   24    0.09828      0.00000     0.40038    0.00134     0.40172
      H   25    0.10159      0.00000     0.39702    0.00139     0.39841
      H   26    0.09714      0.00000     0.40147    0.00139     0.40286
      H   27    0.09602      0.00000     0.40259    0.00139     0.40398
      H   28    0.08810      0.00000     0.41072    0.00118     0.41190
      H   29    0.08206      0.00000     0.41604    0.00190     0.41794
      H   30    0.17110      0.00000     0.32753    0.00137     0.32890
      H   31    0.17530      0.00000     0.32259    0.00211     0.32470
 =======================================================================
   * Total *   -0.00000     11.99497    33.86379    0.14125    46.00000

 Normal termination of Gaussian 16 at Wed Dec  9 17:23:05 2020.
