 Gaussian 16, Revision A.03,

 -----------------------------------------------------------
 # opt freq B3LYP/6-31G(d) empiricaldispersion=gd3bj scf=xqc
 -----------------------------------------------------------

 -------------------------------
 CID_148102012_JID_7719_neutraal
 -------------------------------
 Symbolic Z-matrix:
 Charge =  0 Multiplicity = 1

 SCF Done:  E(RB3LYP) =  -1175.73190292     A.U. after   15 cycles
 SCF Done:  E(RB3LYP) =  -1175.74288565     A.U. after   14 cycles
 SCF Done:  E(RB3LYP) =  -1175.74180166     A.U. after   14 cycles
 SCF Done:  E(RB3LYP) =  -1175.74756715     A.U. after   13 cycles
 SCF Done:  E(RB3LYP) =  -1175.74891057     A.U. after   12 cycles
 SCF Done:  E(RB3LYP) =  -1175.74975805     A.U. after   12 cycles
 SCF Done:  E(RB3LYP) =  -1175.75014803     A.U. after   12 cycles
 SCF Done:  E(RB3LYP) =  -1175.75025178     A.U. after   12 cycles
 SCF Done:  E(RB3LYP) =  -1175.75033720     A.U. after   11 cycles
 SCF Done:  E(RB3LYP) =  -1175.75036108     A.U. after   10 cycles
 SCF Done:  E(RB3LYP) =  -1175.75037562     A.U. after    8 cycles
 SCF Done:  E(RB3LYP) =  -1175.75037592     A.U. after    8 cycles
 SCF Done:  E(RB3LYP) =  -1175.75037607     A.U. after    8 cycles
 SCF Done:  E(RB3LYP) =  -1175.75037614     A.U. after    8 cycles
 SCF Done:  E(RB3LYP) =  -1175.75037615     A.U. after    7 cycles
 Optimization completed.
    -- Stationary point found.
 Normal termination of Gaussian 16 at Fri Dec 11 13:12:28 2020.

 --------------------------------------------------------------------
 #N Geom=AllCheck Guess=TCheck SCRF=Check GenChk RB3LYP/6-31G(d) Freq
 --------------------------------------------------------------------

 Structure from the checkpoint file:  "JID_7719.chk"
 -------------------------------
 CID_148102012_JID_7719_neutraal
 -------------------------------
 Charge =  0 Multiplicity = 1

 SCF Done:  E(RB3LYP) =  -1175.75037615     A.U. after    1 cycles

  Exact polarizability: 208.636  14.347 161.010   0.394   1.550  86.332
 Approx polarizability: 294.000  15.847 265.643   0.284  -2.036 139.349

                      1                      2                      3
                      A                      A                      A
 Frequencies --     22.8691                51.3551                55.7863
 Red. masses --      7.4149                 5.4418                 7.1588
 Frc consts  --      0.0023                 0.0085                 0.0131
 IR Inten    --      1.4111                 1.5792                 0.3876

                      4                      5                      6
                      A                      A                      A
 Frequencies --     83.3778                94.8866               138.1945
 Red. masses --      4.0933                 4.4788                 5.0049
 Frc consts  --      0.0168                 0.0238                 0.0563
 IR Inten    --      2.5221                 4.1461                 0.7567

                      7                      8                      9
                      A                      A                      A
 Frequencies --    152.6667               172.4756               197.3873
 Red. masses --      4.8624                 6.1142                 3.7596
 Frc consts  --      0.0668                 0.1072                 0.0863
 IR Inten    --      1.1613                 0.4001                 4.4087

                     10                     11                     12
                      A                      A                      A
 Frequencies --    208.0658               229.8970               253.4584
 Red. masses --      4.6126                 1.4451                 1.2979
 Frc consts  --      0.1177                 0.0450                 0.0491
 IR Inten    --      0.8875                15.1220                 2.3922

                     13                     14                     15
                      A                      A                      A
 Frequencies --    284.0781               311.5787               353.7420
 Red. masses --      2.4910                 4.8556                 5.7735
 Frc consts  --      0.1184                 0.2777                 0.4257
 IR Inten    --      5.5751                 2.8541                 1.4776

                     16                     17                     18
                      A                      A                      A
 Frequencies --    362.1407               385.0812               428.8153
 Red. masses --      4.5319                 6.0857                 5.8884
 Frc consts  --      0.3502                 0.5317                 0.6380
 IR Inten    --      0.8605                 0.8615                 2.8257

                     19                     20                     21
                      A                      A                      A
 Frequencies --    444.6420               473.9511               504.2605
 Red. masses --      3.6775                 5.0012                 4.6860
 Frc consts  --      0.4284                 0.6619                 0.7020
 IR Inten    --      2.9870                 3.3793                 2.2762

                     22                     23                     24
                      A                      A                      A
 Frequencies --    568.8640               574.4630               606.2583
 Red. masses --      6.0265                 2.6087                 3.2953
 Frc consts  --      1.1490                 0.5072                 0.7136
 IR Inten    --     21.7466                 1.6392                17.1443

                     25                     26                     27
                      A                      A                      A
 Frequencies --    631.2281               647.3133               650.6451
 Red. masses --      1.9182                 4.4214                 5.3242
 Frc consts  --      0.4503                 1.0915                 1.3280
 IR Inten    --     71.1389                23.3832                13.3641

                     28                     29                     30
                      A                      A                      A
 Frequencies --    729.5832               748.3450               757.2747
 Red. masses --      4.3677                 3.8351                 1.9299
 Frc consts  --      1.3698                 1.2654                 0.6521
 IR Inten    --     20.3255                19.5059                21.2998

                     31                     32                     33
                      A                      A                      A
 Frequencies --    795.9827               816.8090               839.6906
 Red. masses --      4.8754                 3.0102                 1.6737
 Frc consts  --      1.8200                 1.1833                 0.6953
 IR Inten    --     18.0081                 5.8994                24.6203

                     34                     35                     36
                      A                      A                      A
 Frequencies --    861.8077               904.5364               913.9603
 Red. masses --      3.2561                 4.2385                 1.5366
 Frc consts  --      1.4249                 2.0432                 0.7563
 IR Inten    --     16.1615                 1.7378                11.5519

                     37                     38                     39
                      A                      A                      A
 Frequencies --    943.0972               960.1514               968.3116
 Red. masses --      2.4906                 1.9874                 1.8046
 Frc consts  --      1.3052                 1.0795                 0.9969
 IR Inten    --     17.1384                 1.3892                 1.6731

                     40                     41                     42
                      A                      A                      A
 Frequencies --   1004.0011              1041.0790              1063.1692
 Red. masses --      1.6896                 1.8262                 5.6561
 Frc consts  --      1.0035                 1.1662                 3.7668
 IR Inten    --     11.9100                 2.7565                26.9950

                     43                     44                     45
                      A                      A                      A
 Frequencies --   1073.5152              1092.8112              1127.5598
 Red. masses --      3.6311                 5.7373                 2.7090
 Frc consts  --      2.4655                 4.0369                 2.0292
 IR Inten    --     46.2133               133.5162                49.0051

                     46                     47                     48
                      A                      A                      A
 Frequencies --   1168.5987              1186.2186              1202.4856
 Red. masses --      1.5606                 1.2709                 1.1203
 Frc consts  --      1.2557                 1.0536                 0.9544
 IR Inten    --     23.0709                 0.8778                13.1682

                     49                     50                     51
                      A                      A                      A
 Frequencies --   1211.4010              1227.8983              1272.4038
 Red. masses --      1.7065                 1.4740                 1.7919
 Frc consts  --      1.4755                 1.3094                 1.7093
 IR Inten    --     52.5774                57.2425                80.5236

                     52                     53                     54
                      A                      A                      A
 Frequencies --   1302.0239              1314.9299              1333.3732
 Red. masses --      1.4000                 2.0069                 3.2027
 Frc consts  --      1.3983                 2.0444                 3.3548
 IR Inten    --     33.9641               165.2094                25.0156

                     55                     56                     57
                      A                      A                      A
 Frequencies --   1354.3963              1358.3341              1390.8684
 Red. masses --      2.1334                 6.1873                 2.6256
 Frc consts  --      2.3057                 6.7261                 2.9927
 IR Inten    --      3.0750                55.7640                83.7015

                     58                     59                     60
                      A                      A                      A
 Frequencies --   1475.8630              1501.0376              1521.9839
 Red. masses --      3.8271                 1.2705                 1.0474
 Frc consts  --      4.9115                 1.6865                 1.4295
 IR Inten    --    139.4838                 9.1833                 6.1585

                     61                     62                     63
                      A                      A                      A
 Frequencies --   1525.1861              1534.6751              1546.2126
 Red. masses --      1.0975                 1.0829                 2.8777
 Frc consts  --      1.5042                 1.5027                 4.0535
 IR Inten    --      7.5977                43.9118                89.4135

                     64                     65                     66
                      A                      A                      A
 Frequencies --   1623.8148              1668.4200              1678.3594
 Red. masses --      6.3064                 6.6796                 7.4790
 Frc consts  --      9.7973                10.9550                12.4127
 IR Inten    --     88.8709                30.4660                20.3737

                     67                     68                     69
                      A                      A                      A
 Frequencies --   1826.5993              2660.8885              3028.8655
 Red. masses --      9.7901                 1.0398                 1.0348
 Frc consts  --     19.2453                 4.3376                 5.5934
 IR Inten    --    321.3130                21.8398                56.6032

                     70                     71                     72
                      A                      A                      A
 Frequencies --   3036.6610              3089.0961              3095.0735
 Red. masses --      1.0675                 1.1068                 1.0974
 Frc consts  --      5.7996                 6.2228                 6.1937
 IR Inten    --     44.8653                40.1069                 7.0854

                     73                     74                     75
                      A                      A                      A
 Frequencies --   3165.0914              3222.5326              3236.5579
 Red. masses --      1.0999                 1.0883                 1.0911
 Frc consts  --      6.4918                 6.6590                 6.7344
 IR Inten    --     25.1252                 6.6175                 2.5147

                     76                     77                     78
                      A                      A                      A
 Frequencies --   3236.9580              3242.1206              3685.7158
 Red. masses --      1.0936                 1.0947                 1.0638
 Frc consts  --      6.7510                 6.7799                 8.5142
 IR Inten    --      5.1504                 4.7818                61.6513

 - Thermochemistry -
 -------------------
 Temperature   298.150 Kelvin.  Pressure   1.00000 Atm.
 Atom     1 has atomic number  6 and mass  12.00000

 Molecular mass:   253.05211 amu.
 Principal axes and moments of inertia in atomic units:
                           1         2         3
     Eigenvalues --  2653.323985992.203848017.63094
           X            0.99945   0.03286  -0.00322
           Y           -0.03286   0.99946  -0.00120
           Z            0.00318   0.00131   0.99999
 This molecule is an asymmetric top.
 Rotational symmetry number  1.
 Warning -- assumption of classical behavior for rotation
           may cause significant error
 Rotational temperatures (Kelvin)      0.03264     0.01445     0.01080
 Rotational constants (GHZ):           0.68018     0.30118     0.22510
 Zero-point vibrational energy     547015.3 (Joules/Mol)
                                  130.73979 (Kcal/Mol)
 Warning -- explicit consideration of  24 degrees of freedom as
           vibrations may cause significant error
 Vibrational temperatures:     32.90    73.89    80.26   119.96   136.52
          (Kelvin)            198.83   219.65   248.15   284.00   299.36
                              330.77   364.67   408.73   448.29   508.96
                              521.04   554.05   616.97   639.74   681.91
                              725.52   818.47   826.52   872.27   908.20
                              931.34   936.13  1049.71  1076.70  1089.55
                             1145.24  1175.21  1208.13  1239.95  1301.43
                             1314.98  1356.91  1381.44  1393.18  1444.53
                             1497.88  1529.66  1544.55  1572.31  1622.31
                             1681.35  1706.70  1730.11  1742.94  1766.67
                             1830.71  1873.32  1891.89  1918.43  1948.67
                             1954.34  2001.15  2123.44  2159.66  2189.80
                             2194.40  2208.06  2224.66  2336.31  2400.48
                             2414.78  2628.07  3828.43  4357.86  4369.08
                             4444.52  4453.12  4553.86  4636.51  4656.68
                             4657.26  4664.69  5302.92

 Zero-point correction=                           0.208347 (Hartree/Particle)
 Thermal correction to Energy=                    0.224239
 Thermal correction to Enthalpy=                  0.225183
 Thermal correction to Gibbs Free Energy=         0.163763
 Sum of electronic and zero-point Energies=          -1175.542029
 Sum of electronic and thermal Energies=             -1175.526137
 Sum of electronic and thermal Enthalpies=           -1175.525193
 Sum of electronic and thermal Free Energies=        -1175.586614

                     E (Thermal)             CV                S
                      KCal/Mol        Cal/Mol-Kelvin    Cal/Mol-Kelvin
 Total                  140.712             59.386            129.271
 Electronic               0.000              0.000              0.000
 Translational            0.889              2.981             42.485
 Rotational               0.889              2.981             33.210
 Vibrational            138.935             53.425             53.575
 Vibration     1          0.593              1.985              6.368
 Vibration     2          0.596              1.977              4.765
 Vibration     3          0.596              1.975              4.601
 Vibration     4          0.600              1.961              3.810
 Vibration     5          0.603              1.953              3.557
 Vibration     6          0.614              1.915              2.829
 Vibration     7          0.619              1.900              2.639
 Vibration     8          0.626              1.876              2.408
 Vibration     9          0.637              1.844              2.157
 Vibration    10          0.641              1.828              2.061
 Vibration    11          0.652              1.795              1.880
 Vibration    12          0.665              1.757              1.706
 Vibration    13          0.682              1.703              1.509
 Vibration    14          0.700              1.652              1.354
 Vibration    15          0.730              1.568              1.149
 Vibration    16          0.736              1.550              1.113
 Vibration    17          0.754              1.502              1.019
 Vibration    18          0.790              1.408              0.863
 Vibration    19          0.804              1.373              0.812
 Vibration    20          0.831              1.308              0.727
 Vibration    21          0.860              1.241              0.648
 Vibration    22          0.925              1.099              0.506
 Vibration    23          0.931              1.086              0.496
 Vibration    24          0.965              1.019              0.439

 Optimization completed.
    -- Stationary point found.
 Normal termination of Gaussian 16 at Fri Dec 11 13:22:40 2020.

 ----------------------------------------------------------------------
 # B3LYP/6-311++G(d,p) empiricaldispersion=gd3bj scf=xqc pop=npa geom=c
 heck
 ----------------------------------------------------------------------

 ---------------------------------------
 CID_148102012_JID_7719_Energie_neutraal
 ---------------------------------------
 Structure from the checkpoint file:  "JID_7719.chk"
 Charge =  0 Multiplicity = 1

 SCF Done:  E(RB3LYP) =  -1176.00227903     A.U. after   17 cycles
 Normal termination of Gaussian 16 at Fri Dec 11 13:26:51 2020.

 ----------------------------------------------------------------------
 # B3LYP/6-311++G(d,p) empiricaldispersion=gd3bj scf=xqc pop=npa geom=c
 heck
 ----------------------------------------------------------------------

 -------------------------------------
 CID_148102012_JID_7719_Energie_kation
 -------------------------------------
 Structure from the checkpoint file:  "JID_7719.chk"
 Charge =  1 Multiplicity = 2

 SCF Done:  E(UB3LYP) =  -1175.72872969     A.U. after   25 cycles
 Normal termination of Gaussian 16 at Fri Dec 11 13:35:20 2020.
 Gaussian 16:  ES64L-G16RevA.03 25-Dec-2016

 ----------------------------------------------------------------------
 # B3LYP/6-311++G(d,p) empiricaldispersion=gd3bj scf=xqc pop=npa geom=c
 heck
 ----------------------------------------------------------------------

 ------------------------------------
 CID_148102012_JID_7719_Energie_anion
 ------------------------------------
 Structure from the checkpoint file:  "JID_7719.chk"
 Charge = -1 Multiplicity = 2

                         Standard orientation:
 ---------------------------------------------------------------------
 Center     Atomic      Atomic             Coordinates (Angstroms)
 Number     Number       Type             X           Y           Z
 ---------------------------------------------------------------------
      1          6           0       -5.005588   -1.231471   -0.042372
      2          8           0       -4.198418   -0.074265   -0.194697
      3          6           0       -2.856611   -0.204536   -0.010633
      4          6           0       -2.107156    0.967689   -0.155147
      5          6           0       -0.720209    0.956011   -0.018609
      6          6           0       -0.064318   -0.240368    0.342525
      7          6           0       -0.825726   -1.396696    0.502890
      8          6           0       -2.206373   -1.401202    0.308064
      9          7           0        1.328906   -0.363338    0.627864
     10          7           0        1.921565    0.583841    1.423671
     11          6           0        3.092998    0.841950    0.973287
     12          6           0        3.390301    0.154027   -0.333485
     13          7           0        2.193603   -0.710494   -0.508496
     14         16           0        2.565225   -2.437790   -0.461775
     15          6           0       -0.048567    2.259558   -0.286903
     16          8           0       -0.538807    3.344759   -0.056577
     17          8           0        1.150434    2.133302   -0.905772
     18          1           0       -6.030457   -0.907217   -0.228135
     19          1           0       -4.931316   -1.641434    0.973139
     20          1           0       -4.732594   -2.009512   -0.767152
     21          1           0       -2.614720    1.895108   -0.393355
     22          1           0       -0.312970   -2.302110    0.807378
     23          1           0       -2.758851   -2.324000    0.437264
     24          1           0        3.761398    1.502986    1.512024
     25          1           0        4.307704   -0.442532   -0.322438
     26          1           0        3.457646    0.873993   -1.159900
     27          1           0        2.030182   -2.717266   -1.670309
     28          1           0        1.473674    3.046416   -1.022714
 ---------------------------------------------------------------------

 SCF Done:  E(UB3LYP) =  -1176.00298887     A.U. after   33 cycles
 SCF Done:  E(UB3LYP) =  -1176.00298901     a.u. after    3 cycles

 The electronic state is 2-A.
 Alpha  occ. eigenvalues --  -88.76425 -19.03854 -19.02658 -18.95528 -14.25981
 Alpha  occ. eigenvalues --  -14.25798 -14.23589 -10.14155 -10.12236 -10.10736
 Alpha  occ. eigenvalues --  -10.10260 -10.09262 -10.07198 -10.04423 -10.03971
 Alpha  occ. eigenvalues --  -10.03579 -10.02932  -7.84938  -5.81386  -5.80972
 Alpha  occ. eigenvalues --   -5.80252  -0.96541  -0.95556  -0.94190  -0.86989
 Alpha  occ. eigenvalues --   -0.78904  -0.74705  -0.70212  -0.63582  -0.63104
 Alpha  occ. eigenvalues --   -0.62649  -0.58244  -0.53183  -0.52384  -0.49655
 Alpha  occ. eigenvalues --   -0.46570  -0.45280  -0.41758  -0.40761  -0.39454
 Alpha  occ. eigenvalues --   -0.37222  -0.36445  -0.34914  -0.34751  -0.34285
 Alpha  occ. eigenvalues --   -0.33801  -0.31777  -0.30761  -0.29938  -0.29379
 Alpha  occ. eigenvalues --   -0.28595  -0.27472  -0.26619  -0.26240  -0.25773
 Alpha  occ. eigenvalues --   -0.23738  -0.21188  -0.20642  -0.19754  -0.18754
 Alpha  occ. eigenvalues --   -0.17386  -0.14939  -0.14294  -0.12487  -0.10767
 Alpha  occ. eigenvalues --   -0.08760   0.04782
 Alpha virt. eigenvalues --    0.06544   0.06887   0.07498   0.08408   0.09224
 Alpha virt. eigenvalues --    0.09355   0.09967   0.10205   0.10640   0.11501
 Alpha virt. eigenvalues --    0.11809   0.12219   0.12356   0.13999   0.14588

  Beta  occ. eigenvalues --  -88.76424 -19.03839 -19.02589 -18.95272 -14.25921
  Beta  occ. eigenvalues --  -14.25769 -14.23570 -10.13909 -10.12222 -10.10720
  Beta  occ. eigenvalues --  -10.10278 -10.09262 -10.07091 -10.04460 -10.03762
  Beta  occ. eigenvalues --  -10.03337 -10.02769  -7.84936  -5.81388  -5.80970
  Beta  occ. eigenvalues --   -5.80249  -0.96258  -0.95526  -0.94109  -0.86599
  Beta  occ. eigenvalues --   -0.78815  -0.74482  -0.70013  -0.63484  -0.62787
  Beta  occ. eigenvalues --   -0.62397  -0.58065  -0.52858  -0.52065  -0.49588
  Beta  occ. eigenvalues --   -0.46380  -0.45094  -0.41626  -0.40695  -0.39361
  Beta  occ. eigenvalues --   -0.37087  -0.36388  -0.34688  -0.34645  -0.34030
  Beta  occ. eigenvalues --   -0.33687  -0.31211  -0.30677  -0.29839  -0.28785
  Beta  occ. eigenvalues --   -0.28569  -0.27318  -0.26466  -0.25988  -0.25418
  Beta  occ. eigenvalues --   -0.23597  -0.21048  -0.20221  -0.19716  -0.17958
  Beta  occ. eigenvalues --   -0.17025  -0.14871  -0.13882  -0.11247  -0.10151
  Beta  occ. eigenvalues --   -0.08431
  Beta virt. eigenvalues --    0.06686   0.07014   0.07621   0.08465   0.09234
  Beta virt. eigenvalues --    0.09393   0.09733   0.10224   0.10520   0.10784
  Beta virt. eigenvalues --    0.11476   0.11879   0.12202   0.12408   0.13982

 Mulliken charges and spin densities:
               1          2
     1  C   -0.006609  -0.292041
     2  O   -0.179739   0.018711
     3  C   -0.943191   0.116804
     4  C   -0.092830   0.034840
     5  C    1.580527   0.010394
     6  C   -2.244657   0.117134
     7  C    0.197315  -0.223481
     8  C    0.368433   0.383670
     9  N    0.720637   0.033513
    10  N   -0.463076   0.006657
    11  C   -0.190804   0.039284
    12  C    0.107723  -0.351531
    13  N   -0.143216   0.014020
    14  S   -0.078487  -0.046739
    15  C    0.307551   0.033730
    16  O   -0.357958   0.089432
    17  O   -0.236314   0.001691
    18  H    0.018732   0.135794
    19  H    0.076575   0.060676
    20  H   -0.052062   0.193595
    21  H    0.185242  -0.013887
    22  H    0.077167   0.041018
    23  H    0.080122   0.061596
    24  H   -0.088662   0.248384
    25  H    0.047852   0.083495
    26  H    0.065723   0.089713
    27  H    0.017789   0.062761
    28  H    0.226220   0.050766
 Sum of Mulliken charges =  -1.00000   1.00000

 Dipole moment (field-independent basis, Debye):
    X=              2.3641    Y=             -3.2008    Z=             -1.1239  Tot=              4.1349
 Quadrupole moment (field-independent basis, Debye-Ang):
   XX=           -142.6129   YY=           -140.2947   ZZ=           -120.7297
   XY=              7.1780   XZ=             -2.5343   YZ=             -2.7634

 Summary of Natural Population Analysis:

                                       Natural Population
                Natural  -----------------------------------------------
    Atom  No    Charge         Core      Valence    Rydberg      Total
 -----------------------------------------------------------------------
      C    1   -0.09871      0.99961     2.09108    0.00803     3.09871
      O    2   -0.27445      0.99985     3.26543    0.00917     4.27445
      C    3    0.15013      0.99938     1.83601    0.01448     2.84987
      C    4   -0.06904      0.99951     2.06109    0.00845     3.06904
      C    5   -0.03024      0.99942     2.02150    0.00932     3.03024
      C    6    0.08480      0.99940     1.90321    0.01259     2.91520
      C    7   -0.10058      0.99954     2.09154    0.00950     3.10058
      C    8   -0.10730      0.99953     2.09865    0.00912     3.10730
      N    9   -0.08094      0.99965     2.56315    0.01814     3.58094
      N   10   -0.10405      0.99968     2.59336    0.01101     3.60405
      C   11   -0.00361      0.99966     1.98737    0.01658     3.00361
      C   12   -0.11866      0.99962     2.10731    0.01174     3.11866
      N   13   -0.22347      0.99977     2.70984    0.01386     3.72347
      S   14    0.05787      4.99963     2.92337    0.01913     7.94213
      C   15    0.43189      0.99967     1.54404    0.02440     2.56811
      O   16   -0.29987      0.99987     3.29454    0.00545     4.29987
      O   17   -0.35206      0.99988     3.34447    0.00771     4.35206
      H   18    0.08771      0.00000     0.41119    0.00110     0.41229
      H   19    0.08124      0.00000     0.41703    0.00172     0.41876
      H   20    0.08177      0.00000     0.41611    0.00212     0.41823
      H   21    0.10816      0.00000     0.39067    0.00117     0.39184
      H   22    0.10276      0.00000     0.39588    0.00136     0.39724
      H   23    0.09502      0.00000     0.40374    0.00124     0.40498
      H   24    0.09364      0.00000     0.40523    0.00113     0.40636
      H   25    0.09952      0.00000     0.39893    0.00155     0.40048
      H   26    0.10278      0.00000     0.39559    0.00163     0.39722
      H   27    0.05398      0.00000     0.44252    0.00350     0.44602
      H   28    0.23170      0.00000     0.26396    0.00433     0.26830
 =======================================================================
   * Total *    0.00000     20.99366    44.77680    0.22954    66.00000

 Normal termination of Gaussian 16 at Fri Dec 11 14:15:57 2020.
