 Gaussian 16, Revision A.03,

 -----------------------------------------------------------
 # opt freq B3LYP/6-31G(d) empiricaldispersion=gd3bj scf=xqc
 -----------------------------------------------------------

 ----------------------------
 CID_315690_JID_2760_neutraal
 ----------------------------
 Symbolic Z-matrix:
 Charge =  0 Multiplicity = 1

 SCF Done:  E(RB3LYP) =  -918.527266350     A.U. after   14 cycles
 SCF Done:  E(RB3LYP) =  -918.532422618     A.U. after   12 cycles
 SCF Done:  E(RB3LYP) =  -918.531538271     A.U. after   13 cycles
 SCF Done:  E(RB3LYP) =  -918.529253531     A.U. after   13 cycles
 SCF Done:  E(RB3LYP) =  -918.530391442     A.U. after   12 cycles
 SCF Done:  E(RB3LYP) =  -918.532944775     A.U. after    9 cycles
 SCF Done:  E(RB3LYP) =  -918.533758231     A.U. after   12 cycles
 SCF Done:  E(RB3LYP) =  -918.534731950     A.U. after   11 cycles
 SCF Done:  E(RB3LYP) =  -918.535012883     A.U. after   13 cycles
 SCF Done:  E(RB3LYP) =  -918.535803751     A.U. after   12 cycles
 SCF Done:  E(RB3LYP) =  -918.541090841     A.U. after    9 cycles
 SCF Done:  E(RB3LYP) =  -918.541092304     A.U. after    8 cycles
 SCF Done:  E(RB3LYP) =  -918.541092340     A.U. after    8 cycles
 SCF Done:  E(RB3LYP) =  -918.541092942     A.U. after    8 cycles
 SCF Done:  E(RB3LYP) =  -918.541093066     A.U. after    7 cycles
 SCF Done:  E(RB3LYP) =  -918.541092845     A.U. after    7 cycles
 Optimization completed.
    -- Stationary point found.
 Normal termination of Gaussian 16 at Wed Dec  9 18:03:04 2020.

 --------------------------------------------------------------------
 #N Geom=AllCheck Guess=TCheck SCRF=Check GenChk RB3LYP/6-31G(d) Freq
 --------------------------------------------------------------------

 Structure from the checkpoint file:  "JID_2760.chk"
 ----------------------------
 CID_315690_JID_2760_neutraal
 ----------------------------
 Charge =  0 Multiplicity = 1

 SCF Done:  E(RB3LYP) =  -918.541092845     A.U. after    1 cycles

  Exact polarizability: 135.311  -0.578  99.715   7.562  -3.089 104.930
 Approx polarizability: 164.568  -2.129 150.460  10.243  -8.254 166.891

                      1                      2                      3
                      A                      A                      A
 Frequencies --     30.5701                43.1624                52.1998
 Red. masses --      3.9662                 7.1682                 4.4304
 Frc consts  --      0.0022                 0.0079                 0.0071
 IR Inten    --      0.4459                 0.9148                 2.3635

                      4                      5                      6
                      A                      A                      A
 Frequencies --     78.0250               105.2772               127.6268
 Red. masses --      2.9059                 4.0776                 2.6395
 Frc consts  --      0.0104                 0.0266                 0.0253
 IR Inten    --      2.0365                 0.4746                 1.8584

                      7                      8                      9
                      A                      A                      A
 Frequencies --    165.4294               220.8768               241.8675
 Red. masses --      3.3632                 2.2873                 1.2405
 Frc consts  --      0.0542                 0.0657                 0.0428
 IR Inten    --      0.1938                 1.1068                 0.6888

                     10                     11                     12
                      A                      A                      A
 Frequencies --    255.6334               262.2388               266.3886
 Red. masses --      2.0267                 2.7964                 1.8354
 Frc consts  --      0.0780                 0.1133                 0.0767
 IR Inten    --      1.9044                 0.0484                 4.2496

                     13                     14                     15
                      A                      A                      A
 Frequencies --    289.5428               312.1279               335.8693
 Red. masses --      1.2862                 1.6317                 2.2884
 Frc consts  --      0.0635                 0.0937                 0.1521
 IR Inten    --     50.3786                 1.0444                 0.6505

                     16                     17                     18
                      A                      A                      A
 Frequencies --    359.0123               396.6937               428.7373
 Red. masses --      2.7070                 3.1641                 2.1820
 Frc consts  --      0.2056                 0.2934                 0.2363
 IR Inten    --      2.6651                25.8975                 0.2841

                     19                     20                     21
                      A                      A                      A
 Frequencies --    454.6227               513.6985               610.7847
 Red. masses --      2.5304                 3.9376                 1.9555
 Frc consts  --      0.3081                 0.6122                 0.4298
 IR Inten    --      3.7325                11.9390                29.8027

                     22                     23                     24
                      A                      A                      A
 Frequencies --    626.3701               641.8693               675.8903
 Red. masses --      1.5927                 3.8207                 4.5795
 Frc consts  --      0.3682                 0.9275                 1.2326
 IR Inten    --     72.8777                 0.8471                 6.7681

                     25                     26                     27
                      A                      A                      A
 Frequencies --    719.9669               785.4571               786.6362
 Red. masses --      3.2275                 4.3400                 1.3890
 Frc consts  --      0.9857                 1.5776                 0.5064
 IR Inten    --     22.6579                28.5172                 1.8023

                     28                     29                     30
                      A                      A                      A
 Frequencies --    845.1598               870.7692               893.4135
 Red. masses --      1.6268                 1.9940                 2.3147
 Frc consts  --      0.6847                 0.8908                 1.0886
 IR Inten    --     23.3777                12.7553                15.6170

                     31                     32                     33
                      A                      A                      A
 Frequencies --    902.4902               908.2599               972.3540
 Red. masses --      1.7232                 1.8577                 1.5266
 Frc consts  --      0.8269                 0.9029                 0.8504
 IR Inten    --     11.1966                21.7013                93.1951

                     34                     35                     36
                      A                      A                      A
 Frequencies --   1023.6851              1050.9313              1064.4119
 Red. masses --      1.5818                 2.7546                 1.6122
 Frc consts  --      0.9767                 1.7925                 1.0762
 IR Inten    --     19.7297                 2.2263                 1.3954

                     37                     38                     39
                      A                      A                      A
 Frequencies --   1077.8659              1091.9250              1117.3321
 Red. masses --      1.6823                 1.9040                 1.5973
 Frc consts  --      1.1516                 1.3375                 1.1749
 IR Inten    --      5.5887                 5.9794                 2.3970

                     40                     41                     42
                      A                      A                      A
 Frequencies --   1137.6048              1169.8925              1211.2123
 Red. masses --      2.8154                 1.4652                 1.6503
 Frc consts  --      2.1467                 1.1815                 1.4265
 IR Inten    --    219.4825                30.6895                51.9781

                     43                     44                     45
                      A                      A                      A
 Frequencies --   1238.9322              1259.1711              1293.0195
 Red. masses --      1.3727                 1.2697                 1.2868
 Frc consts  --      1.2414                 1.1861                 1.2675
 IR Inten    --     12.6275                 3.0234                 5.6099

                     46                     47                     48
                      A                      A                      A
 Frequencies --   1315.6620              1328.9211              1352.6273
 Red. masses --      1.3995                 1.4784                 1.2672
 Frc consts  --      1.4273                 1.5383                 1.3660
 IR Inten    --     13.6624                13.7830                 8.3013

                     49                     50                     51
                      A                      A                      A
 Frequencies --   1370.0119              1378.1743              1397.3906
 Red. masses --      2.1546                 1.3745                 1.3988
 Frc consts  --      2.3827                 1.5382                 1.6093
 IR Inten    --     13.3500                 0.5484                 5.7195

                     52                     53                     54
                      A                      A                      A
 Frequencies --   1410.2438              1433.7932              1438.3820
 Red. masses --      1.5393                 1.2579                 1.2784
 Frc consts  --      1.8036                 1.5236                 1.5583
 IR Inten    --      0.2652                 8.4481                 6.8646

                     55                     56                     57
                      A                      A                      A
 Frequencies --   1489.4112              1507.8135              1509.0067
 Red. masses --      1.0850                 1.0769                 1.0775
 Frc consts  --      1.4181                 1.4425                 1.4456
 IR Inten    --      6.8723                 3.1677                 3.1728

                     58                     59                     60
                      A                      A                      A
 Frequencies --   1512.2089              1520.5875              1530.3094
 Red. masses --      1.0783                 1.0606                 1.0510
 Frc consts  --      1.4528                 1.4449                 1.4502
 IR Inten    --      0.3810                 4.1558                 3.0931

                     61                     62                     63
                      A                      A                      A
 Frequencies --   1532.4874              1542.5672              1703.3560
 Red. masses --      1.0566                 1.0524                 1.0892
 Frc consts  --      1.4621                 1.4754                 1.8619
 IR Inten    --     14.0819                 6.5188                40.5362

                     64                     65                     66
                      A                      A                      A
 Frequencies --   1835.3724              3026.0492              3043.5159
 Red. masses --     10.0808                 1.0655                 1.0388
 Frc consts  --     20.0076                 5.7485                 5.6696
 IR Inten    --    255.2167                38.8365                19.4120

                     67                     68                     69
                      A                      A                      A
 Frequencies --   3055.0440              3062.8089              3066.9614
 Red. masses --      1.0633                 1.0375                 1.0684
 Frc consts  --      5.8469                 5.7340                 5.9213
 IR Inten    --     18.6161                11.7168                22.9536

                     70                     71                     72
                      A                      A                      A
 Frequencies --   3073.4892              3083.2071              3103.6813
 Red. masses --      1.0883                 1.0700                 1.0958
 Frc consts  --      6.0573                 5.9930                 6.2193
 IR Inten    --     15.1656                10.3224                20.7360

                     73                     74                     75
                      A                      A                      A
 Frequencies --   3108.8078              3122.9691              3125.0971
 Red. masses --      1.1004                 1.1028                 1.1037
 Frc consts  --      6.2657                 6.3370                 6.3507
 IR Inten    --     51.8127                23.7868                21.5175

                     76                     77                     78
                      A                      A                      A
 Frequencies --   3130.7735              3151.3334              3157.3246
 Red. masses --      1.0998                 1.1023                 1.0996
 Frc consts  --      6.3512                 6.4499                 6.4584
 IR Inten    --     22.6662                12.6962                13.1526

                     79                     80                     81
                      A                      A                      A
 Frequencies --   3465.9657              3547.7277              3675.3709
 Red. masses --      1.0501                 1.0919                 1.0641
 Frc consts  --      7.4325                 8.0972                 8.4690
 IR Inten    --      0.5201                 2.8687                45.7682

 - Thermochemistry -
 -------------------
 Temperature   298.150 Kelvin.  Pressure   1.00000 Atm.
 Atom     1 has atomic number  6 and mass  12.00000

 Molecular mass:   191.09800 amu.
 Principal axes and moments of inertia in atomic units:
                           1         2         3
     Eigenvalues --  1138.562594859.486474912.76179
           X            0.99992   0.00945   0.00816
           Y           -0.00786   0.98425  -0.17659
           Z           -0.00970   0.17651   0.98425
 This molecule is an asymmetric top.
 Rotational symmetry number  1.
 Warning -- assumption of classical behavior for rotation
           may cause significant error
 Rotational temperatures (Kelvin)      0.07607     0.01782     0.01763
 Rotational constants (GHZ):           1.58510     0.37139     0.36736
 Zero-point vibrational energy     664067.8 (Joules/Mol)
                                  158.71600 (Kcal/Mol)
 Warning -- explicit consideration of  21 degrees of freedom as
           vibrations may cause significant error
 Vibrational temperatures:     43.98    62.10    75.10   112.26   151.47
          (Kelvin)            183.63   238.02   317.79   347.99   367.80
                              377.30   383.27   416.59   449.08   483.24
                              516.54   570.75   616.86   654.10   739.10
                              878.78   901.21   923.51   972.46  1035.87
                             1130.10  1131.79  1216.00  1252.84  1285.42
                             1298.48  1306.78  1399.00  1472.85  1512.06
                             1531.45  1550.81  1571.04  1607.59  1636.76
                             1683.21  1742.66  1782.55  1811.67  1860.37
                             1892.94  1912.02  1946.13  1971.14  1982.89
                             2010.53  2029.03  2062.91  2069.51  2142.93
                             2169.41  2171.12  2175.73  2187.79  2201.77
                             2204.91  2219.41  2450.75  2640.69  4353.81
                             4378.94  4395.53  4406.70  4412.67  4422.07
                             4436.05  4465.51  4472.88  4493.26  4496.32
                             4504.48  4534.07  4542.69  4986.75  5104.39
                             5288.04

 Zero-point correction=                           0.252930 (Hartree/Particle)
 Thermal correction to Energy=                    0.267733
 Thermal correction to Enthalpy=                  0.268677
 Thermal correction to Gibbs Free Energy=         0.210279
 Sum of electronic and zero-point Energies=           -918.288163
 Sum of electronic and thermal Energies=              -918.273360
 Sum of electronic and thermal Enthalpies=            -918.272416
 Sum of electronic and thermal Free Energies=         -918.330814

                     E (Thermal)             CV                S
                      KCal/Mol        Cal/Mol-Kelvin    Cal/Mol-Kelvin
 Total                  168.005             54.030            122.910
 Electronic               0.000              0.000              0.000
 Translational            0.889              2.981             41.648
 Rotational               0.889              2.981             31.675
 Vibrational            166.228             48.068             49.586
 Vibration     1          0.594              1.984              5.792
 Vibration     2          0.595              1.980              5.108
 Vibration     3          0.596              1.977              4.732
 Vibration     4          0.599              1.964              3.940
 Vibration     5          0.605              1.945              3.354
 Vibration     6          0.611              1.926              2.982
 Vibration     7          0.624              1.885              2.487
 Vibration     8          0.648              1.809              1.952
 Vibration     9          0.658              1.776              1.789
 Vibration    10          0.666              1.753              1.691
 Vibration    11          0.670              1.742              1.647
 Vibration    12          0.672              1.735              1.620
 Vibration    13          0.686              1.693              1.477
 Vibration    14          0.700              1.651              1.351
 Vibration    15          0.717              1.604              1.232
 Vibration    16          0.734              1.557              1.126
 Vibration    17          0.763              1.477              0.975
 Vibration    18          0.790              1.408              0.863
 Vibration    19          0.813              1.351              0.782
 Vibration    20          0.869              1.220              0.625
 Vibration    21          0.970              1.009              0.431

 Optimization completed.
    -- Stationary point found.
 Normal termination of Gaussian 16 at Wed Dec  9 18:09:45 2020.

 ----------------------------------------------------------------------
 # B3LYP/6-311++G(d,p) empiricaldispersion=gd3bj scf=xqc pop=npa geom=c
 heck
 ----------------------------------------------------------------------

 ------------------------------------
 CID_315690_JID_2760_Energie_neutraal
 ------------------------------------
 Structure from the checkpoint file:  "JID_2760.chk"
 Charge =  0 Multiplicity = 1

 SCF Done:  E(RB3LYP) =  -918.735655821     A.U. after   14 cycles
 Normal termination of Gaussian 16 at Wed Dec  9 18:12:29 2020.

 ----------------------------------------------------------------------
 # B3LYP/6-311++G(d,p) empiricaldispersion=gd3bj scf=xqc pop=npa geom=c
 heck
 ----------------------------------------------------------------------

 ----------------------------------
 CID_315690_JID_2760_Energie_kation
 ----------------------------------
 Structure from the checkpoint file:  "JID_2760.chk"
 Charge =  1 Multiplicity = 2

 SCF Done:  E(UB3LYP) =  -918.435665810     A.U. after   23 cycles
 Normal termination of Gaussian 16 at Wed Dec  9 18:19:17 2020.
 Gaussian 16:  ES64L-G16RevA.03 25-Dec-2016

 ----------------------------------------------------------------------
 # B3LYP/6-311++G(d,p) empiricaldispersion=gd3bj scf=xqc pop=npa geom=c
 heck
 ----------------------------------------------------------------------

 ---------------------------------
 CID_315690_JID_2760_Energie_anion
 ---------------------------------
 Structure from the checkpoint file:  "JID_2760.chk"
 Charge = -1 Multiplicity = 2

                         Standard orientation:
 ---------------------------------------------------------------------
 Center     Atomic      Atomic             Coordinates (Angstroms)
 Number     Number       Type             X           Y           Z
 ---------------------------------------------------------------------
      1          6           0        3.677719    1.418749   -0.103778
      2          6           0        3.772573    0.124583    0.705099
      3          6           0        2.447223   -0.620956    0.879719
      4         16           0        1.702734   -1.271627   -0.673080
      5          6           0        0.668894    0.141267   -1.262471
      6          6           0       -0.846704   -0.085688   -1.162031
      7          6           0       -1.491930    0.308971    0.187475
      8          6           0       -1.517637    1.839485    0.372886
      9          6           0       -2.953445   -0.171236    0.195534
     10          8           0       -3.469561   -0.801163    1.093119
     11          8           0       -3.644273    0.214931   -0.905410
     12          7           0       -0.751791   -0.275660    1.303016
     13          1           0        3.369141    1.216002   -1.134637
     14          1           0        4.646333    1.929097   -0.140650
     15          1           0        2.952003    2.112536    0.339328
     16          1           0        4.503876   -0.545897    0.236963
     17          1           0        4.155676    0.351438    1.710800
     18          1           0        2.601418   -1.507395    1.504704
     19          1           0        1.679847   -0.012778    1.368502
     20          1           0        0.978408    1.036727   -0.721964
     21          1           0        0.936407    0.292780   -2.312261
     22          1           0       -1.346247    0.491561   -1.947028
     23          1           0       -1.061908   -1.140504   -1.373011
     24          1           0       -2.088496    2.326655   -0.422372
     25          1           0       -1.973187    2.097037    1.335613
     26          1           0       -0.495591    2.226870    0.376101
     27          1           0       -4.554081   -0.117093   -0.783622
     28          1           0       -1.350451   -0.264316    2.128287
     29          1           0       -0.563844   -1.258264    1.107137
 ---------------------------------------------------------------------

 SCF Done:  E(UB3LYP) =  -918.722657029     A.U. after   32 cycles

 The electronic state is 2-A.
 Alpha  occ. eigenvalues --  -88.73748 -19.06916 -19.02040 -14.19831 -10.20514
 Alpha  occ. eigenvalues --  -10.12868 -10.10194 -10.09618 -10.08096 -10.07801
 Alpha  occ. eigenvalues --  -10.06807 -10.06482  -7.82369  -5.78758  -5.78392
 Alpha  occ. eigenvalues --   -5.77749  -1.01190  -0.92383  -0.80806  -0.71913
 Alpha  occ. eigenvalues --   -0.69081  -0.65863  -0.61891  -0.58127  -0.55502
 Alpha  occ. eigenvalues --   -0.51043  -0.47812  -0.46579  -0.42011  -0.39550
 Alpha  occ. eigenvalues --   -0.38987  -0.37214  -0.36249  -0.35906  -0.35028
 Alpha  occ. eigenvalues --   -0.33384  -0.32175  -0.31518  -0.30471  -0.29407
 Alpha  occ. eigenvalues --   -0.28488  -0.28300  -0.26405  -0.26125  -0.25458
 Alpha  occ. eigenvalues --   -0.24262  -0.23268  -0.22777  -0.20319  -0.18690
 Alpha  occ. eigenvalues --   -0.16027  -0.12765   0.04392
 Alpha virt. eigenvalues --    0.05975   0.07227   0.07781   0.08131   0.09211
 Alpha virt. eigenvalues --    0.09490   0.09625   0.10146   0.10638   0.10937
 Alpha virt. eigenvalues --    0.11841   0.12203   0.12805   0.13250   0.14195

  Beta  occ. eigenvalues --  -88.73746 -19.06849 -19.02024 -14.19816 -10.20512
  Beta  occ. eigenvalues --  -10.12859 -10.10177 -10.09613 -10.08078 -10.07787
  Beta  occ. eigenvalues --  -10.06771 -10.06451  -7.82366  -5.78755  -5.78388
  Beta  occ. eigenvalues --   -5.77748  -1.01112  -0.92314  -0.80782  -0.71892
  Beta  occ. eigenvalues --   -0.69046  -0.65824  -0.61852  -0.58063  -0.55430
  Beta  occ. eigenvalues --   -0.50970  -0.47748  -0.46519  -0.41961  -0.39513
  Beta  occ. eigenvalues --   -0.38948  -0.37190  -0.36219  -0.35866  -0.34990
  Beta  occ. eigenvalues --   -0.33353  -0.32129  -0.31489  -0.30436  -0.29365
  Beta  occ. eigenvalues --   -0.28450  -0.28263  -0.26373  -0.26093  -0.25423
  Beta  occ. eigenvalues --   -0.24231  -0.23234  -0.22729  -0.20296  -0.18645
  Beta  occ. eigenvalues --   -0.15992  -0.12755
  Beta virt. eigenvalues --    0.06435   0.07261   0.07677   0.08379   0.08816
  Beta virt. eigenvalues --    0.09370   0.09757   0.09882   0.10423   0.10788
  Beta virt. eigenvalues --    0.11409   0.12100   0.12415   0.13014   0.13290

 Mulliken charges and spin densities:
               1          2
     1  C    0.456018  -1.025620
     2  C   -0.631231   0.281088
     3  C   -0.092039  -0.250489
     4  S    0.070926   0.045074
     5  C   -1.095233   1.151624
     6  C    1.400888  -2.142387
     7  C   -0.859046   0.925123
     8  C    0.311049  -0.875599
     9  C    0.937085  -1.024011
    10  O   -0.284143   0.016380
    11  O   -0.223579   0.099337
    12  N   -0.327572   0.017525
    13  H   -0.104519   0.254735
    14  H   -0.410329   0.561762
    15  H   -0.044428   0.190713
    16  H    0.070875   0.042131
    17  H   -0.128963   0.250307
    18  H    0.098863   0.103296
    19  H    0.239488   0.001446
    20  H    0.703818  -0.645709
    21  H   -0.216461   0.485663
    22  H   -0.085888   0.277660
    23  H    0.093428   0.109454
    24  H   -0.142895   0.295990
    25  H   -0.180561   0.346613
    26  H   -0.321859   0.469370
    27  H   -0.566782   0.872612
    28  H    0.206589   0.063419
    29  H    0.126502   0.102493
 Sum of Mulliken charges =  -1.00000   1.00000

 Dipole moment (field-independent basis, Debye):
    X=              3.9271    Y=             -2.5209    Z=              1.6879  Tot=              4.9625
 Quadrupole moment (field-independent basis, Debye-Ang):
   XX=           -179.2728   YY=           -117.1243   ZZ=           -115.9838
   XY=             -7.6134   XZ=             -4.1259   YZ=             -0.5629

 Summary of Natural Population Analysis:

                                       Natural Population
                Natural  -----------------------------------------------
    Atom  No    Charge         Core      Valence    Rydberg      Total
 -----------------------------------------------------------------------
      C    1   -0.28990      0.99967     2.28476    0.00547     3.28990
      C    2   -0.19677      0.99963     2.18701    0.01013     3.19677
      C    3   -0.25207      0.99958     2.24369    0.00880     3.25207
      S    4    0.07170      4.99962     2.91225    0.01643     7.92830
      C    5   -0.25195      0.99958     2.24144    0.01094     3.25195
      C    6   -0.19714      0.99958     2.18556    0.01201     3.19714
      C    7    0.01513      0.99954     1.96971    0.01561     2.98487
      C    8   -0.28460      0.99962     2.27716    0.00782     3.28460
      C    9    0.40878      0.99963     1.56471    0.02688     2.59122
      O   10   -0.31154      0.99987     3.30485    0.00681     4.31154
      O   11   -0.34523      0.99987     3.33726    0.00809     4.34523
      N   12   -0.42622      0.99976     2.91563    0.01083     3.92622
      H   13    0.09985      0.00000     0.39880    0.00136     0.40015
      H   14    0.09985      0.00000     0.39896    0.00118     0.40015
      H   15    0.09676      0.00000     0.40187    0.00137     0.40324
      H   16    0.09428      0.00000     0.40437    0.00135     0.40572
      H   17    0.09555      0.00000     0.40311    0.00135     0.40445
      H   18    0.10137      0.00000     0.39767    0.00096     0.39863
      H   19    0.11819      0.00000     0.38008    0.00173     0.38181
      H   20    0.10913      0.00000     0.38900    0.00187     0.39087
      H   21    0.10555      0.00000     0.39319    0.00126     0.39445
      H   22    0.11292      0.00000     0.38533    0.00175     0.38708
      H   23    0.10343      0.00000     0.39505    0.00152     0.39657
      H   24    0.10766      0.00000     0.39081    0.00153     0.39234
      H   25    0.10240      0.00000     0.39642    0.00118     0.39760
      H   26    0.10364      0.00000     0.39496    0.00140     0.39636
      H   27    0.24588      0.00000     0.22579    0.02833     0.25412
      H   28    0.18277      0.00000     0.31551    0.00172     0.31723
      H   29    0.18058      0.00000     0.31719    0.00223     0.31942
 =======================================================================
   * Total *   -0.00000     15.99595    35.81213    0.19192    52.00000

 Normal termination of Gaussian 16 at Wed Dec  9 18:27:57 2020.
