 Gaussian 16, Revision A.03,

 -----------------------------------------------------------
 # opt freq B3LYP/6-31G(d) empiricaldispersion=gd3bj scf=xqc
 -----------------------------------------------------------

 ------------------------------
 CID_66436997_JID_2545_neutraal
 ------------------------------
 Symbolic Z-matrix:
 Charge =  0 Multiplicity = 1

 SCF Done:  E(RB3LYP) =  -487.841298138     A.U. after   12 cycles
 SCF Done:  E(RB3LYP) =  -487.843494466     A.U. after   10 cycles
 SCF Done:  E(RB3LYP) =  -487.843753106     A.U. after   10 cycles
 SCF Done:  E(RB3LYP) =  -487.843811522     A.U. after   10 cycles
 SCF Done:  E(RB3LYP) =  -487.843820153     A.U. after    9 cycles
 SCF Done:  E(RB3LYP) =  -487.843824131     A.U. after    8 cycles
 SCF Done:  E(RB3LYP) =  -487.843824532     A.U. after    7 cycles
 SCF Done:  E(RB3LYP) =  -487.843824686     A.U. after    6 cycles
 Optimization completed.
    -- Stationary point found.
 Normal termination of Gaussian 16 at Wed Dec  9 17:33:56 2020.

 --------------------------------------------------------------------
 #N Geom=AllCheck Guess=TCheck SCRF=Check GenChk RB3LYP/6-31G(d) Freq
 --------------------------------------------------------------------

 Structure from the checkpoint file:  "JID_2545.chk"
 ------------------------------
 CID_66436997_JID_2545_neutraal
 ------------------------------
 Charge =  0 Multiplicity = 1

 SCF Done:  E(RB3LYP) =  -487.843824686     A.U. after    1 cycles

  Exact polarizability: 133.729  -2.103 114.705  -0.529   0.331 111.472
 Approx polarizability: 165.960  -1.954 164.702  -0.680  -0.876 166.072

                      1                      2                      3
                      A                      A                      A
 Frequencies --     38.6718                84.8359               124.9868
 Red. masses --      2.8167                 2.7175                 2.2402
 Frc consts  --      0.0025                 0.0115                 0.0206
 IR Inten    --      0.1580                 0.4245                 0.6569

                      4                      5                      6
                      A                      A                      A
 Frequencies --    154.6676               169.5143               212.9954
 Red. masses --      2.2308                 2.0675                 1.3938
 Frc consts  --      0.0314                 0.0350                 0.0373
 IR Inten    --      0.1165                 0.6128                 0.5221

                      7                      8                      9
                      A                      A                      A
 Frequencies --    221.0050               237.7243               250.8646
 Red. masses --      1.1609                 1.4312                 1.7327
 Frc consts  --      0.0334                 0.0477                 0.0642
 IR Inten    --      0.1687                 0.2902                 0.6702

                     10                     11                     12
                      A                      A                      A
 Frequencies --    266.6881               271.4656               302.9772
 Red. masses --      1.4529                 1.3884                 2.2792
 Frc consts  --      0.0609                 0.0603                 0.1233
 IR Inten    --      0.2473                 1.1991                 0.0549

                     13                     14                     15
                      A                      A                      A
 Frequencies --    317.3809               334.5981               379.8850
 Red. masses --      1.8167                 2.5090                 2.5354
 Frc consts  --      0.1078                 0.1655                 0.2156
 IR Inten    --      0.1958                 0.0748                 1.7452

                     16                     17                     18
                      A                      A                      A
 Frequencies --    413.9610               436.4828               458.9279
 Red. masses --      2.3030                 1.9363                 2.5412
 Frc consts  --      0.2325                 0.2174                 0.3153
 IR Inten    --      0.1539                 0.7705                 0.6499

                     19                     20                     21
                      A                      A                      A
 Frequencies --    470.2230               510.8126               541.2732
 Red. masses --      2.8638                 2.7759                 2.1513
 Frc consts  --      0.3731                 0.4267                 0.3714
 IR Inten    --      0.7146                 1.0520                 4.4452

                     22                     23                     24
                      A                      A                      A
 Frequencies --    606.5840               735.8524               744.5972
 Red. masses --      2.1639                 2.8186                 1.7184
 Frc consts  --      0.4691                 0.8992                 0.5613
 IR Inten    --     10.3785                17.6084                87.6966

                     25                     26                     27
                      A                      A                      A
 Frequencies --    809.6827               865.7803               881.9434
 Red. masses --      1.9967                 1.5312                 1.7118
 Frc consts  --      0.7713                 0.6762                 0.7845
 IR Inten    --     22.1416                 1.0621                 9.1126

                     28                     29                     30
                      A                      A                      A
 Frequencies --    891.0121               906.9134               928.7413
 Red. masses --      2.2001                 2.0609                 1.7378
 Frc consts  --      1.0291                 0.9987                 0.8832
 IR Inten    --      0.7392                 3.6360                 0.6497

                     31                     32                     33
                      A                      A                      A
 Frequencies --    949.1453               958.3444               982.5640
 Red. masses --      2.1043                 1.5287                 1.7127
 Frc consts  --      1.1169                 0.8272                 0.9742
 IR Inten    --      1.7586                 0.1436                 0.3931

                     34                     35                     36
                      A                      A                      A
 Frequencies --    991.0125              1031.9075              1043.1806
 Red. masses --      1.6499                 1.4061                 1.3088
 Frc consts  --      0.9547                 0.8822                 0.8391
 IR Inten    --      2.9311                 1.9324                 1.4116

                     37                     38                     39
                      A                      A                      A
 Frequencies --   1068.8778              1079.2086              1084.3656
 Red. masses --      1.6326                 1.7551                 1.8851
 Frc consts  --      1.0990                 1.2044                 1.3060
 IR Inten    --      3.5655                 9.2240                 0.4724

                     40                     41                     42
                      A                      A                      A
 Frequencies --   1103.4512              1139.9701              1142.1977
 Red. masses --      2.1412                 1.5494                 1.5894
 Frc consts  --      1.5361                 1.1863                 1.2217
 IR Inten    --      1.1556                 8.6825                 7.7328

                     43                     44                     45
                      A                      A                      A
 Frequencies --   1165.4476              1176.3869              1202.2486
 Red. masses --      2.5004                 1.5779                 1.9894
 Frc consts  --      2.0010                 1.2865                 1.6942
 IR Inten    --     20.7610                21.4380                 4.3018

                     46                     47                     48
                      A                      A                      A
 Frequencies --   1227.8162              1239.0055              1257.6451
 Red. masses --      2.0367                 1.8995                 1.9698
 Frc consts  --      1.8090                 1.7180                 1.8356
 IR Inten    --      4.1424                 5.9897                 1.6004

                     49                     50                     51
                      A                      A                      A
 Frequencies --   1288.9406              1318.7434              1327.5222
 Red. masses --      1.9449                 1.3782                 1.2744
 Frc consts  --      1.9037                 1.4122                 1.3232
 IR Inten    --      3.3709                 7.3856                 0.9007

                     52                     53                     54
                      A                      A                      A
 Frequencies --   1340.0504              1349.6019              1369.2573
 Red. masses --      1.4636                 1.4380                 1.2666
 Frc consts  --      1.5486                 1.5432                 1.3992
 IR Inten    --      4.6861                 1.3514                 7.6560

                     55                     56                     57
                      A                      A                      A
 Frequencies --   1377.6555              1396.8044              1397.7183
 Red. masses --      1.3882                 1.5143                 1.3744
 Frc consts  --      1.5523                 1.7407                 1.5820
 IR Inten    --      2.7317                 0.5390                 3.5908

                     58                     59                     60
                      A                      A                      A
 Frequencies --   1416.3620              1427.3404              1428.9928
 Red. masses --      1.4417                 1.3587                 1.2741
 Frc consts  --      1.7040                 1.6309                 1.5329
 IR Inten    --      0.2432                 3.4914                 1.5984

                     61                     62                     63
                      A                      A                      A
 Frequencies --   1442.1837              1450.0508              1480.7690
 Red. masses --      1.3382                 1.2349                 1.1586
 Frc consts  --      1.6398                 1.5299                 1.4968
 IR Inten    --     16.7436                 6.0814                 1.5632

                     64                     65                     66
                      A                      A                      A
 Frequencies --   1506.6428              1508.1628              1509.3893
 Red. masses --      1.1595                 1.0818                 1.0860
 Frc consts  --      1.5508                 1.4497                 1.4577
 IR Inten    --      8.3368                 0.0384                 0.8317

                     67                     68                     69
                      A                      A                      A
 Frequencies --   1515.2424              1519.7767              1522.6509
 Red. masses --      1.0763                 1.0577                 1.0680
 Frc consts  --      1.4560                 1.4394                 1.4588
 IR Inten    --      1.7962                 3.7193                 7.3552

                     70                     71                     72
                      A                      A                      A
 Frequencies --   1527.3503              1530.4605              1533.2150
 Red. masses --      1.0638                 1.0784                 1.0631
 Frc consts  --      1.4622                 1.4883                 1.4724
 IR Inten    --      7.5668                 5.8638                 1.9412

                     73                     74                     75
                      A                      A                      A
 Frequencies --   1536.0465              1536.9671              1545.7849
 Red. masses --      1.0756                 1.0693                 1.0612
 Frc consts  --      1.4953                 1.4883                 1.4940
 IR Inten    --      4.9453                 3.8254                 4.8683

                     76                     77                     78
                      A                      A                      A
 Frequencies --   1552.9981              2966.7959              3005.0558
 Red. masses --      1.0530                 1.0594                 1.0826
 Frc consts  --      1.4964                 5.4940                 5.7599
 IR Inten    --      8.8847                67.4529                18.6644

                     79                     80                     81
                      A                      A                      A
 Frequencies --   3016.7116              3020.3142              3025.1249
 Red. masses --      1.0617                 1.0595                 1.0637
 Frc consts  --      5.6929                 5.6945                 5.7354
 IR Inten    --     37.0375                22.3178                12.3366

                     82                     83                     84
                      A                      A                      A
 Frequencies --   3032.4707              3035.2306              3035.9797
 Red. masses --      1.0740                 1.0437                 1.0613
 Frc consts  --      5.8189                 5.6649                 5.7637
 IR Inten    --     21.3998                30.4452                25.6388

                     85                     86                     87
                      A                      A                      A
 Frequencies --   3046.7900              3054.5333              3060.1916
 Red. masses --      1.0413                 1.0490                 1.0937
 Frc consts  --      5.6950                 5.7666                 6.0344
 IR Inten    --     26.9157                 4.6840                51.9456

                     88                     89                     90
                      A                      A                      A
 Frequencies --   3061.2215              3067.2149              3068.8868
 Red. masses --      1.0970                 1.0900                 1.0787
 Frc consts  --      6.0569                 6.0416                 5.9856
 IR Inten    --     46.0373                55.2738                45.7573

                     91                     92                     93
                      A                      A                      A
 Frequencies --   3079.0564              3099.6082              3103.9731
 Red. masses --      1.1031                 1.1025                 1.1019
 Frc consts  --      6.1617                 6.2407                 6.2551
 IR Inten    --     86.9350                 2.0744                52.1867

                     94                     95                     96
                      A                      A                      A
 Frequencies --   3106.2863              3111.6401              3120.9904
 Red. masses --      1.1016                 1.1030                 1.0962
 Frc consts  --      6.2626                 6.2924                 6.2913
 IR Inten    --     67.3273                36.8549                32.6962

                     97                     98                     99
                      A                      A                      A
 Frequencies --   3127.2153              3143.0653              3493.7057
 Red. masses --      1.0983                 1.1029                 1.0734
 Frc consts  --      6.3281                 6.4192                 7.7194
 IR Inten    --     38.4072                28.9755                 1.2695

 - Thermochemistry -
 -------------------
 Temperature   298.150 Kelvin.  Pressure   1.00000 Atm.
 Atom     1 has atomic number  6 and mass  12.00000

 Molecular mass:   169.18305 amu.
 Principal axes and moments of inertia in atomic units:
                           1         2         3
     Eigenvalues --  1236.815063331.034283489.91804
           X            0.99997  -0.00655  -0.00303
           Y            0.00631   0.99739  -0.07186
           Z            0.00349   0.07184   0.99741
 This molecule is an asymmetric top.
 Rotational symmetry number  1.
 Warning -- assumption of classical behavior for rotation
           may cause significant error
 Rotational temperatures (Kelvin)      0.07003     0.02600     0.02482
 Rotational constants (GHZ):           1.45918     0.54180     0.51713
 Zero-point vibrational energy     867008.9 (Joules/Mol)
                                  207.22010 (Kcal/Mol)
 Warning -- explicit consideration of  22 degrees of freedom as
           vibrations may cause significant error
 Vibrational temperatures:     55.64   122.06   179.83   222.53   243.89
          (Kelvin)            306.45   317.98   342.03   360.94   383.70
                              390.58   435.92   456.64   481.41   546.57
                              595.60   628.00   660.29   676.55   734.95
                              778.77   872.74  1058.73  1071.31  1164.95
                             1245.66  1268.92  1281.97  1304.85  1336.25
                             1365.61  1378.84  1413.69  1425.85  1484.68
                             1500.90  1537.88  1552.74  1560.16  1587.62
                             1640.16  1643.37  1676.82  1692.56  1729.77
                             1766.55  1782.65  1809.47  1854.50  1897.38
                             1910.01  1928.03  1941.78  1970.06  1982.14
                             2009.69  2011.00  2037.83  2053.62  2056.00
                             2074.98  2086.30  2130.50  2167.72  2169.91
                             2171.67  2180.10  2186.62  2190.76  2197.52
                             2201.99  2205.95  2210.03  2211.35  2224.04
                             2234.42  4268.56  4323.61  4340.38  4345.56
                             4352.48  4363.05  4367.02  4368.10  4383.65
                             4394.79  4402.93  4404.42  4413.04  4415.44
                             4430.08  4459.64  4465.93  4469.25  4476.96
                             4490.41  4499.37  4522.17  5026.66

 Zero-point correction=                           0.330226 (Hartree/Particle)
 Thermal correction to Energy=                    0.343959
 Thermal correction to Enthalpy=                  0.344904
 Thermal correction to Gibbs Free Energy=         0.291130
 Sum of electronic and zero-point Energies=           -487.513598
 Sum of electronic and thermal Energies=              -487.499865
 Sum of electronic and thermal Enthalpies=            -487.498921
 Sum of electronic and thermal Free Energies=         -487.552694

                     E (Thermal)             CV                S
                      KCal/Mol        Cal/Mol-Kelvin    Cal/Mol-Kelvin
 Total                  215.838             53.998            113.175
 Electronic               0.000              0.000              0.000
 Translational            0.889              2.981             41.285
 Rotational               0.889              2.981             31.042
 Vibrational            214.060             48.037             40.847
 Vibration     1          0.594              1.981              5.326
 Vibration     2          0.601              1.960              3.776
 Vibration     3          0.610              1.928              3.022
 Vibration     4          0.620              1.897              2.614
 Vibration     5          0.625              1.880              2.441
 Vibration     6          0.644              1.821              2.018
 Vibration     7          0.648              1.809              1.951
 Vibration     8          0.656              1.783              1.820
 Vibration     9          0.663              1.761              1.724
 Vibration    10          0.672              1.734              1.618
 Vibration    11          0.675              1.726              1.587
 Vibration    12          0.694              1.668              1.400
 Vibration    13          0.704              1.640              1.324
 Vibration    14          0.716              1.606              1.238
 Vibration    15          0.750              1.513              1.040
 Vibration    16          0.778              1.440              0.913
 Vibration    17          0.797              1.391              0.838
 Vibration    18          0.817              1.341              0.769
 Vibration    19          0.827              1.316              0.737
 Vibration    20          0.866              1.226              0.632
 Vibration    21          0.896              1.159              0.563
 Vibration    22          0.965              1.018              0.438

                           ! Non-Optimized Parameters !
 Normal termination of Gaussian 16 at Wed Dec  9 17:44:27 2020.

 ----------------------------------------------------------------------
 # B3LYP/6-311++G(d,p) empiricaldispersion=gd3bj scf=xqc pop=npa geom=c
 heck
 ----------------------------------------------------------------------

 --------------------------------------
 CID_66436997_JID_2545_Energie_neutraal
 --------------------------------------
 Structure from the checkpoint file:  "JID_2545.chk"
 Charge =  0 Multiplicity = 1

 SCF Done:  E(RB3LYP) =  -487.981552825     A.U. after   13 cycles
 Normal termination of Gaussian 16 at Wed Dec  9 17:49:25 2020.

 ----------------------------------------------------------------------
 # B3LYP/6-311++G(d,p) empiricaldispersion=gd3bj scf=xqc pop=npa geom=c
 heck
 ----------------------------------------------------------------------

 ------------------------------------
 CID_66436997_JID_2545_Energie_kation
 ------------------------------------
 Structure from the checkpoint file:  "JID_2545.chk"
 Charge =  1 Multiplicity = 2

 SCF Done:  E(UB3LYP) =  -487.683652131     A.U. after   20 cycles
 Normal termination of Gaussian 16 at Wed Dec  9 17:59:41 2020.
 Gaussian 16:  ES64L-G16RevA.03 25-Dec-2016

 ----------------------------------------------------------------------
 # B3LYP/6-311++G(d,p) empiricaldispersion=gd3bj scf=xqc pop=npa geom=c
 heck
 ----------------------------------------------------------------------

 -----------------------------------
 CID_66436997_JID_2545_Energie_anion
 -----------------------------------
 Structure from the checkpoint file:  "JID_2545.chk"
 Charge = -1 Multiplicity = 2

                         Standard orientation:
 ---------------------------------------------------------------------
 Center     Atomic      Atomic             Coordinates (Angstroms)
 Number     Number       Type             X           Y           Z
 ---------------------------------------------------------------------
      1          6           0        2.063105    1.906863   -0.762358
      2          6           0        1.883261    0.754956    0.230998
      3          6           0        0.532259    0.002310    0.087813
      4          6           0        0.364116   -0.721425   -1.255943
      5          6           0       -0.951043   -1.509910   -1.299954
      6          6           0       -2.153742   -0.602885   -1.009575
      7          6           0       -2.036437    0.172672    0.322726
      8          6           0       -0.678158    0.912456    0.347909
      9          6           0       -2.165945   -0.782464    1.522873
     10          6           0       -3.169456    1.207146    0.404120
     11          7           0        3.075916   -0.096930    0.145816
     12          6           0        3.142168   -1.196178    1.098218
     13          1           0        2.072289    1.543576   -1.797336
     14          1           0        3.019497    2.402888   -0.574755
     15          1           0        1.263104    2.647686   -0.676904
     16          1           0        1.893329    1.183053    1.245214
     17          1           0        0.532500   -0.768067    0.870692
     18          1           0        1.211050   -1.396240   -1.435827
     19          1           0        0.366467    0.013483   -2.073478
     20          1           0       -0.909704   -2.326497   -0.566874
     21          1           0       -1.075117   -1.984349   -2.281439
     22          1           0       -3.082656   -1.188805   -1.012553
     23          1           0       -2.244381    0.127663   -1.826934
     24          1           0       -0.709538    1.697317   -0.420121
     25          1           0       -0.559803    1.426769    1.312572
     26          1           0       -1.401196   -1.564530    1.524914
     27          1           0       -2.076930   -0.230495    2.466395
     28          1           0       -3.144342   -1.277792    1.516059
     29          1           0       -3.112197    1.781819    1.336745
     30          1           0       -3.117329    1.915969   -0.431134
     31          1           0       -4.151578    0.719675    0.370604
     32          1           0        3.169380   -0.454875   -0.802813
     33          1           0        2.358058   -1.966977    0.995348
     34          1           0        4.113905   -1.693307    1.005192
     35          1           0        3.073010   -0.790707    2.114757
 ---------------------------------------------------------------------

 SCF Done:  E(UB3LYP) =  -487.965449051     A.U. after   29 cycles

 The electronic state is 2-A.
 Alpha  occ. eigenvalues --  -14.19357 -10.09527 -10.08345 -10.07763 -10.06277
 Alpha  occ. eigenvalues --  -10.05858 -10.05857 -10.05845 -10.05809 -10.05750
 Alpha  occ. eigenvalues --  -10.05504 -10.05194  -0.80465  -0.74110  -0.68137
 Alpha  occ. eigenvalues --   -0.65760  -0.62178  -0.58312  -0.57341  -0.55843
 Alpha  occ. eigenvalues --   -0.52782  -0.49603  -0.45397  -0.42673  -0.38324
 Alpha  occ. eigenvalues --   -0.36721  -0.36309  -0.34911  -0.34531  -0.34032
 Alpha  occ. eigenvalues --   -0.32187  -0.31584  -0.31275  -0.28909  -0.28414
 Alpha  occ. eigenvalues --   -0.28056  -0.26957  -0.26059  -0.25918  -0.25535
 Alpha  occ. eigenvalues --   -0.25070  -0.23469  -0.23105  -0.22144  -0.20708
 Alpha  occ. eigenvalues --   -0.19927  -0.19189  -0.12139   0.04540
 Alpha virt. eigenvalues --    0.06701   0.07122   0.07331   0.08658   0.09134
 Alpha virt. eigenvalues --    0.09333   0.09636   0.10031   0.10930   0.11397
 Alpha virt. eigenvalues --    0.11742   0.12054   0.12408   0.12760   0.13678

  Beta  occ. eigenvalues --  -14.19345 -10.09519 -10.08315 -10.07762 -10.06271
  Beta  occ. eigenvalues --  -10.05845 -10.05844 -10.05824 -10.05790 -10.05731
  Beta  occ. eigenvalues --  -10.05480 -10.05162  -0.80443  -0.74089  -0.68112
  Beta  occ. eigenvalues --   -0.65728  -0.62150  -0.58256  -0.57294  -0.55784
  Beta  occ. eigenvalues --   -0.52741  -0.49546  -0.45356  -0.42623  -0.38279
  Beta  occ. eigenvalues --   -0.36671  -0.36281  -0.34881  -0.34495  -0.34006
  Beta  occ. eigenvalues --   -0.32156  -0.31551  -0.31249  -0.28880  -0.28382
  Beta  occ. eigenvalues --   -0.28022  -0.26926  -0.26030  -0.25890  -0.25504
  Beta  occ. eigenvalues --   -0.25035  -0.23441  -0.23069  -0.22116  -0.20680
  Beta  occ. eigenvalues --   -0.19894  -0.19156  -0.12118
  Beta virt. eigenvalues --    0.06609   0.07468   0.07678   0.07971   0.09097
  Beta virt. eigenvalues --    0.09578   0.09849   0.10112   0.10468   0.11332
  Beta virt. eigenvalues --    0.11748   0.11986   0.12447   0.12798   0.13166

 Mulliken charges and spin densities:
               1          2
     1  C    0.521112  -1.134146
     2  C   -0.789758  -0.035676
     3  C    0.387947   0.573268
     4  C   -1.496241   1.183713
     5  C    0.344618  -0.723637
     6  C    0.530491  -1.018846
     7  C   -1.211505   2.183894
     8  C    0.649793  -2.015776
     9  C    0.741559  -1.427295
    10  C    0.503690  -1.014288
    11  N   -0.034684   0.103937
    12  C    0.524506  -0.861647
    13  H   -0.045642   0.191744
    14  H    0.025665   0.132373
    15  H   -0.036792   0.188183
    16  H   -0.184539   0.362173
    17  H    1.051942  -0.880990
    18  H   -0.445235   0.585659
    19  H    0.079771   0.056891
    20  H    0.092111   0.040688
    21  H   -0.561881   0.754110
    22  H    0.012144   0.152521
    23  H   -0.089864   0.229621
    24  H    0.301314  -0.170341
    25  H   -0.142006   0.302676
    26  H   -0.292438   0.419421
    27  H   -0.023631   0.170035
    28  H   -0.371412   0.532006
    29  H   -0.073651   0.205261
    30  H   -0.197726   0.328827
    31  H   -0.103864   0.250743
    32  H    0.203176   0.036163
    33  H   -0.313353   0.462523
    34  H   -0.426067   0.568350
    35  H   -0.129551   0.267861
 Sum of Mulliken charges =  -1.00000   1.00000

 Dipole moment (field-independent basis, Debye):
    X=              0.2868    Y=              2.5051    Z=             -0.4853  Tot=              2.5678
 Quadrupole moment (field-independent basis, Debye-Ang):
   XX=           -149.9415   YY=           -124.2511   ZZ=           -120.9045
   XY=              2.5416   XZ=             -1.8760   YZ=             -1.7383

 Summary of Natural Population Analysis:

                                       Natural Population
                Natural  -----------------------------------------------
    Atom  No    Charge         Core      Valence    Rydberg      Total
 -----------------------------------------------------------------------
      C    1   -0.28830      0.99964     2.28332    0.00535     3.28830
      C    2   -0.00181      0.99958     1.98988    0.01234     3.00181
      C    3   -0.11971      0.99956     2.10983    0.01031     3.11971
      C    4   -0.19202      0.99961     2.18232    0.01009     3.19202
      C    5   -0.18731      0.99963     2.17876    0.00892     3.18731
      C    6   -0.18639      0.99959     2.17661    0.01020     3.18639
      C    7   -0.04598      0.99957     2.03395    0.01246     3.04598
      C    8   -0.18691      0.99958     2.17714    0.01019     3.18691
      C    9   -0.28666      0.99962     2.27959    0.00745     3.28666
      C   10   -0.27945      0.99962     2.27360    0.00622     3.27945
      N   11   -0.34200      0.99974     2.82990    0.01236     3.84200
      C   12   -0.17921      0.99966     2.17123    0.00832     3.17921
      H   13    0.09567      0.00000     0.40327    0.00105     0.40433
      H   14    0.10288      0.00000     0.39591    0.00121     0.39712
      H   15    0.10017      0.00000     0.39897    0.00086     0.39983
      H   16    0.08872      0.00000     0.40955    0.00173     0.41128
      H   17    0.09824      0.00000     0.39887    0.00289     0.40176
      H   18    0.09952      0.00000     0.39900    0.00148     0.40048
      H   19    0.09318      0.00000     0.40534    0.00148     0.40682
      H   20    0.09442      0.00000     0.40396    0.00162     0.40558
      H   21    0.09851      0.00000     0.40038    0.00111     0.40149
      H   22    0.10004      0.00000     0.39878    0.00118     0.39996
      H   23    0.09524      0.00000     0.40343    0.00133     0.40476
      H   24    0.09675      0.00000     0.40169    0.00156     0.40325
      H   25    0.09969      0.00000     0.39905    0.00126     0.40031
      H   26    0.10084      0.00000     0.39787    0.00129     0.39916
      H   27    0.09931      0.00000     0.39966    0.00103     0.40069
      H   28    0.09994      0.00000     0.39898    0.00108     0.40006
      H   29    0.09848      0.00000     0.40049    0.00102     0.40152
      H   30    0.09838      0.00000     0.40056    0.00107     0.40162
      H   31    0.09924      0.00000     0.39971    0.00105     0.40076
      H   32    0.17019      0.00000     0.32688    0.00293     0.32981
      H   33    0.08135      0.00000     0.41696    0.00169     0.41865
      H   34    0.09391      0.00000     0.40508    0.00101     0.40609
      H   35    0.09105      0.00000     0.40773    0.00122     0.40895
 =======================================================================
   * Total *    0.00000     11.99540    35.85824    0.14637    48.00000

 Normal termination of Gaussian 16 at Wed Dec  9 18:15:16 2020.
