 Gaussian 16, Revision A.03,

 -----------------------------------------------------------
 # opt freq B3LYP/6-31G(d) empiricaldispersion=gd3bj scf=xqc
 -----------------------------------------------------------

 -------------------------------
 CID_129849462_JID_1678_neutraal
 -------------------------------
 Symbolic Z-matrix:
 Charge =  0 Multiplicity = 1

 SCF Done:  E(RB3LYP) =  -552.577209964     A.U. after   15 cycles
 SCF Done:  E(RB3LYP) =  -552.580579957     A.U. after   12 cycles
 SCF Done:  E(RB3LYP) =  -552.580430903     A.U. after   13 cycles
 SCF Done:  E(RB3LYP) =  -552.581519456     A.U. after   12 cycles
 SCF Done:  E(RB3LYP) =  -552.581761630     A.U. after   12 cycles
 SCF Done:  E(RB3LYP) =  -552.581904215     A.U. after   12 cycles
 SCF Done:  E(RB3LYP) =  -552.581952282     A.U. after   11 cycles
 SCF Done:  E(RB3LYP) =  -552.581973190     A.U. after   11 cycles
 SCF Done:  E(RB3LYP) =  -552.581974259     A.U. after   10 cycles
 SCF Done:  E(RB3LYP) =  -552.581977500     A.U. after   10 cycles
 SCF Done:  E(RB3LYP) =  -552.581978222     A.U. after    9 cycles
 SCF Done:  E(RB3LYP) =  -552.581978389     A.U. after    7 cycles
 SCF Done:  E(RB3LYP) =  -552.581978464     A.U. after    8 cycles
 SCF Done:  E(RB3LYP) =  -552.581978501     A.U. after    7 cycles
 SCF Done:  E(RB3LYP) =  -552.581978518     A.U. after    7 cycles
 Optimization completed.
    -- Stationary point found.
 Normal termination of Gaussian 16 at Tue Dec  8 20:50:58 2020.

 --------------------------------------------------------------------
 #N Geom=AllCheck Guess=TCheck SCRF=Check GenChk RB3LYP/6-31G(d) Freq
 --------------------------------------------------------------------

 Structure from the checkpoint file:  "JID_1678.chk"
 -------------------------------
 CID_129849462_JID_1678_neutraal
 -------------------------------
 Charge =  0 Multiplicity = 1

 SCF Done:  E(RB3LYP) =  -552.581978518     A.U. after    1 cycles

  Exact polarizability:  94.183  -2.785  86.303 -11.226  -2.292  71.978
 Approx polarizability: 146.879  -5.527 140.597 -30.731  -3.284 114.270

                      1                      2                      3
                      A                      A                      A
 Frequencies --     33.6729                58.2843               140.1613
 Red. masses --      6.9150                 5.6211                 4.7635
 Frc consts  --      0.0046                 0.0113                 0.0551
 IR Inten    --      4.7544                 1.4266                 2.6382

                      4                      5                      6
                      A                      A                      A
 Frequencies --    158.4911               243.5240               256.5977
 Red. masses --      5.1429                 3.9258                 3.3291
 Frc consts  --      0.0761                 0.1372                 0.1291
 IR Inten    --      4.7730                 0.7555                 4.7323

                      7                      8                      9
                      A                      A                      A
 Frequencies --    312.9976               331.3271               374.3606
 Red. masses --      1.6049                 2.1850                 4.1207
 Frc consts  --      0.0926                 0.1413                 0.3403
 IR Inten    --     45.7177                26.9150                27.1287

                     10                     11                     12
                      A                      A                      A
 Frequencies --    399.9600               417.2147               435.7100
 Red. masses --      2.2202                 1.2193                 1.7532
 Frc consts  --      0.2093                 0.1250                 0.1961
 IR Inten    --     43.6668               142.0682                63.2986

                     13                     14                     15
                      A                      A                      A
 Frequencies --    488.2125               506.6290               578.2653
 Red. masses --      3.0153                 5.0003                 1.2550
 Frc consts  --      0.4234                 0.7562                 0.2473
 IR Inten    --      9.1233                11.7133                35.0859

                     16                     17                     18
                      A                      A                      A
 Frequencies --    602.4798               628.4468               673.0344
 Red. masses --      3.2017                 5.0144                 4.4587
 Frc consts  --      0.6847                 1.1668                 1.1900
 IR Inten    --     10.4687                 7.3309                 8.4285

                     19                     20                     21
                      A                      A                      A
 Frequencies --    732.3245               774.2535               811.9535
 Red. masses --      1.4794                 4.0827                 4.5043
 Frc consts  --      0.4675                 1.4420                 1.7496
 IR Inten    --     45.1586                16.7070                19.7170

                     22                     23                     24
                      A                      A                      A
 Frequencies --    878.5853               903.7338               915.3285
 Red. masses --      1.5721                 3.1708                 3.7905
 Frc consts  --      0.7150                 1.5258                 1.8711
 IR Inten    --     16.8177                32.7705                 5.0692

                     25                     26                     27
                      A                      A                      A
 Frequencies --    980.9136               983.6391              1022.2143
 Red. masses --      1.2648                 2.8077                 2.5408
 Frc consts  --      0.7170                 1.6006                 1.5643
 IR Inten    --      0.6675                15.0248                10.9227

                     28                     29                     30
                      A                      A                      A
 Frequencies --   1046.0821              1107.6280              1124.3539
 Red. masses --      4.5947                 1.9343                 1.7985
 Frc consts  --      2.9624                 1.3982                 1.3396
 IR Inten    --    110.8572                 2.7666                10.7062

                     31                     32                     33
                      A                      A                      A
 Frequencies --   1191.8462              1243.5642              1244.4579
 Red. masses --      1.0917                 1.2052                 1.3768
 Frc consts  --      0.9136                 1.0981                 1.2562
 IR Inten    --      2.6330                66.9277                73.9175

                     34                     35                     36
                      A                      A                      A
 Frequencies --   1262.8964              1302.2335              1322.4582
 Red. masses --      2.0187                 1.5642                 1.9901
 Frc consts  --      1.8969                 1.5629                 2.0507
 IR Inten    --    139.5959                 3.3406                 1.5774

                     37                     38                     39
                      A                      A                      A
 Frequencies --   1356.6120              1366.7378              1427.6518
 Red. masses --      2.6931                 1.2842                 1.8343
 Frc consts  --      2.9202                 1.4133                 2.2027
 IR Inten    --    101.9722                23.2153                56.6720

                     40                     41                     42
                      A                      A                      A
 Frequencies --   1439.9382              1454.9868              1652.2649
 Red. masses --      1.3822                 1.5646                 1.2241
 Frc consts  --      1.6885                 1.9515                 1.9689
 IR Inten    --     38.2780               103.3523               112.1559

                     43                     44                     45
                      A                      A                      A
 Frequencies --   1670.3318              1740.8662              1813.7143
 Red. masses --      6.7223                 5.6418                 9.1673
 Frc consts  --     11.0502                10.0738                17.7676
 IR Inten    --     36.4385                48.6828               356.7982

                     46                     47                     48
                      A                      A                      A
 Frequencies --   3075.4392              3105.8036              3186.5866
 Red. masses --      1.0856                 1.0849                 1.0860
 Frc consts  --      6.0495                 6.1661                 6.4974
 IR Inten    --     19.5502                 3.4896                 8.9920

                     49                     50                     51
                      A                      A                      A
 Frequencies --   3209.0534              3215.3924              3562.3553
 Red. masses --      1.0921                 1.0954                 1.0456
 Frc consts  --      6.6262                 6.6727                 7.8176
 IR Inten    --     15.6564                10.1381                18.7936

                     52                     53                     54
                      A                      A                      A
 Frequencies --   3687.0927              3715.1602              3728.0973
 Red. masses --      1.1043                 1.0660                 1.0658
 Frc consts  --      8.8455                 8.6692                 8.7280
 IR Inten    --     49.7636                18.0218                73.1188

 - Thermochemistry -
 -------------------
 Temperature   298.150 Kelvin.  Pressure   1.00000 Atm.
 Atom     1 has atomic number  6 and mass  12.00000

 Molecular mass:   155.05824 amu.
 Principal axes and moments of inertia in atomic units:
                           1         2         3
     Eigenvalues --  1110.576662028.857722157.80256
           X            0.99996   0.00709   0.00490
           Y           -0.00689   0.99917  -0.04006
           Z           -0.00518   0.04003   0.99919
 This molecule is an asymmetric top.
 Rotational symmetry number  1.
 Warning -- assumption of classical behavior for rotation
           may cause significant error
 Rotational temperatures (Kelvin)      0.07799     0.04269     0.04014
 Rotational constants (GHZ):           1.62505     0.88954     0.83638
 Zero-point vibrational energy     418070.4 (Joules/Mol)
                                   99.92123 (Kcal/Mol)
 Warning -- explicit consideration of  16 degrees of freedom as
           vibrations may cause significant error
 Vibrational temperatures:     48.45    83.86   201.66   228.03   350.38
          (Kelvin)            369.19   450.33   476.71   538.62   575.45
                              600.28   626.89   702.43   728.93   831.99
                              866.83   904.19   968.35  1053.65  1113.98
                             1168.22  1264.09  1300.27  1316.95  1411.32
                             1415.24  1470.74  1505.08  1593.63  1617.69
                             1714.80  1789.21  1790.50  1817.03  1873.62
                             1902.72  1951.86  1966.43  2054.07  2071.75
                             2093.40  2377.24  2403.23  2504.72  2609.53
                             4424.87  4468.56  4584.79  4617.11  4626.23
                             5125.43  5304.90  5345.29  5363.90

 Zero-point correction=                           0.159235 (Hartree/Particle)
 Thermal correction to Energy=                    0.169808
 Thermal correction to Enthalpy=                  0.170752
 Thermal correction to Gibbs Free Energy=         0.122663
 Sum of electronic and zero-point Energies=           -552.422744
 Sum of electronic and thermal Energies=              -552.412171
 Sum of electronic and thermal Enthalpies=            -552.411227
 Sum of electronic and thermal Free Energies=         -552.459315

                     E (Thermal)             CV                S
                      KCal/Mol        Cal/Mol-Kelvin    Cal/Mol-Kelvin
 Total                  106.556             40.086            101.211
 Electronic               0.000              0.000              0.000
 Translational            0.889              2.981             41.025
 Rotational               0.889              2.981             29.965
 Vibrational            104.778             34.124             30.221
 Vibration     1          0.594              1.983              5.600
 Vibration     2          0.596              1.974              4.514
 Vibration     3          0.615              1.913              2.802
 Vibration     4          0.621              1.893              2.568
 Vibration     5          0.659              1.773              1.777
 Vibration     6          0.666              1.752              1.685
 Vibration     7          0.701              1.649              1.346
 Vibration     8          0.714              1.613              1.254
 Vibration     9          0.745              1.525              1.062
 Vibration    10          0.766              1.470              0.963
 Vibration    11          0.780              1.433              0.901
 Vibration    12          0.796              1.392              0.840
 Vibration    13          0.844              1.276              0.688
 Vibration    14          0.862              1.235              0.642
 Vibration    15          0.935              1.078              0.489
 Vibration    16          0.961              1.027              0.445

                           ! Non-Optimized Parameters !
 Normal termination of Gaussian 16 at Tue Dec  8 20:55:35 2020.

 ----------------------------------------------------------------------
 # B3LYP/6-311++G(d,p) empiricaldispersion=gd3bj scf=xqc pop=npa geom=c
 heck
 ----------------------------------------------------------------------

 ---------------------------------------
 CID_129849462_JID_1678_Energie_neutraal
 ---------------------------------------
 Structure from the checkpoint file:  "JID_1678.chk"
 Charge =  0 Multiplicity = 1

 SCF Done:  E(RB3LYP) =  -552.768897324     A.U. after   15 cycles
 Normal termination of Gaussian 16 at Tue Dec  8 20:58:16 2020.

 ----------------------------------------------------------------------
 # B3LYP/6-311++G(d,p) empiricaldispersion=gd3bj scf=xqc pop=npa geom=c
 heck
 ----------------------------------------------------------------------

 -------------------------------------
 CID_129849462_JID_1678_Energie_kation
 -------------------------------------
 Structure from the checkpoint file:  "JID_1678.chk"
 Charge =  1 Multiplicity = 2

 SCF Done:  E(UB3LYP) =  -552.468814155     A.U. after   23 cycles
 Normal termination of Gaussian 16 at Tue Dec  8 21:03:32 2020.
 Gaussian 16:  ES64L-G16RevA.03 25-Dec-2016

 ----------------------------------------------------------------------
 # B3LYP/6-311++G(d,p) empiricaldispersion=gd3bj scf=xqc pop=npa geom=c
 heck
 ----------------------------------------------------------------------

 ------------------------------------
 CID_129849462_JID_1678_Energie_anion
 ------------------------------------
 Structure from the checkpoint file:  "JID_1678.chk"
 Charge = -1 Multiplicity = 2

                         Standard orientation:
 ---------------------------------------------------------------------
 Center     Atomic      Atomic             Coordinates (Angstroms)
 Number     Number       Type             X           Y           Z
 ---------------------------------------------------------------------
      1          6           0       -0.489494    1.963891   -0.534585
      2          6           0        0.530447    1.290491   -1.092982
      3          6           0        0.769831   -0.162809   -0.759846
      4          6           0       -0.504742   -0.904694   -0.291851
      5          6           0       -1.471000   -0.027128    0.470492
      6          6           0       -1.469425    1.314304    0.333425
      7          8           0       -2.416506   -0.661831    1.216074
      8          8           0       -1.218156   -1.518907   -1.373726
      9          6           0        1.905864   -0.264241    0.283344
     10          8           0        3.008399   -0.703826    0.002605
     11          7           0        1.564162    0.144700    1.544452
     12          1           0       -0.620096    3.024303   -0.733448
     13          1           0        1.251351    1.784873   -1.736527
     14          1           0        1.148193   -0.707039   -1.629249
     15          1           0       -0.203396   -1.747359    0.340152
     16          1           0       -2.238709    1.905132    0.820318
     17          1           0       -2.423890   -1.599285    0.961074
     18          1           0       -1.536140   -0.797768   -1.943152
     19          1           0        0.737079    0.709130    1.688779
     20          1           0        2.317685    0.232737    2.213281
 ---------------------------------------------------------------------

 SCF Done:  E(UB3LYP) =  -552.767775821     A.U. after   30 cycles

 The electronic state is 2-A.
 Alpha  occ. eigenvalues --  -19.01873 -18.99969 -18.96207 -14.20070 -10.14051
 Alpha  occ. eigenvalues --  -10.09975 -10.07317 -10.05074 -10.02411 -10.01847
 Alpha  occ. eigenvalues --  -10.01521  -0.93268  -0.91180  -0.89784  -0.77665
 Alpha  occ. eigenvalues --   -0.69366  -0.61897  -0.59534  -0.51653  -0.47412
 Alpha  occ. eigenvalues --   -0.45361  -0.41880  -0.41132  -0.38437  -0.35889
 Alpha  occ. eigenvalues --   -0.33384  -0.32664  -0.31317  -0.29250  -0.28009
 Alpha  occ. eigenvalues --   -0.27505  -0.25920  -0.24429  -0.23763  -0.22074
 Alpha  occ. eigenvalues --   -0.19226  -0.17339  -0.15987  -0.14952  -0.12670
 Alpha  occ. eigenvalues --   -0.07069   0.05283
 Alpha virt. eigenvalues --    0.08760   0.09110   0.09381   0.10482   0.11252
 Alpha virt. eigenvalues --    0.12537   0.12608   0.14151   0.14542   0.15314
 Alpha virt. eigenvalues --    0.16613   0.17614   0.18703   0.18865   0.19971

  Beta  occ. eigenvalues --  -19.01782 -18.99861 -18.96153 -14.20049 -10.13949
  Beta  occ. eigenvalues --  -10.09966 -10.06932 -10.05096 -10.02285 -10.01860
  Beta  occ. eigenvalues --  -10.01311  -0.92995  -0.91067  -0.89541  -0.77592
  Beta  occ. eigenvalues --   -0.69032  -0.61658  -0.59055  -0.51502  -0.46967
  Beta  occ. eigenvalues --   -0.45178  -0.41686  -0.41030  -0.38219  -0.35709
  Beta  occ. eigenvalues --   -0.33123  -0.32440  -0.31089  -0.29066  -0.27838
  Beta  occ. eigenvalues --   -0.27071  -0.25608  -0.24016  -0.23625  -0.21907
  Beta  occ. eigenvalues --   -0.19050  -0.16593  -0.15685  -0.14721  -0.12477
  Beta  occ. eigenvalues --   -0.05811
  Beta virt. eigenvalues --    0.08414   0.09471   0.09658   0.10479   0.10915
  Beta virt. eigenvalues --    0.11519   0.12551   0.12644   0.14502   0.14798
  Beta virt. eigenvalues --    0.15715   0.16628   0.17563   0.19033   0.19136

 Mulliken charges and spin densities:
               1          2
     1  C   -0.120066   0.067762
     2  C   -0.179455  -0.056092
     3  C    0.689694  -0.201525
     4  C   -0.304408  -0.111063
     5  C   -0.324748   0.074818
     6  C    0.084842  -0.178440
     7  O   -0.270487   0.045152
     8  O   -0.235489   0.011069
     9  C   -0.169482  -0.007968
    10  O   -0.382052   0.027416
    11  N   -0.364251  -0.041289
    12  H   -0.120349   0.228651
    13  H    0.105393   0.024556
    14  H    0.226471   0.027136
    15  H   -0.049252   0.277552
    16  H    0.003641   0.153665
    17  H    0.130680   0.130261
    18  H    0.099977   0.146551
    19  H    0.144306   0.127578
    20  H    0.035037   0.254208
 Sum of Mulliken charges =  -1.00000   1.00000

 Dipole moment (field-independent basis, Debye):
    X=             -1.4578    Y=             -0.1010    Z=             -0.0491  Tot=              1.4621
 Quadrupole moment (field-independent basis, Debye-Ang):
   XX=            -99.7483   YY=            -87.5482   ZZ=            -84.4757
   XY=              2.9907   XZ=              1.5719   YZ=             -3.8823

 Summary of Natural Population Analysis:

                                       Natural Population
                Natural  -----------------------------------------------
    Atom  No    Charge         Core      Valence    Rydberg      Total
 -----------------------------------------------------------------------
      C    1   -0.08917      0.99953     2.07912    0.01052     3.08917
      C    2   -0.08024      0.99953     2.06981    0.01091     3.08024
      C    3   -0.17417      0.99953     2.16122    0.01342     3.17417
      C    4    0.04325      0.99950     1.94245    0.01479     2.95675
      C    5    0.21948      0.99936     1.76741    0.01374     2.78052
      C    6   -0.18029      0.99948     2.16953    0.01128     3.18029
      O    7   -0.34058      0.99987     3.33320    0.00751     4.34058
      O    8   -0.37042      0.99990     3.36293    0.00759     4.37042
      C    9    0.36088      0.99968     1.61256    0.02688     2.63912
      O   10   -0.32606      0.99987     3.31994    0.00625     4.32606
      N   11   -0.41317      0.99970     2.90522    0.00825     3.91317
      H   12    0.09303      0.00000     0.40600    0.00096     0.40697
      H   13    0.09311      0.00000     0.40596    0.00093     0.40689
      H   14    0.11723      0.00000     0.38093    0.00184     0.38277
      H   15    0.09158      0.00000     0.40577    0.00265     0.40842
      H   16    0.09901      0.00000     0.39954    0.00145     0.40099
      H   17    0.23258      0.00000     0.26446    0.00296     0.26742
      H   18    0.23114      0.00000     0.26577    0.00309     0.26886
      H   19    0.20448      0.00000     0.29297    0.00255     0.29552
      H   20    0.18834      0.00000     0.30904    0.00262     0.31166
 =======================================================================
   * Total *    0.00000     10.99595    29.85385    0.15020    41.00000

 Normal termination of Gaussian 16 at Tue Dec  8 21:09:53 2020.
