 Gaussian 16, Revision A.03,

 -----------------------------------------------------------
 # opt freq B3LYP/6-31G(d) empiricaldispersion=gd3bj scf=xqc
 -----------------------------------------------------------

 -------------------------------
 CID_106909893_JID_6528_neutraal
 -------------------------------
 Symbolic Z-matrix:
 Charge =  0 Multiplicity = 1

 SCF Done:  E(RB3LYP) =  -692.214268187     A.U. after   15 cycles
 SCF Done:  E(RB3LYP) =  -692.217819723     A.U. after   12 cycles
 SCF Done:  E(RB3LYP) =  -692.217693226     A.U. after   13 cycles
 SCF Done:  E(RB3LYP) =  -692.215499947     A.U. after   12 cycles
 SCF Done:  E(RB3LYP) =  -692.208428871     A.U. after   12 cycles
 SCF Done:  E(RB3LYP) =  -692.217878238     A.U. after    9 cycles
 SCF Done:  E(RB3LYP) =  -692.220513107     A.U. after   12 cycles
 SCF Done:  E(RB3LYP) =  -692.221128276     A.U. after   11 cycles
 SCF Done:  E(RB3LYP) =  -692.222043182     A.U. after   12 cycles
 SCF Done:  E(RB3LYP) =  -692.222850598     A.U. after   12 cycles
 SCF Done:  E(RB3LYP) =  -692.226433388     A.U. after    9 cycles
 SCF Done:  E(RB3LYP) =  -692.226433622     A.U. after    8 cycles
 SCF Done:  E(RB3LYP) =  -692.226433856     A.U. after    8 cycles
 SCF Done:  E(RB3LYP) =  -692.226433915     A.U. after    7 cycles
 SCF Done:  E(RB3LYP) =  -692.226433948     A.U. after    6 cycles
 Optimization completed.
    -- Stationary point found.
 Normal termination of Gaussian 16 at Thu Dec 10 23:47:32 2020.

 --------------------------------------------------------------------
 #N Geom=AllCheck Guess=TCheck SCRF=Check GenChk RB3LYP/6-31G(d) Freq
 --------------------------------------------------------------------

 Structure from the checkpoint file:  "JID_6528.chk"
 -------------------------------
 CID_106909893_JID_6528_neutraal
 -------------------------------
 Charge =  0 Multiplicity = 1

 SCF Done:  E(RB3LYP) =  -692.226433948     A.U. after    1 cycles

  Exact polarizability: 205.697 -12.404 132.029  -9.348 -12.754 118.297
 Approx polarizability: 266.046 -28.968 200.788 -20.155 -30.494 190.963

                      1                      2                      3
                      A                      A                      A
 Frequencies --     20.8939                32.7213                38.2567
 Red. masses --      3.6936                 4.0201                 4.4452
 Frc consts  --      0.0010                 0.0025                 0.0038
 IR Inten    --      0.9583                 0.6490                 1.0305

                      4                      5                      6
                      A                      A                      A
 Frequencies --     51.6338                67.4996                89.8205
 Red. masses --      2.7447                 2.4118                 2.6116
 Frc consts  --      0.0043                 0.0065                 0.0124
 IR Inten    --      0.3149                 0.0090                 0.1245

                      7                      8                      9
                      A                      A                      A
 Frequencies --     97.0242               118.1152               179.2829
 Red. masses --      2.2112                 4.0348                 3.2583
 Frc consts  --      0.0123                 0.0332                 0.0617
 IR Inten    --      2.6705                 1.0079                 0.7809

                     10                     11                     12
                      A                      A                      A
 Frequencies --    197.5174               228.1146               254.1102
 Red. masses --      2.4553                 1.3661                 1.1955
 Frc consts  --      0.0564                 0.0419                 0.0455
 IR Inten    --      1.5382                 0.8906                 0.9892

                     13                     14                     15
                      A                      A                      A
 Frequencies --    269.3697               275.1700               296.6250
 Red. masses --      1.2967                 2.2280                 3.2120
 Frc consts  --      0.0554                 0.0994                 0.1665
 IR Inten    --      0.1045                 0.2889                 2.8684

                     16                     17                     18
                      A                      A                      A
 Frequencies --    304.3233               356.7683               362.8909
 Red. masses --      2.9604                 3.0124                 3.9837
 Frc consts  --      0.1615                 0.2259                 0.3091
 IR Inten    --      0.3232                 1.2075                 2.0058

                     19                     20                     21
                      A                      A                      A
 Frequencies --    389.3092               415.5552               432.5275
 Red. masses --      3.1596                 3.8771                 3.1036
 Frc consts  --      0.2821                 0.3945                 0.3421
 IR Inten    --      1.8253                 2.8194                 0.1586

                     22                     23                     24
                      A                      A                      A
 Frequencies --    491.4299               517.5982               523.5485
 Red. masses --      4.6325                 1.8928                 1.7151
 Frc consts  --      0.6592                 0.2988                 0.2770
 IR Inten    --      6.6173                28.9175                44.2376

                     25                     26                     27
                      A                      A                      A
 Frequencies --    570.6684               650.8290               657.1688
 Red. masses --      3.3291                 4.6155                 6.9961
 Frc consts  --      0.6388                 1.1519                 1.7802
 IR Inten    --     32.6685                 2.5095                 0.2686

                     28                     29                     30
                      A                      A                      A
 Frequencies --    708.2533               744.3440               777.9529
 Red. masses --      3.3638                 4.2581                 2.5464
 Frc consts  --      0.9942                 1.3900                 0.9080
 IR Inten    --     14.8394                 9.2666                18.1012

                     31                     32                     33
                      A                      A                      A
 Frequencies --    793.2313               812.5429               835.0723
 Red. masses --      1.4008                 1.4365                 1.9170
 Frc consts  --      0.5193                 0.5588                 0.7876
 IR Inten    --     18.2056                47.3756                18.5785

                     34                     35                     36
                      A                      A                      A
 Frequencies --    861.2234               866.2847               880.3921
 Red. masses --      1.4061                 1.8028                 2.0416
 Frc consts  --      0.6145                 0.7971                 0.9324
 IR Inten    --      7.8569                 7.4038                 5.1802

                     37                     38                     39
                      A                      A                      A
 Frequencies --    929.8835               971.1557               984.5579
 Red. masses --      3.3077                 1.3331                 1.3294
 Frc consts  --      1.6851                 0.7408                 0.7593
 IR Inten    --     12.6194                 1.5738                 4.4864

                     40                     41                     42
                      A                      A                      A
 Frequencies --    987.5221               989.3277              1011.7392
 Red. masses --      1.3401                 2.1459                 1.4411
 Frc consts  --      0.7700                 1.2375                 0.8691
 IR Inten    --      2.0352                 7.9743                12.6573

                     43                     44                     45
                      A                      A                      A
 Frequencies --   1012.5764              1045.1571              1050.5485
 Red. masses --      1.6012                 2.6125                 2.3549
 Frc consts  --      0.9673                 1.6814                 1.5313
 IR Inten    --      1.6574                10.1690                10.6974

                     46                     47                     48
                      A                      A                      A
 Frequencies --   1106.9084              1135.7244              1146.1586
 Red. masses --      1.7626                 1.3494                 2.1128
 Frc consts  --      1.2724                 1.0255                 1.6353
 IR Inten    --     52.5219                 7.3443                17.6594

                     49                     50                     51
                      A                      A                      A
 Frequencies --   1151.9267              1168.4386              1198.0945
 Red. masses --      2.3554                 1.5786                 1.7598
 Frc consts  --      1.8415                 1.2698                 1.4883
 IR Inten    --      2.2799                22.5549                14.7454

                     52                     53                     54
                      A                      A                      A
 Frequencies --   1201.4795              1205.8001              1236.9272
 Red. masses --      1.8605                 1.1801                 2.4848
 Frc consts  --      1.5824                 1.0110                 2.2399
 IR Inten    --      4.0717                 0.2907                 1.7964

                     55                     56                     57
                      A                      A                      A
 Frequencies --   1268.7849              1288.8858              1310.7710
 Red. masses --      3.1119                 1.3933                 1.2869
 Frc consts  --      2.9516                 1.3637                 1.3027
 IR Inten    --     14.1561                 6.1152                 2.0778

                     58                     59                     60
                      A                      A                      A
 Frequencies --   1328.3669              1335.3870              1344.8991
 Red. masses --      1.4085                 1.7209                 2.6895
 Frc consts  --      1.4644                 1.8081                 2.8662
 IR Inten    --     56.7835                 2.8186                 8.1409

                     61                     62                     63
                      A                      A                      A
 Frequencies --   1370.7296              1385.9983              1395.4538
 Red. masses --      1.9433                 1.5015                 1.3833
 Frc consts  --      2.1512                 1.6994                 1.5871
 IR Inten    --    163.8590                55.0144                13.8613

                     64                     65                     66
                      A                      A                      A
 Frequencies --   1406.9722              1439.3744              1445.8960
 Red. masses --      1.5949                 1.2571                 1.2806
 Frc consts  --      1.8602                 1.5345                 1.5774
 IR Inten    --     27.1243                 1.1090                 2.1832

                     67                     68                     69
                      A                      A                      A
 Frequencies --   1452.1601              1470.3128              1483.9194
 Red. masses --      1.9864                 2.0954                 1.2224
 Frc consts  --      2.4680                 2.6689                 1.5859
 IR Inten    --     34.2807                19.3824                 3.2779

                     70                     71                     72
                      A                      A                      A
 Frequencies --   1505.0930              1517.2963              1518.7869
 Red. masses --      1.2326                 1.0612                 1.0606
 Frc consts  --      1.6451                 1.4394                 1.4414
 IR Inten    --     29.7950                 3.1152                 9.3186

                     73                     74                     75
                      A                      A                      A
 Frequencies --   1526.9504              1534.0522              1536.5762
 Red. masses --      1.0434                 1.0648                 1.0596
 Frc consts  --      1.4334                 1.4764                 1.4740
 IR Inten    --      7.6512                14.1068                 7.1202

                     76                     77                     78
                      A                      A                      A
 Frequencies --   1537.3336              1541.3383              1546.9261
 Red. masses --      1.0785                 1.0497                 1.0581
 Frc consts  --      1.5017                 1.4693                 1.4918
 IR Inten    --     16.1468                 0.7467                 3.6679

                     79                     80                     81
                      A                      A                      A
 Frequencies --   1565.5717              1632.1665              1672.8249
 Red. masses --      2.6405                 6.6023                 5.9695
 Frc consts  --      3.8131                10.3627                 9.8421
 IR Inten    --     74.2746                 2.5921                 9.5707

                     82                     83                     84
                      A                      A                      A
 Frequencies --   1772.1787              2934.0210              2957.3692
 Red. masses --      8.0868                 1.0737                 1.0608
 Frc consts  --     14.9638                 5.4457                 5.4662
 IR Inten    --    393.2302                57.6483               127.0698

                     85                     86                     87
                      A                      A                      A
 Frequencies --   3025.3097              3048.1586              3053.4092
 Red. masses --      1.0853                 1.0362                 1.0615
 Frc consts  --      5.8526                 5.6723                 5.8308
 IR Inten    --     26.5687                24.9249                16.6738

                     88                     89                     90
                      A                      A                      A
 Frequencies --   3061.1214              3064.2317              3075.5571
 Red. masses --      1.0784                 1.0412                 1.0741
 Frc consts  --      5.9537                 5.7599                 5.9860
 IR Inten    --     10.0691                16.8290                41.4314

                     91                     92                     93
                      A                      A                      A
 Frequencies --   3092.9585              3115.3036              3120.1251
 Red. masses --      1.1013                 1.1017                 1.1027
 Frc consts  --      6.2071                 6.2999                 6.3251
 IR Inten    --      8.5643                36.1880                61.3172

                     94                     95                     96
                      A                      A                      A
 Frequencies --   3125.0347              3126.1146              3147.1547
 Red. masses --      1.1020                 1.1020                 1.1007
 Frc consts  --      6.3408                 6.3450                 6.4235
 IR Inten    --     32.1854                26.8314                26.6731

                     97                     98                     99
                      A                      A                      A
 Frequencies --   3182.7089              3200.3582              3217.4956
 Red. masses --      1.0889                 1.0890                 1.0928
 Frc consts  --      6.4988                 6.5718                 6.6654
 IR Inten    --     14.1994                 6.1706                12.0289

                    100                    101                    102
                      A                      A                      A
 Frequencies --   3220.7928              3489.9651              3561.2976
 Red. masses --      1.0935                 1.0742                 1.0746
 Frc consts  --      6.6836                 7.7084                 8.0301
 IR Inten    --      1.9813                 0.2462                22.7665

 - Thermochemistry -
 -------------------
 Temperature   298.150 Kelvin.  Pressure   1.00000 Atm.
 Atom     1 has atomic number  6 and mass  12.00000

 Molecular mass:   220.15756 amu.
 Principal axes and moments of inertia in atomic units:
                           1         2         3
     Eigenvalues --  1649.589987914.901228651.67845
           X            0.99991   0.01322   0.00258
           Y           -0.01319   0.99983  -0.01264
           Z           -0.00275   0.01260   0.99992
 This molecule is an asymmetric top.
 Rotational symmetry number  1.
 Warning -- assumption of classical behavior for rotation
           may cause significant error
 Rotational temperatures (Kelvin)      0.05251     0.01094     0.01001
 Rotational constants (GHZ):           1.09405     0.22802     0.20860
 Zero-point vibrational energy     829344.0 (Joules/Mol)
                                  198.21797 (Kcal/Mol)
 Warning -- explicit consideration of  25 degrees of freedom as
           vibrations may cause significant error
 Vibrational temperatures:     30.06    47.08    55.04    74.29    97.12
          (Kelvin)            129.23   139.60   169.94   257.95   284.18
                              328.21   365.61   387.56   395.91   426.78
                              437.85   513.31   522.12   560.13   597.89
                              622.31   707.06   744.71   753.27   821.06
                              936.40   945.52  1019.02  1070.95  1119.30
                             1141.28  1169.07  1201.48  1239.11  1246.39
                             1266.69  1337.89  1397.28  1416.56  1420.82
                             1423.42  1455.67  1456.87  1503.75  1511.50
                             1592.59  1634.05  1649.07  1657.37  1681.12
                             1723.79  1728.66  1734.88  1779.66  1825.50
                             1854.42  1885.91  1911.22  1921.32  1935.01
                             1972.17  1994.14  2007.75  2024.32  2070.94
                             2080.32  2089.33  2115.45  2135.03  2165.49
                             2183.05  2185.20  2196.94  2207.16  2210.79
                             2211.88  2217.64  2225.68  2252.51  2348.32
                             2406.82  2549.77  4221.40  4254.99  4352.75
                             4385.62  4393.17  4404.27  4408.75  4425.04
                             4450.08  4482.23  4489.16  4496.23  4497.78
                             4528.05  4579.21  4604.60  4629.26  4634.00
                             5021.28  5123.91

 Zero-point correction=                           0.315880 (Hartree/Particle)
 Thermal correction to Energy=                    0.333139
 Thermal correction to Enthalpy=                  0.334083
 Thermal correction to Gibbs Free Energy=         0.268629
 Sum of electronic and zero-point Energies=           -691.910554
 Sum of electronic and thermal Energies=              -691.893295
 Sum of electronic and thermal Enthalpies=            -691.892350
 Sum of electronic and thermal Free Energies=         -691.957805

                     E (Thermal)             CV                S
                      KCal/Mol        Cal/Mol-Kelvin    Cal/Mol-Kelvin
 Total                  209.048             63.543            137.761
 Electronic               0.000              0.000              0.000
 Translational            0.889              2.981             42.070
 Rotational               0.889              2.981             33.090
 Vibrational            207.271             57.581             62.601
 Vibration     1          0.593              1.986              6.547
 Vibration     2          0.594              1.983              5.657
 Vibration     3          0.594              1.982              5.347
 Vibration     4          0.596              1.977              4.754
 Vibration     5          0.598              1.970              4.225
 Vibration     6          0.602              1.956              3.664
 Vibration     7          0.603              1.951              3.513
 Vibration     8          0.608              1.934              3.131
 Vibration     9          0.629              1.868              2.336
 Vibration    10          0.637              1.843              2.156
 Vibration    11          0.651              1.798              1.894
 Vibration    12          0.665              1.756              1.702
 Vibration    13          0.674              1.730              1.600
 Vibration    14          0.677              1.719              1.564
 Vibration    15          0.690              1.680              1.436
 Vibration    16          0.695              1.666              1.393
 Vibration    17          0.732              1.561              1.136
 Vibration    18          0.737              1.549              1.110
 Vibration    19          0.757              1.493              1.003
 Vibration    20          0.779              1.436              0.907
 Vibration    21          0.793              1.399              0.850
 Vibration    22          0.847              1.269              0.680
 Vibration    23          0.873              1.211              0.616
 Vibration    24          0.879              1.198              0.602
 Vibration    25          0.927              1.095              0.503

                           ! Non-Optimized Parameters !
 Normal termination of Gaussian 16 at Fri Dec 11 00:00:13 2020.

 ----------------------------------------------------------------------
 # B3LYP/6-311++G(d,p) empiricaldispersion=gd3bj scf=xqc pop=npa geom=c
 heck
 ----------------------------------------------------------------------

 ---------------------------------------
 CID_106909893_JID_6528_Energie_neutraal
 ---------------------------------------
 Structure from the checkpoint file:  "JID_6528.chk"
 Charge =  0 Multiplicity = 1

 SCF Done:  E(RB3LYP) =  -692.424413672     A.U. after   15 cycles
 Normal termination of Gaussian 16 at Fri Dec 11 00:06:55 2020.

 ----------------------------------------------------------------------
 # B3LYP/6-311++G(d,p) empiricaldispersion=gd3bj scf=xqc pop=npa geom=c
 heck
 ----------------------------------------------------------------------

 -------------------------------------
 CID_106909893_JID_6528_Energie_kation
 -------------------------------------
 Structure from the checkpoint file:  "JID_6528.chk"
 Charge =  1 Multiplicity = 2

 SCF Done:  E(UB3LYP) =  -692.124183780     A.U. after   31 cycles
 Normal termination of Gaussian 16 at Fri Dec 11 00:26:17 2020.
 Gaussian 16:  ES64L-G16RevA.03 25-Dec-2016

 ----------------------------------------------------------------------
 # B3LYP/6-311++G(d,p) empiricaldispersion=gd3bj scf=xqc pop=npa geom=c
 heck
 ----------------------------------------------------------------------

 ------------------------------------
 CID_106909893_JID_6528_Energie_anion
 ------------------------------------
 Structure from the checkpoint file:  "JID_6528.chk"
 Charge = -1 Multiplicity = 2

                         Standard orientation:
 ---------------------------------------------------------------------
 Center     Atomic      Atomic             Coordinates (Angstroms)
 Number     Number       Type             X           Y           Z
 ---------------------------------------------------------------------
      1          6           0        3.692665    2.652687    0.053341
      2          6           0        3.132688    1.340535   -0.502201
      3          6           0        3.014852    0.230365    0.566532
      4          6           0        2.008467    0.569575    1.676642
      5          6           0        2.854346   -1.140996   -0.101740
      6          8           0        3.845366   -1.790467   -0.413901
      7          7           0        1.600702   -1.672576   -0.331407
      8          6           0        0.318862   -1.048761   -0.298509
      9          6           0       -0.623200   -1.444804    0.656489
     10          6           0       -1.880443   -0.849225    0.693602
     11          6           0       -2.221809    0.156664   -0.220249
     12          6           0       -1.283719    0.530139   -1.187036
     13          6           0       -0.027131   -0.072142   -1.235799
     14          6           0       -3.573697    0.831491   -0.150535
     15          7           0       -4.635229   -0.117658    0.167266
     16          6           0       -5.948592    0.508767    0.244522
     17          1           0        3.029953    3.090454    0.807510
     18          1           0        3.816914    3.391807   -0.745755
     19          1           0        4.672965    2.494911    0.518856
     20          1           0        2.148015    1.525251   -0.946750
     21          1           0        3.786134    0.977294   -1.304602
     22          1           0        4.005523    0.134308    1.025910
     23          1           0        1.047669    0.906304    1.279748
     24          1           0        1.821375   -0.294608    2.322309
     25          1           0        2.409621    1.370310    2.306168
     26          1           0        1.656804   -2.604280   -0.728935
     27          1           0       -0.350211   -2.208478    1.378693
     28          1           0       -2.615421   -1.155588    1.430727
     29          1           0       -1.542732    1.290548   -1.919768
     30          1           0        0.686152    0.199135   -2.006807
     31          1           0       -3.566621    1.586950    0.649370
     32          1           0       -3.753283    1.389029   -1.090190
     33          1           0       -4.643907   -0.848170   -0.542511
     34          1           0       -6.236852    1.072943   -0.662033
     35          1           0       -6.707992   -0.257218    0.429645
     36          1           0       -5.965079    1.208694    1.088255
 ---------------------------------------------------------------------

 SCF Done:  E(UB3LYP) =  -692.414498398     A.U. after   33 cycles
 SCF Done:  E(UB3LYP) =  -692.414498398     a.u. after    2 cycles

 The electronic state is 2-A.
 Alpha  occ. eigenvalues --  -18.99485 -14.24628 -14.19966 -10.17955 -10.10992
 Alpha  occ. eigenvalues --  -10.09393 -10.09243 -10.08582 -10.08048 -10.07871
 Alpha  occ. eigenvalues --  -10.07808 -10.07657 -10.07588 -10.07291 -10.07185
 Alpha  occ. eigenvalues --  -10.06875  -0.94730  -0.83578  -0.80841  -0.75130
 Alpha  occ. eigenvalues --   -0.71880  -0.66323  -0.65233  -0.64073  -0.59408
 Alpha  occ. eigenvalues --   -0.57033  -0.54322  -0.51617  -0.51595  -0.49877
 Alpha  occ. eigenvalues --   -0.47002  -0.44132  -0.40082  -0.38642  -0.37997
 Alpha  occ. eigenvalues --   -0.36711  -0.35950  -0.35118  -0.34576  -0.34040
 Alpha  occ. eigenvalues --   -0.33445  -0.32718  -0.31744  -0.30746  -0.30101
 Alpha  occ. eigenvalues --   -0.29567  -0.29136  -0.27864  -0.27579  -0.26682
 Alpha  occ. eigenvalues --   -0.25557  -0.25029  -0.24767  -0.24025  -0.23546
 Alpha  occ. eigenvalues --   -0.18099  -0.16323  -0.16140  -0.14710  -0.12982
 Alpha  occ. eigenvalues --    0.04234
 Alpha virt. eigenvalues --    0.05974   0.06437   0.07397   0.07626   0.07810
 Alpha virt. eigenvalues --    0.08231   0.08623   0.09086   0.09566   0.09918
 Alpha virt. eigenvalues --    0.10119   0.10351   0.10969   0.11525   0.11793

  Beta  occ. eigenvalues --  -18.99473 -14.24642 -14.19940 -10.17929 -10.10861
  Beta  occ. eigenvalues --  -10.09380 -10.09243 -10.08538 -10.08038 -10.07874
  Beta  occ. eigenvalues --  -10.07782 -10.07648 -10.07466 -10.07267 -10.07166
  Beta  occ. eigenvalues --  -10.06864  -0.94700  -0.83495  -0.80786  -0.75024
  Beta  occ. eigenvalues --   -0.71858  -0.66148  -0.65146  -0.64041  -0.59301
  Beta  occ. eigenvalues --   -0.56996  -0.54178  -0.51550  -0.51547  -0.49764
  Beta  occ. eigenvalues --   -0.46918  -0.44076  -0.40001  -0.38588  -0.37938
  Beta  occ. eigenvalues --   -0.36678  -0.35876  -0.35068  -0.34493  -0.33984
  Beta  occ. eigenvalues --   -0.33374  -0.32687  -0.31696  -0.30690  -0.30064
  Beta  occ. eigenvalues --   -0.29461  -0.29079  -0.27817  -0.27462  -0.26574
  Beta  occ. eigenvalues --   -0.25460  -0.24969  -0.24696  -0.23984  -0.23496
  Beta  occ. eigenvalues --   -0.17954  -0.16262  -0.15970  -0.14285  -0.12864
  Beta virt. eigenvalues --    0.06286   0.06766   0.07119   0.07617   0.07823
  Beta virt. eigenvalues --    0.08017   0.08659   0.09157   0.09267   0.09671
  Beta virt. eigenvalues --    0.10073   0.10402   0.10630   0.11171   0.11705

 Mulliken charges and spin densities:
               1          2
     1  C    0.300817  -0.961794
     2  C   -0.658240   0.553276
     3  C    0.377433   0.163519
     4  C   -0.266462  -0.498575
     5  C   -0.253989  -0.073484
     6  O   -0.316079   0.006694
     7  N   -0.160413  -0.005018
     8  C   -0.403434  -0.182726
     9  C   -0.281418   0.468390
    10  C   -0.708642   0.316163
    11  C    0.795191   0.181139
    12  C   -0.506409   0.000937
    13  C   -0.033864   0.082605
    14  C    0.937089  -1.856219
    15  N   -0.298422   0.241421
    16  C    0.972584  -1.305487
    17  H   -0.127562   0.281409
    18  H   -0.218155   0.364584
    19  H    0.014930   0.109129
    20  H    0.029670   0.095635
    21  H    0.095967   0.071183
    22  H    0.230754  -0.013633
    23  H    0.276038  -0.091274
    24  H    0.033191   0.097728
    25  H    0.080701   0.070355
    26  H    0.318501   0.001639
    27  H    0.103765   0.062333
    28  H    0.054647   0.155186
    29  H   -0.453400   0.617136
    30  H    0.154391   0.013023
    31  H   -0.325962   0.531315
    32  H    0.187285  -0.029744
    33  H    0.041395   0.158477
    34  H   -0.382254   0.495886
    35  H   -0.293723   0.423918
    36  H   -0.315919   0.454875
 Sum of Mulliken charges =  -1.00000   1.00000

 Dipole moment (field-independent basis, Debye):
    X=              5.2457    Y=             -3.7327    Z=             -0.0029  Tot=              6.4382
 Quadrupole moment (field-independent basis, Debye-Ang):
   XX=           -220.4255   YY=           -139.1430   ZZ=           -124.3780
   XY=             10.6935   XZ=              5.4411   YZ=             -0.0497

 Summary of Natural Population Analysis:

                                       Natural Population
                Natural  -----------------------------------------------
    Atom  No    Charge         Core      Valence    Rydberg      Total
 -----------------------------------------------------------------------
      C    1   -0.28587      0.99967     2.28120    0.00500     3.28587
      C    2   -0.18817      0.99962     2.18004    0.00852     3.18817
      C    3   -0.14925      0.99956     2.13990    0.00979     3.14925
      C    4   -0.29142      0.99965     2.28555    0.00623     3.29142
      C    5    0.35697      0.99963     1.62012    0.02328     2.64303
      O    6   -0.32966      0.99988     3.32387    0.00591     4.32966
      N    7   -0.32483      0.99964     2.81474    0.01045     3.82483
      C    8    0.07413      0.99945     1.91511    0.01131     2.92587
      C    9   -0.10092      0.99951     2.09227    0.00914     3.10092
      C   10   -0.09514      0.99952     2.08558    0.01004     3.09514
      C   11    0.00247      0.99951     1.98719    0.01083     2.99753
      C   12   -0.09876      0.99952     2.08926    0.00999     3.09876
      C   13   -0.10040      0.99951     2.09178    0.00911     3.10040
      C   14   -0.09299      0.99959     2.08157    0.01183     3.09299
      N   15   -0.33407      0.99975     2.82319    0.01113     3.83407
      C   16   -0.17415      0.99967     2.16755    0.00693     3.17415
      H   17    0.09902      0.00000     0.40007    0.00091     0.40098
      H   18    0.10096      0.00000     0.39813    0.00091     0.39904
      H   19    0.09367      0.00000     0.40545    0.00088     0.40633
      H   20    0.10034      0.00000     0.39816    0.00150     0.39966
      H   21    0.09876      0.00000     0.40014    0.00111     0.40124
      H   22    0.10538      0.00000     0.39277    0.00185     0.39462
      H   23    0.10866      0.00000     0.39012    0.00122     0.39134
      H   24    0.10151      0.00000     0.39765    0.00084     0.39849
      H   25    0.09962      0.00000     0.39966    0.00072     0.40038
      H   26    0.19582      0.00000     0.30265    0.00153     0.30418
      H   27    0.10035      0.00000     0.39874    0.00091     0.39965
      H   28    0.10948      0.00000     0.38916    0.00136     0.39052
      H   29    0.10104      0.00000     0.39786    0.00111     0.39896
      H   30    0.10154      0.00000     0.39700    0.00146     0.39846
      H   31    0.10101      0.00000     0.39651    0.00248     0.39899
      H   32    0.08216      0.00000     0.41600    0.00185     0.41784
      H   33    0.16983      0.00000     0.32686    0.00331     0.33017
      H   34    0.07805      0.00000     0.41904    0.00291     0.42195
      H   35    0.09288      0.00000     0.40580    0.00132     0.40712
      H   36    0.09200      0.00000     0.40605    0.00195     0.40800
 =======================================================================
   * Total *   -0.00000     15.99367    43.81674    0.18959    60.00000

 Normal termination of Gaussian 16 at Fri Dec 11 02:27:21 2020.
