 Gaussian 16, Revision A.03,

 -----------------------------------------------------------
 # opt freq B3LYP/6-31G(d) empiricaldispersion=gd3bj scf=xqc
 -----------------------------------------------------------

 ------------------------------
 CID_82239190_JID_6902_neutraal
 ------------------------------
 Symbolic Z-matrix:
 Charge =  0 Multiplicity = 1

 SCF Done:  E(RB3LYP) =  -1046.02053006     A.U. after   15 cycles
 SCF Done:  E(RB3LYP) =  -1046.03253851     A.U. after   13 cycles
 SCF Done:  E(RB3LYP) =  -1046.03604687     A.U. after   12 cycles
 SCF Done:  E(RB3LYP) =  -1046.03748750     A.U. after   12 cycles
 SCF Done:  E(RB3LYP) =  -1046.03777715     A.U. after   12 cycles
 SCF Done:  E(RB3LYP) =  -1046.03788168     A.U. after   12 cycles
 SCF Done:  E(RB3LYP) =  -1046.03812498     A.U. after   12 cycles
 SCF Done:  E(RB3LYP) =  -1046.03826328     A.U. after   12 cycles
 SCF Done:  E(RB3LYP) =  -1046.03841819     A.U. after   12 cycles
 SCF Done:  E(RB3LYP) =  -1046.03863236     A.U. after   12 cycles
 SCF Done:  E(RB3LYP) =  -1046.04930175     A.U. after   10 cycles
 SCF Done:  E(RB3LYP) =  -1046.04930785     A.U. after   10 cycles
 SCF Done:  E(RB3LYP) =  -1046.04930946     A.U. after    9 cycles
 SCF Done:  E(RB3LYP) =  -1046.04930980     A.U. after    8 cycles
 SCF Done:  E(RB3LYP) =  -1046.04930983     A.U. after    6 cycles
 Optimization completed.
    -- Stationary point found.
 Normal termination of Gaussian 16 at Fri Dec 11 01:48:53 2020.

 --------------------------------------------------------------------
 #N Geom=AllCheck Guess=TCheck SCRF=Check GenChk RB3LYP/6-31G(d) Freq
 --------------------------------------------------------------------

 Structure from the checkpoint file:  "JID_6902.chk"
 ------------------------------
 CID_82239190_JID_6902_neutraal
 ------------------------------
 Charge =  0 Multiplicity = 1

 SCF Done:  E(RB3LYP) =  -1046.04930983     A.U. after    1 cycles

  Exact polarizability: 172.064  13.193 125.397  10.606 -18.951 136.764
 Approx polarizability: 269.163  29.384 184.394  21.013 -43.899 239.582

                      1                      2                      3
                      A                      A                      A
 Frequencies --     36.5285                55.8676                59.3841
 Red. masses --      4.1113                 3.0197                 1.2535
 Frc consts  --      0.0032                 0.0056                 0.0026
 IR Inten    --      0.1628                 0.5183                 0.7229

                      4                      5                      6
                      A                      A                      A
 Frequencies --     61.9332                88.1499                94.3391
 Red. masses --      4.2204                 5.5170                 4.8451
 Frc consts  --      0.0095                 0.0253                 0.0254
 IR Inten    --      0.4057                 0.3359                 1.7425

                      7                      8                      9
                      A                      A                      A
 Frequencies --    108.8157               186.8818               230.5590
 Red. masses --      3.3227                 3.3061                 3.2346
 Frc consts  --      0.0232                 0.0680                 0.1013
 IR Inten    --      1.6939                 6.9884                 1.9630

                     10                     11                     12
                      A                      A                      A
 Frequencies --    240.4133               241.1757               277.6260
 Red. masses --      1.0861                 4.4685                 2.0566
 Frc consts  --      0.0370                 0.1531                 0.0934
 IR Inten    --      0.3644                 1.8764                25.5259

                     13                     14                     15
                      A                      A                      A
 Frequencies --    289.0813               297.2364               317.7558
 Red. masses --      2.7084                 1.6796                 2.8232
 Frc consts  --      0.1334                 0.0874                 0.1679
 IR Inten    --      7.2178                 8.7812                 6.5918

                     16                     17                     18
                      A                      A                      A
 Frequencies --    332.9489               369.0756               412.4147
 Red. masses --      2.7019                 3.8411                 3.3274
 Frc consts  --      0.1765                 0.3083                 0.3334
 IR Inten    --      0.7500                 2.1375                 1.5338

                     19                     20                     21
                      A                      A                      A
 Frequencies --    440.1112               467.9921               483.1237
 Red. masses --      2.5882                 3.8374                 1.3068
 Frc consts  --      0.2954                 0.4952                 0.1797
 IR Inten    --      2.6020                 2.1647               108.6569

                     22                     23                     24
                      A                      A                      A
 Frequencies --    542.1307               591.2939               629.3567
 Red. masses --      3.0236                 5.4778                 3.7536
 Frc consts  --      0.5236                 1.1284                 0.8760
 IR Inten    --     28.4941                 4.4443                16.7005

                     25                     26                     27
                      A                      A                      A
 Frequencies --    641.1639               655.6351               665.6905
 Red. masses --      3.5606                 3.5863                 3.2574
 Frc consts  --      0.8624                 0.9083                 0.8505
 IR Inten    --      6.6530                 9.4843                33.4784

                     28                     29                     30
                      A                      A                      A
 Frequencies --    677.6157               705.8453               713.0462
 Red. masses --      1.2846                 3.6975                 2.6555
 Frc consts  --      0.3475                 1.0854                 0.7955
 IR Inten    --      2.1626                 8.8732                43.5980

                     31                     32                     33
                      A                      A                      A
 Frequencies --    740.3385               752.4704               780.1957
 Red. masses --      3.8190                 1.4579                 1.4656
 Frc consts  --      1.2333                 0.4864                 0.5256
 IR Inten    --     47.0353               107.6689                60.9472

                     34                     35                     36
                      A                      A                      A
 Frequencies --    845.0777               870.8946               874.3465
 Red. masses --      4.8541                 2.1652                 2.3525
 Frc consts  --      2.0424                 0.9676                 1.0596
 IR Inten    --     10.3076                 6.4301                 6.5472

                     37                     38                     39
                      A                      A                      A
 Frequencies --    885.7362               886.9015               924.6347
 Red. masses --      2.7520                 1.7757                 1.5204
 Frc consts  --      1.2721                 0.8230                 0.7659
 IR Inten    --     12.4415                 2.0147                 0.9611

                     40                     41                     42
                      A                      A                      A
 Frequencies --    957.2524               975.0948              1008.9989
 Red. masses --      2.6112                 2.6217                 1.5099
 Frc consts  --      1.4097                 1.4687                 0.9057
 IR Inten    --      1.7792                 3.2638                 0.6988

                     43                     44                     45
                      A                      A                      A
 Frequencies --   1050.4105              1071.8720              1098.6079
 Red. masses --      5.4315                 1.4484                 1.7969
 Frc consts  --      3.5309                 0.9805                 1.2778
 IR Inten    --      6.2440                 1.9696                18.6371

                     46                     47                     48
                      A                      A                      A
 Frequencies --   1118.1760              1126.7625              1161.4481
 Red. masses --      1.1331                 2.4472                 2.5716
 Frc consts  --      0.8347                 1.8305                 2.0438
 IR Inten    --      5.7696                11.3000                19.0824

                     49                     50                     51
                      A                      A                      A
 Frequencies --   1182.4398              1198.4777              1219.4977
 Red. masses --      2.1536                 1.6100                 1.7342
 Frc consts  --      1.7741                 1.3625                 1.5195
 IR Inten    --     24.7687                 2.1577                21.4751

                     52                     53                     54
                      A                      A                      A
 Frequencies --   1229.1092              1241.4601              1279.3837
 Red. masses --      1.2357                 2.0266                 1.4009
 Frc consts  --      1.0999                 1.8403                 1.3510
 IR Inten    --      3.8855                43.3943                26.1479

                     55                     56                     57
                      A                      A                      A
 Frequencies --   1326.6989              1335.1963              1382.0740
 Red. masses --      3.4040                 1.3272                 1.3350
 Frc consts  --      3.5301                 1.3941                 1.5024
 IR Inten    --     36.6552                 3.3205                 5.4028

                     58                     59                     60
                      A                      A                      A
 Frequencies --   1392.0053              1433.5098              1435.2031
 Red. masses --      1.4505                 1.3229                 2.4300
 Frc consts  --      1.6559                 1.6017                 2.9491
 IR Inten    --      3.8021                 6.0574                 4.9697

                     61                     62                     63
                      A                      A                      A
 Frequencies --   1436.7588              1458.1575              1465.4739
 Red. masses --      1.3200                 3.1378                 5.8086
 Frc consts  --      1.6055                 3.9309                 7.3499
 IR Inten    --      6.0484                19.7157                 7.4314

                     64                     65                     66
                      A                      A                      A
 Frequencies --   1468.5370              1499.7177              1512.1700
 Red. masses --      3.3815                 1.5051                 1.0919
 Frc consts  --      4.2966                 1.9946                 1.4711
 IR Inten    --     27.5235                27.7624                 0.2274

                     67                     68                     69
                      A                      A                      A
 Frequencies --   1512.2801              1524.6888              1529.2096
 Red. masses --      1.0457                 1.0664                 1.1106
 Frc consts  --      1.4090                 1.4606                 1.5301
 IR Inten    --      5.4885                10.2154                 1.0734

                     70                     71                     72
                      A                      A                      A
 Frequencies --   1535.1224              1582.1511              1596.2469
 Red. masses --      1.3525                 5.1674                 5.5676
 Frc consts  --      1.8780                 7.6211                 8.3582
 IR Inten    --      5.5388                17.0034                 0.8801

                     73                     74                     75
                      A                      A                      A
 Frequencies --   1665.4464              1686.5489              3026.4675
 Red. masses --      2.8321                 1.3994                 1.0601
 Frc consts  --      4.6283                 2.3453                 5.7212
 IR Inten    --     92.5239                63.1753                32.5956

                     76                     77                     78
                      A                      A                      A
 Frequencies --   3039.1835              3041.5186              3063.9328
 Red. masses --      1.0401                 1.0404                 1.1008
 Frc consts  --      5.6603                 5.6704                 6.0889
 IR Inten    --     51.0561                40.9535                18.0003

                     79                     80                     81
                      A                      A                      A
 Frequencies --   3085.5087              3096.2998              3117.4083
 Red. masses --      1.1015                 1.0940                 1.0914
 Frc consts  --      6.1787                 6.1797                 6.2489
 IR Inten    --     22.2695                14.8858                28.1766

                     82                     83                     84
                      A                      A                      A
 Frequencies --   3139.5697              3156.1959              3202.0809
 Red. masses --      1.1008                 1.0972                 1.0909
 Frc consts  --      6.3928                 6.4394                 6.5904
 IR Inten    --     22.4889                 5.9815                 6.5390

                     85                     86                     87
                      A                      A                      A
 Frequencies --   3269.8059              3276.1950              3472.9218
 Red. masses --      1.0958                 1.0941                 1.0473
 Frc consts  --      6.9026                 6.9188                 7.4421
 IR Inten    --      0.5835                 0.7873                15.4067

                     88                     89                     90
                      A                      A                      A
 Frequencies --   3515.4824              3550.4816              3652.3824
 Red. masses --      1.0736                 1.0956                 1.0805
 Frc consts  --      7.8173                 8.1370                 8.4927
 IR Inten    --      0.3380                 9.3614                46.0991

 - Thermochemistry -
 -------------------
 Temperature   298.150 Kelvin.  Pressure   1.00000 Atm.
 Atom     1 has atomic number  6 and mass  12.00000

 Molecular mass:   236.10957 amu.
 Principal axes and moments of inertia in atomic units:
                           1         2         3
     Eigenvalues --  3336.523563638.600334996.96003
           X            0.99986   0.01351   0.00985
           Y           -0.01305   0.99890  -0.04503
           Z           -0.01045   0.04489   0.99894
 This molecule is an asymmetric top.
 Rotational symmetry number  1.
 Warning -- assumption of classical behavior for rotation
           may cause significant error
 Rotational temperatures (Kelvin)      0.02596     0.02380     0.01733
 Rotational constants (GHZ):           0.54090     0.49600     0.36117
 Zero-point vibrational energy     699070.2 (Joules/Mol)
                                  167.08179 (Kcal/Mol)
 Warning -- explicit consideration of  23 degrees of freedom as
           vibrations may cause significant error
 Vibrational temperatures:     52.56    80.38    85.44    89.11   126.83
          (Kelvin)            135.73   156.56   268.88   331.72   345.90
                              347.00   399.44   415.92   427.66   457.18
                              479.04   531.02   593.37   633.22   673.34
                              695.11   780.01   850.74   905.50   922.49
                              943.31   957.78   974.94  1015.55  1025.91
                             1065.18  1082.64  1122.53  1215.88  1253.02
                             1257.99  1274.38  1276.05  1330.34  1377.27
                             1402.94  1451.72  1511.31  1542.18  1580.65
                             1608.81  1621.16  1671.06  1701.27  1724.34
                             1754.59  1768.41  1786.18  1840.75  1908.82
                             1921.05  1988.50  2002.79  2062.50  2064.94
                             2067.18  2097.96  2108.49  2112.90  2157.76
                             2175.68  2175.83  2193.69  2200.19  2208.70
                             2276.36  2296.64  2396.21  2426.57  4354.41
                             4372.71  4376.07  4408.32  4439.36  4454.88
                             4485.26  4517.14  4541.06  4607.08  4704.52
                             4713.71  4996.76  5058.00  5108.35  5254.96

 Zero-point correction=                           0.266262 (Hartree/Particle)
 Thermal correction to Energy=                    0.282539
 Thermal correction to Enthalpy=                  0.283484
 Thermal correction to Gibbs Free Energy=         0.221952
 Sum of electronic and zero-point Energies=          -1045.783048
 Sum of electronic and thermal Energies=             -1045.766770
 Sum of electronic and thermal Enthalpies=           -1045.765826
 Sum of electronic and thermal Free Energies=        -1045.827358

                     E (Thermal)             CV                S
                      KCal/Mol        Cal/Mol-Kelvin    Cal/Mol-Kelvin
 Total                  177.296             61.637            129.504
 Electronic               0.000              0.000              0.000
 Translational            0.889              2.981             42.279
 Rotational               0.889              2.981             32.473
 Vibrational            175.519             55.675             54.753
 Vibration     1          0.594              1.982              5.439
 Vibration     2          0.596              1.975              4.598
 Vibration     3          0.597              1.974              4.478
 Vibration     4          0.597              1.972              4.395
 Vibration     5          0.601              1.958              3.701
 Vibration     6          0.603              1.953              3.568
 Vibration     7          0.606              1.942              3.290
 Vibration     8          0.632              1.858              2.259
 Vibration     9          0.652              1.794              1.875
 Vibration    10          0.657              1.779              1.800
 Vibration    11          0.658              1.777              1.794
 Vibration    12          0.679              1.715              1.548
 Vibration    13          0.686              1.694              1.479
 Vibration    14          0.691              1.679              1.432
 Vibration    15          0.704              1.640              1.322
 Vibration    16          0.715              1.610              1.246
 Vibration    17          0.741              1.536              1.084
 Vibration    18          0.776              1.443              0.918
 Vibration    19          0.800              1.383              0.826
 Vibration    20          0.825              1.321              0.743
 Vibration    21          0.839              1.287              0.702
 Vibration    22          0.897              1.157              0.561
 Vibration    23          0.949              1.050              0.465

 Optimization completed.
    -- Stationary point found.
 Normal termination of Gaussian 16 at Fri Dec 11 02:00:41 2020.

 ----------------------------------------------------------------------
 # B3LYP/6-311++G(d,p) empiricaldispersion=gd3bj scf=xqc pop=npa geom=c
 heck
 ----------------------------------------------------------------------

 --------------------------------------
 CID_82239190_JID_6902_Energie_neutraal
 --------------------------------------
 Structure from the checkpoint file:  "JID_6902.chk"
 Charge =  0 Multiplicity = 1

 SCF Done:  E(RB3LYP) =  -1046.26392676     A.U. after   17 cycles
 Normal termination of Gaussian 16 at Fri Dec 11 02:06:54 2020.

 ----------------------------------------------------------------------
 # B3LYP/6-311++G(d,p) empiricaldispersion=gd3bj scf=xqc pop=npa geom=c
 heck
 ----------------------------------------------------------------------

 ------------------------------------
 CID_82239190_JID_6902_Energie_kation
 ------------------------------------
 Structure from the checkpoint file:  "JID_6902.chk"
 Charge =  1 Multiplicity = 2

 SCF Done:  E(UB3LYP) =  -1046.01909201     A.U. after   22 cycles
 Normal termination of Gaussian 16 at Fri Dec 11 02:18:10 2020.
 Gaussian 16:  ES64L-G16RevA.03 25-Dec-2016

 ----------------------------------------------------------------------
 # B3LYP/6-311++G(d,p) empiricaldispersion=gd3bj scf=xqc pop=npa geom=c
 heck
 ----------------------------------------------------------------------

 -----------------------------------
 CID_82239190_JID_6902_Energie_anion
 -----------------------------------
 Structure from the checkpoint file:  "JID_6902.chk"
 Charge = -1 Multiplicity = 2

                         Standard orientation:
 ---------------------------------------------------------------------
 Center     Atomic      Atomic             Coordinates (Angstroms)
 Number     Number       Type             X           Y           Z
 ---------------------------------------------------------------------
      1          6           0       -3.051571    1.841470   -1.432084
      2          6           0       -1.987358    1.499475   -0.443001
      3          7           0       -0.695044    1.767046   -0.585700
      4          6           0       -0.078140    1.275060    0.541039
      5          6           0       -0.999181    0.702966    1.392811
      6          7           0       -2.223341    0.874540    0.740623
      7          7           0       -0.918797   -0.005729    2.607027
      8          7           0        1.304761    1.404417    0.729943
      9          6           0        2.168360    1.111328   -0.422239
     10          6           0        3.452603    1.934027   -0.326741
     11          6           0        2.493771   -0.397546   -0.570651
     12          6           0        1.284455   -1.292639   -0.468014
     13          6           0        0.236015   -1.296307   -1.350833
     14         16           0       -1.047577   -2.343504   -0.846030
     15          6           0       -0.164552   -2.819540    0.567506
     16          6           0        1.047007   -2.184650    0.630114
     17          1           0       -3.611394    0.954362   -1.754935
     18          1           0       -2.578114    2.289366   -2.308263
     19          1           0       -3.775167    2.561195   -1.028235
     20          1           0       -3.103050    0.532316    1.097781
     21          1           0       -0.376927   -0.861915    2.505428
     22          1           0       -0.535568    0.545132    3.370506
     23          1           0        1.600819    0.901352    1.562400
     24          1           0        1.598888    1.436202   -1.297053
     25          1           0        4.015718    1.673565    0.579073
     26          1           0        4.104191    1.750938   -1.189189
     27          1           0        3.215795    3.000546   -0.282068
     28          1           0        3.011339   -0.550682   -1.526662
     29          1           0        3.211854   -0.679303    0.212320
     30          1           0        0.109692   -0.678464   -2.228640
     31          1           0       -0.576291   -3.552039    1.248232
     32          1           0        1.767935   -2.350296    1.425091
 ---------------------------------------------------------------------

 SCF Done:  E(UB3LYP) =  -1046.25257590     A.U. after   33 cycles
 SCF Done:  E(UB3LYP) =  -1046.25257590     a.u. after    1 cycles

 The electronic state is 2-A.
 Alpha  occ. eigenvalues --  -88.77453 -14.24726 -14.20371 -14.20209 -14.17920
 Alpha  occ. eigenvalues --  -10.12236 -10.10306 -10.10299 -10.10120 -10.09540
 Alpha  occ. eigenvalues --  -10.09018 -10.07996 -10.07742 -10.07611 -10.07369
 Alpha  occ. eigenvalues --  -10.06384  -7.86061  -5.82339  -5.81972  -5.81684
 Alpha  occ. eigenvalues --   -0.90798  -0.82001  -0.78999  -0.77942  -0.74475
 Alpha  occ. eigenvalues --   -0.68554  -0.65819  -0.64038  -0.62596  -0.57382
 Alpha  occ. eigenvalues --   -0.56848  -0.50726  -0.49759  -0.47637  -0.46481
 Alpha  occ. eigenvalues --   -0.44172  -0.41788  -0.40200  -0.39349  -0.37772
 Alpha  occ. eigenvalues --   -0.36877  -0.34614  -0.34349  -0.33643  -0.32454
 Alpha  occ. eigenvalues --   -0.31248  -0.30284  -0.30021  -0.29197  -0.28983
 Alpha  occ. eigenvalues --   -0.28152  -0.27511  -0.26475  -0.26257  -0.24220
 Alpha  occ. eigenvalues --   -0.23620  -0.19892  -0.18755  -0.15448  -0.15107
 Alpha  occ. eigenvalues --   -0.14654  -0.13402  -0.07792   0.04233
 Alpha virt. eigenvalues --    0.06171   0.06901   0.07474   0.07878   0.08400
 Alpha virt. eigenvalues --    0.09033   0.09225   0.09383   0.10614   0.10957
 Alpha virt. eigenvalues --    0.11564   0.11878   0.12472   0.12655   0.12820

  Beta  occ. eigenvalues --  -88.77447 -14.24700 -14.20348 -14.20169 -14.17917
  Beta  occ. eigenvalues --  -10.12235 -10.10306 -10.10297 -10.10118 -10.09488
  Beta  occ. eigenvalues --  -10.08985 -10.07995 -10.07713 -10.07597 -10.07351
  Beta  occ. eigenvalues --  -10.06370  -7.86054  -5.82336  -5.81968  -5.81666
  Beta  occ. eigenvalues --   -0.90782  -0.81969  -0.78949  -0.77893  -0.74438
  Beta  occ. eigenvalues --   -0.68522  -0.65784  -0.64007  -0.62522  -0.57338
  Beta  occ. eigenvalues --   -0.56804  -0.50679  -0.49718  -0.47592  -0.46404
  Beta  occ. eigenvalues --   -0.44118  -0.41749  -0.40149  -0.39307  -0.37729
  Beta  occ. eigenvalues --   -0.36845  -0.34581  -0.34309  -0.33613  -0.32417
  Beta  occ. eigenvalues --   -0.31210  -0.30258  -0.29986  -0.29165  -0.28953
  Beta  occ. eigenvalues --   -0.28108  -0.27477  -0.26394  -0.26215  -0.24194
  Beta  occ. eigenvalues --   -0.23577  -0.19873  -0.18734  -0.15407  -0.15044
  Beta  occ. eigenvalues --   -0.14611  -0.13241  -0.07768
  Beta virt. eigenvalues --    0.06470   0.07014   0.07531   0.07794   0.08336
  Beta virt. eigenvalues --    0.08936   0.09466   0.09568   0.09761   0.10868
  Beta virt. eigenvalues --    0.11161   0.11777   0.11843   0.12641   0.12723

 Mulliken charges and spin densities:
               1          2
     1  C    1.284454  -1.845230
     2  C   -0.543390   0.429541
     3  N   -0.139041   0.077056
     4  C    0.904560  -0.917701
     5  C   -0.549419   0.322879
     6  N    0.017833  -0.017270
     7  N   -0.680087   0.251842
     8  N    0.121963   0.122573
     9  C   -0.443435   0.270930
    10  C    0.124454  -0.674877
    11  C    1.899755  -3.144563
    12  C    0.648995  -0.435267
    13  C   -2.043708   2.257826
    14  S    0.761286  -0.670047
    15  C    1.002906  -1.629669
    16  C   -1.923159   1.911914
    17  H   -0.201912   0.357922
    18  H    0.080831   0.075519
    19  H   -0.178789   0.332292
    20  H   -0.116860   0.418862
    21  H    0.200178   0.100973
    22  H   -0.221147   0.491747
    23  H    0.066091   0.179812
    24  H    0.301716  -0.115915
    25  H   -0.125062   0.262099
    26  H    0.028988   0.090551
    27  H    0.123564   0.032564
    28  H   -0.010543   0.164091
    29  H    0.122592   0.069142
    30  H   -0.045074   0.317560
    31  H   -0.292003   0.549194
    32  H   -1.176534   1.363649
 Sum of Mulliken charges =  -1.00000   1.00000

 Dipole moment (field-independent basis, Debye):
    X=              0.3250    Y=              0.4752    Z=             -4.6861  Tot=              4.7214
 Quadrupole moment (field-independent basis, Debye-Ang):
   XX=           -156.4094   YY=           -149.3442   ZZ=           -147.6849
   XY=              6.3594   XZ=             -6.8835   YZ=              5.2042

 Summary of Natural Population Analysis:

                                       Natural Population
                Natural  -----------------------------------------------
    Atom  No    Charge         Core      Valence    Rydberg      Total
 -----------------------------------------------------------------------
      C    1   -0.30572      0.99963     2.30060    0.00549     3.30572
      C    2    0.18796      0.99964     1.79573    0.01667     2.81204
      N    3   -0.28004      0.99967     2.77183    0.00853     3.78004
      C    4    0.14261      0.99943     1.84054    0.01741     2.85739
      C    5    0.10473      0.99943     1.87930    0.01654     2.89527
      N    6   -0.27020      0.99963     2.76090    0.00968     3.77020
      N    7   -0.42634      0.99974     2.91672    0.00989     3.92634
      N    8   -0.32847      0.99968     2.81612    0.01267     3.82847
      C    9   -0.01021      0.99959     1.99958    0.01104     3.01021
      C   10   -0.28435      0.99964     2.27866    0.00605     3.28435
      C   11   -0.20097      0.99957     2.19218    0.00921     3.20097
      C   12   -0.04622      0.99947     2.03384    0.01291     3.04622
      C   13   -0.18166      0.99944     2.17197    0.01025     3.18166
      S   14    0.20564      4.99944     2.77446    0.02045     7.79436
      C   15   -0.19223      0.99954     2.18046    0.01223     3.19223
      C   16   -0.13112      0.99948     2.11831    0.01333     3.13112
      H   17    0.10434      0.00000     0.39431    0.00135     0.39566
      H   18    0.11139      0.00000     0.38758    0.00104     0.38861
      H   19    0.10380      0.00000     0.39503    0.00118     0.39620
      H   20    0.20458      0.00000     0.29241    0.00301     0.29542
      H   21    0.18826      0.00000     0.30792    0.00382     0.31174
      H   22    0.18332      0.00000     0.31402    0.00266     0.31668
      H   23    0.18318      0.00000     0.31299    0.00384     0.31682
      H   24    0.10405      0.00000     0.39363    0.00231     0.39595
      H   25    0.09729      0.00000     0.40173    0.00098     0.40271
      H   26    0.09486      0.00000     0.40445    0.00069     0.40514
      H   27    0.10341      0.00000     0.39572    0.00087     0.39659
      H   28    0.10352      0.00000     0.39551    0.00097     0.39648
      H   29    0.10080      0.00000     0.39784    0.00136     0.39920
      H   30    0.11249      0.00000     0.38632    0.00119     0.38751
      H   31    0.11075      0.00000     0.38806    0.00119     0.38925
      H   32    0.11057      0.00000     0.38677    0.00266     0.38943
 =======================================================================
   * Total *    0.00000     19.99303    42.78549    0.22148    63.00000

 Normal termination of Gaussian 16 at Fri Dec 11 02:35:14 2020.
