 Gaussian 16, Revision A.03,

 -----------------------------------------------------------
 # opt freq B3LYP/6-31G(d) empiricaldispersion=gd3bj scf=xqc
 -----------------------------------------------------------

 ------------------------------
 CID_63574000_JID_6941_neutraal
 ------------------------------
 Symbolic Z-matrix:
 Charge =  0 Multiplicity = 1

 SCF Done:  E(RB3LYP) =  -745.305417914     A.U. after   15 cycles
 SCF Done:  E(RB3LYP) =  -745.309993408     A.U. after   14 cycles
 SCF Done:  E(RB3LYP) =  -745.312016155     A.U. after   14 cycles
 SCF Done:  E(RB3LYP) =  -745.315067710     A.U. after   13 cycles
 SCF Done:  E(RB3LYP) =  -745.315820392     A.U. after   13 cycles
 SCF Done:  E(RB3LYP) =  -745.316020403     A.U. after   13 cycles
 SCF Done:  E(RB3LYP) =  -745.316353730     A.U. after   13 cycles
 SCF Done:  E(RB3LYP) =  -745.317534084     A.U. after   12 cycles
 SCF Done:  E(RB3LYP) =  -745.317661107     A.U. after   11 cycles
 SCF Done:  E(RB3LYP) =  -745.317690897     A.U. after   11 cycles
 SCF Done:  E(RB3LYP) =  -745.317735983     A.U. after   10 cycles
 SCF Done:  E(RB3LYP) =  -745.317746768     A.U. after   10 cycles
 SCF Done:  E(RB3LYP) =  -745.317755414     A.U. after   10 cycles
 SCF Done:  E(RB3LYP) =  -745.317766566     A.U. after   10 cycles
 SCF Done:  E(RB3LYP) =  -745.317771113     A.U. after    9 cycles
 Optimization completed.
    -- Stationary point found.
 Normal termination of Gaussian 16 at Fri Dec 11 00:21:56 2020.

 --------------------------------------------------------------------
 #N Geom=AllCheck Guess=TCheck SCRF=Check GenChk RB3LYP/6-31G(d) Freq
 --------------------------------------------------------------------

 Structure from the checkpoint file:  "JID_6941.chk"
 ------------------------------
 CID_63574000_JID_6941_neutraal
 ------------------------------
 Charge =  0 Multiplicity = 1

 SCF Done:  E(RB3LYP) =  -745.317771113     A.U. after    1 cycles

  Exact polarizability: 142.510   6.980 143.504 -12.551   1.843 120.225
 Approx polarizability: 193.428   2.099 225.656 -25.389   8.537 187.261

                      1                      2                      3
                      A                      A                      A
 Frequencies --     35.5533                52.9979                69.1994
 Red. masses --      4.3105                 4.0259                 3.7624
 Frc consts  --      0.0032                 0.0067                 0.0106
 IR Inten    --      0.4160                 0.8091                 0.5868

                      4                      5                      6
                      A                      A                      A
 Frequencies --     80.4428               106.9045               123.6181
 Red. masses --      3.5143                 2.2858                 4.4050
 Frc consts  --      0.0134                 0.0154                 0.0397
 IR Inten    --      2.3703                 0.3115                 1.1015

                      7                      8                      9
                      A                      A                      A
 Frequencies --    138.8369               162.2159               198.6096
 Red. masses --      5.0831                 4.1656                 2.4973
 Frc consts  --      0.0577                 0.0646                 0.0580
 IR Inten    --      1.0013                 4.2358                 1.2973

                     10                     11                     12
                      A                      A                      A
 Frequencies --    211.6544               220.7040               228.1360
 Red. masses --      3.0843                 1.0876                 1.8878
 Frc consts  --      0.0814                 0.0312                 0.0579
 IR Inten    --      3.1167                 0.1992                 0.5103

                     13                     14                     15
                      A                      A                      A
 Frequencies --    262.6492               265.8279               287.7038
 Red. masses --      1.6237                 1.6597                 2.5016
 Frc consts  --      0.0660                 0.0691                 0.1220
 IR Inten    --      0.5639                 2.2757                 3.5259

                     16                     17                     18
                      A                      A                      A
 Frequencies --    295.9463               315.4852               331.3038
 Red. masses --      2.8014                 2.4969                 2.5717
 Frc consts  --      0.1446                 0.1464                 0.1663
 IR Inten    --      4.6170                 4.4597                 0.9869

                     19                     20                     21
                      A                      A                      A
 Frequencies --    373.1679               407.8466               420.8024
 Red. masses --      3.3886                 1.6162                 1.6899
 Frc consts  --      0.2780                 0.1584                 0.1763
 IR Inten    --      2.9285                 4.9973                10.6832

                     22                     23                     24
                      A                      A                      A
 Frequencies --    453.6080               506.2774               550.3761
 Red. masses --      3.3776                 3.3402                 3.2568
 Frc consts  --      0.4095                 0.5044                 0.5812
 IR Inten    --      4.6733                12.6596                22.3062

                     25                     26                     27
                      A                      A                      A
 Frequencies --    578.7277               587.8409               622.9540
 Red. masses --      2.4905                 1.3902                 3.9670
 Frc consts  --      0.4915                 0.2830                 0.9070
 IR Inten    --     11.0661               163.5600                 7.1490

                     28                     29                     30
                      A                      A                      A
 Frequencies --    654.4814               689.0740               738.9318
 Red. masses --      5.6503                 6.7842                 5.0893
 Frc consts  --      1.4260                 1.8979                 1.6373
 IR Inten    --      6.4202                17.5506                 4.9499

                     31                     32                     33
                      A                      A                      A
 Frequencies --    757.1085               782.1465               785.9170
 Red. masses --      1.5017                 2.1778                 3.5618
 Frc consts  --      0.5072                 0.7849                 1.2962
 IR Inten    --     17.3079                30.4774                10.6782

                     34                     35                     36
                      A                      A                      A
 Frequencies --    806.9791               845.1650               886.3036
 Red. masses --      1.4555                 1.2888                 2.0245
 Frc consts  --      0.5585                 0.5424                 0.9370
 IR Inten    --      2.6583                 3.1365                 9.3185

                     37                     38                     39
                      A                      A                      A
 Frequencies --    917.9854               967.1527               998.9927
 Red. masses --      6.2229                 1.7821                 1.7611
 Frc consts  --      3.0897                 0.9822                 1.0355
 IR Inten    --     12.0279                12.8739                91.4715

                     40                     41                     42
                      A                      A                      A
 Frequencies --   1002.1336              1005.7976              1030.4094
 Red. masses --      1.2933                 1.9427                 1.9726
 Frc consts  --      0.7653                 1.1579                 1.2340
 IR Inten    --      6.9446                65.4685                 4.7233

                     43                     44                     45
                      A                      A                      A
 Frequencies --   1053.8797              1082.3260              1103.7864
 Red. masses --      2.3546                 2.0208                 1.8443
 Frc consts  --      1.5408                 1.3947                 1.3239
 IR Inten    --     12.8879                 6.7166                32.5814

                     46                     47                     48
                      A                      A                      A
 Frequencies --   1113.6707              1156.0034              1164.0702
 Red. masses --      2.2489                 1.8095                 3.6293
 Frc consts  --      1.6434                 1.4247                 2.8975
 IR Inten    --     10.7538                11.5095                18.8945

                     49                     50                     51
                      A                      A                      A
 Frequencies --   1176.4757              1195.0603              1203.5341
 Red. masses --      1.6618                 2.4569                 1.9431
 Frc consts  --      1.3552                 2.0674                 1.6583
 IR Inten    --     11.3893                24.3327                 0.7254

                     52                     53                     54
                      A                      A                      A
 Frequencies --   1218.1990              1245.4361              1264.2632
 Red. masses --      4.0248                 2.4015                 2.1956
 Frc consts  --      3.5191                 2.1947                 2.0676
 IR Inten    --     11.1370                 9.6184                10.1976

                     55                     56                     57
                      A                      A                      A
 Frequencies --   1275.5655              1316.3877              1325.6473
 Red. masses --      1.9612                 1.2457                 1.3796
 Frc consts  --      1.8801                 1.2718                 1.4285
 IR Inten    --      4.8503                 4.0271                11.4936

                     58                     59                     60
                      A                      A                      A
 Frequencies --   1358.3356              1375.7268              1398.6788
 Red. masses --      1.3486                 2.4299                 1.1808
 Frc consts  --      1.4660                 2.7095                 1.3610
 IR Inten    --      4.6808                46.8940                 9.8755

                     61                     62                     63
                      A                      A                      A
 Frequencies --   1401.5526              1427.4883              1430.7313
 Red. masses --      1.4126                 1.5390                 1.3205
 Frc consts  --      1.6349                 1.8477                 1.5926
 IR Inten    --      2.2840                66.7095                17.7824

                     64                     65                     66
                      A                      A                      A
 Frequencies --   1445.0346              1449.1625              1456.5038
 Red. masses --      1.2773                 1.2402                 1.7249
 Frc consts  --      1.5715                 1.5346                 2.1559
 IR Inten    --      7.7481                10.3201                 7.9192

                     67                     68                     69
                      A                      A                      A
 Frequencies --   1466.9384              1487.3741              1514.4413
 Red. masses --      2.5775                 1.2669                 1.0612
 Frc consts  --      3.2679                 1.6513                 1.4340
 IR Inten    --     80.8440                 4.8824                 2.6883

                     70                     71                     72
                      A                      A                      A
 Frequencies --   1520.7407              1521.1784              1531.3422
 Red. masses --      1.0719                 1.0623                 1.0655
 Frc consts  --      1.4605                 1.4483                 1.4721
 IR Inten    --      6.7704                 3.7513                 9.2340

                     73                     74                     75
                      A                      A                      A
 Frequencies --   1535.1131              1537.8545              1541.1823
 Red. masses --      1.1017                 1.2411                 2.3941
 Frc consts  --      1.5297                 1.7293                 3.3505
 IR Inten    --      9.4180                10.1038                30.3912

                     76                     77                     78
                      A                      A                      A
 Frequencies --   1544.4683              1548.9245              1637.1942
 Red. masses --      1.0816                 1.0666                 6.8318
 Frc consts  --      1.5201                 1.5076                10.7891
 IR Inten    --      4.9452                 4.5229                10.8976

                     79                     80                     81
                      A                      A                      A
 Frequencies --   1728.8873              1756.3580              2951.2622
 Red. masses --      1.0740                 7.8194                 1.0729
 Frc consts  --      1.8915                14.2118                 5.5056
 IR Inten    --     21.7114               243.4035                48.2898

                     82                     83                     84
                      A                      A                      A
 Frequencies --   2986.5146              3022.7137              3034.2879
 Red. masses --      1.0565                 1.0856                 1.0658
 Frc consts  --      5.5522                 5.8439                 5.7816
 IR Inten    --     75.6815                25.2949                28.9396

                     85                     86                     87
                      A                      A                      A
 Frequencies --   3049.2338              3056.0203              3082.1665
 Red. masses --      1.0359                 1.0364                 1.0822
 Frc consts  --      5.6748                 5.7026                 6.0570
 IR Inten    --     26.5987                24.6580                37.3768

                     88                     89                     90
                      A                      A                      A
 Frequencies --   3086.2490              3104.6859              3114.1554
 Red. masses --      1.0954                 1.0890                 1.1011
 Frc consts  --      6.1476                 6.1848                 6.2915
 IR Inten    --      8.7579                 1.7527                47.0683

                     91                     92                     93
                      A                      A                      A
 Frequencies --   3121.8986              3129.5629              3130.5085
 Red. masses --      1.1004                 1.1030                 1.0987
 Frc consts  --      6.3190                 6.3647                 6.3442
 IR Inten    --     15.2518                29.4341                34.3043

                     94                     95                     96
                      A                      A                      A
 Frequencies --   3147.6730              3261.3300              3301.4528
 Red. masses --      1.0978                 1.0927                 1.1037
 Frc consts  --      6.4086                 6.8474                 7.0879
 IR Inten    --     22.8534                 2.2944                 1.1581

                     97                     98                     99
                      A                      A                      A
 Frequencies --   3372.2502              3518.6305              3604.9910
 Red. masses --      1.0548                 1.0875                 1.0771
 Frc consts  --      7.0674                 7.9330                 8.2477
 IR Inten    --    168.5672                21.3362                36.9486

 - Thermochemistry -
 -------------------
 Temperature   298.150 Kelvin.  Pressure   1.00000 Atm.
 Atom     1 has atomic number  6 and mass  12.00000

 Molecular mass:   225.14773 amu.
 Principal axes and moments of inertia in atomic units:
                           1         2         3
     Eigenvalues --  2737.033894021.970624640.81754
           X            0.99971   0.01598   0.01810
           Y           -0.01638   0.99962   0.02207
           Z           -0.01774  -0.02236   0.99959
 This molecule is an asymmetric top.
 Rotational symmetry number  1.
 Warning -- assumption of classical behavior for rotation
           may cause significant error
 Rotational temperatures (Kelvin)      0.03165     0.02154     0.01866
 Rotational constants (GHZ):           0.65938     0.44872     0.38888
 Zero-point vibrational energy     797568.7 (Joules/Mol)
                                  190.62349 (Kcal/Mol)
 Warning -- explicit consideration of  26 degrees of freedom as
           vibrations may cause significant error
 Vibrational temperatures:     51.15    76.25    99.56   115.74   153.81
          (Kelvin)            177.86   199.76   233.39   285.75   304.52
                              317.54   328.24   377.89   382.47   413.94
                              425.80   453.91   476.67   536.91   586.80
                              605.44   652.64   728.42   791.87   832.66
                              845.77   896.29   941.65   991.42  1063.16
                             1089.31  1125.33  1130.76  1161.06  1216.00
                             1275.19  1320.78  1391.52  1437.33  1441.85
                             1447.12  1482.53  1516.30  1557.23  1588.10
                             1602.32  1663.23  1674.84  1692.69  1719.43
                             1731.62  1752.72  1791.90  1818.99  1835.25
                             1893.99  1907.31  1954.34  1979.36  2012.39
                             2016.52  2053.84  2058.50  2079.08  2085.02
                             2095.58  2110.60  2140.00  2178.94  2188.01
                             2188.64  2203.26  2208.69  2212.63  2217.42
                             2222.15  2228.56  2355.56  2487.48  2527.01
                             4246.21  4296.93  4349.01  4365.66  4387.17
                             4396.93  4434.55  4440.42  4466.95  4480.58
                             4491.72  4502.74  4504.10  4528.80  4692.33
                             4750.05  4851.92  5062.52  5186.78

 Zero-point correction=                           0.303778 (Hartree/Particle)
 Thermal correction to Energy=                    0.320815
 Thermal correction to Enthalpy=                  0.321759
 Thermal correction to Gibbs Free Energy=         0.259446
 Sum of electronic and zero-point Energies=           -745.013993
 Sum of electronic and thermal Energies=              -744.996956
 Sum of electronic and thermal Enthalpies=            -744.996012
 Sum of electronic and thermal Free Energies=         -745.058326

                     E (Thermal)             CV                S
                      KCal/Mol        Cal/Mol-Kelvin    Cal/Mol-Kelvin
 Total                  201.314             63.880            131.150
 Electronic               0.000              0.000              0.000
 Translational            0.889              2.981             42.137
 Rotational               0.889              2.981             32.302
 Vibrational            199.537             57.919             56.711
 Vibration     1          0.594              1.982              5.493
 Vibration     2          0.596              1.976              4.702
 Vibration     3          0.598              1.969              4.176
 Vibration     4          0.600              1.962              3.880
 Vibration     5          0.606              1.944              3.324
 Vibration     6          0.610              1.929              3.043
 Vibration     7          0.614              1.915              2.820
 Vibration     8          0.622              1.889              2.524
 Vibration     9          0.637              1.842              2.146
 Vibration    10          0.643              1.823              2.029
 Vibration    11          0.647              1.810              1.953
 Vibration    12          0.651              1.798              1.894
 Vibration    13          0.670              1.741              1.644
 Vibration    14          0.672              1.736              1.623
 Vibration    15          0.685              1.697              1.487
 Vibration    16          0.690              1.681              1.440
 Vibration    17          0.703              1.644              1.333
 Vibration    18          0.714              1.613              1.254
 Vibration    19          0.745              1.527              1.067
 Vibration    20          0.772              1.453              0.934
 Vibration    21          0.783              1.425              0.889
 Vibration    22          0.812              1.353              0.785
 Vibration    23          0.862              1.236              0.643
 Vibration    24          0.906              1.139              0.543
 Vibration    25          0.935              1.077              0.488
 Vibration    26          0.945              1.058              0.471

                           ! Non-Optimized Parameters !
 Normal termination of Gaussian 16 at Fri Dec 11 00:35:42 2020.

 ----------------------------------------------------------------------
 # B3LYP/6-311++G(d,p) empiricaldispersion=gd3bj scf=xqc pop=npa geom=c
 heck
 ----------------------------------------------------------------------

 --------------------------------------
 CID_63574000_JID_6941_Energie_neutraal
 --------------------------------------
 Structure from the checkpoint file:  "JID_6941.chk"
 Charge =  0 Multiplicity = 1

 SCF Done:  E(RB3LYP) =  -745.536438371     A.U. after   16 cycles
 Normal termination of Gaussian 16 at Fri Dec 11 00:41:39 2020.

 ----------------------------------------------------------------------
 # B3LYP/6-311++G(d,p) empiricaldispersion=gd3bj scf=xqc pop=npa geom=c
 heck
 ----------------------------------------------------------------------

 ------------------------------------
 CID_63574000_JID_6941_Energie_kation
 ------------------------------------
 Structure from the checkpoint file:  "JID_6941.chk"
 Charge =  1 Multiplicity = 2

 SCF Done:  E(UB3LYP) =  -745.241072208     A.U. after   23 cycles
 Normal termination of Gaussian 16 at Fri Dec 11 00:53:13 2020.
 Gaussian 16:  ES64L-G16RevA.03 25-Dec-2016

 ----------------------------------------------------------------------
 # B3LYP/6-311++G(d,p) empiricaldispersion=gd3bj scf=xqc pop=npa geom=c
 heck
 ----------------------------------------------------------------------

 -----------------------------------
 CID_63574000_JID_6941_Energie_anion
 -----------------------------------
 Structure from the checkpoint file:  "JID_6941.chk"
 Charge = -1 Multiplicity = 2

                         Standard orientation:
 ---------------------------------------------------------------------
 Center     Atomic      Atomic             Coordinates (Angstroms)
 Number     Number       Type             X           Y           Z
 ---------------------------------------------------------------------
      1          6           0       -2.543154   -1.816961   -1.485824
      2          6           0       -2.529783   -0.814942   -0.326913
      3          6           0       -1.595706    0.379667   -0.588713
      4          6           0       -2.226362    1.413164   -1.534428
      5          7           0       -1.113346    0.947499    0.696564
      6          6           0       -2.145834    1.645061    1.459512
      7          6           0        0.082228    1.778994    0.577135
      8          6           0        1.294211    1.088257    0.010986
      9          6           0        1.647996   -0.241512   -0.053870
     10          8           0        2.853732   -0.362077   -0.702074
     11          6           0        3.276624    0.883484   -1.020726
     12          6           0        2.363972    1.809221   -0.621502
     13          6           0        1.007763   -1.574325    0.182353
     14          8           0        1.011360   -2.427764   -0.700108
     15          7           0        0.479466   -1.821420    1.414998
     16          7           0        0.331586   -0.930785    2.491917
     17          1           0       -2.868412   -1.351212   -2.423349
     18          1           0       -3.228851   -2.645343   -1.276823
     19          1           0       -1.542809   -2.235486   -1.640866
     20          1           0       -3.550813   -0.461396   -0.128545
     21          1           0       -2.184040   -1.320504    0.581610
     22          1           0       -0.704824   -0.014358   -1.083397
     23          1           0       -3.157911    1.821092   -1.126830
     24          1           0       -1.546295    2.247892   -1.736718
     25          1           0       -2.462512    0.946525   -2.495797
     26          1           0       -1.771434    1.855262    2.467763
     27          1           0       -2.455322    2.603154    1.008572
     28          1           0       -3.027976    1.008321    1.555204
     29          1           0       -0.099145    2.690815   -0.021219
     30          1           0        0.318726    2.139203    1.589057
     31          1           0        4.232911    0.943015   -1.517532
     32          1           0        2.421217    2.880463   -0.758341
     33          1           0        0.045726   -2.728511    1.528896
     34          1           0        1.248560   -0.558773    2.733677
     35          1           0       -0.263205   -0.169139    2.149681
 ---------------------------------------------------------------------

 SCF Done:  E(UB3LYP) =  -745.528317007     A.U. after   33 cycles
 SCF Done:  E(UB3LYP) =  -745.528317007     a.u. after    1 cycles

 The electronic state is 2-A.
 Alpha  occ. eigenvalues --  -19.07922 -18.97835 -14.25160 -14.22298 -14.21222
 Alpha  occ. eigenvalues --  -10.16629 -10.11929 -10.11928 -10.10244 -10.09730
 Alpha  occ. eigenvalues --  -10.08684 -10.07925 -10.06910 -10.06563 -10.06088
 Alpha  occ. eigenvalues --  -10.05899  -1.00896  -0.93352  -0.87044  -0.83056
 Alpha  occ. eigenvalues --   -0.71270  -0.69249  -0.68725  -0.65732  -0.62544
 Alpha  occ. eigenvalues --   -0.60936  -0.56836  -0.53593  -0.52018  -0.49384
 Alpha  occ. eigenvalues --   -0.46519  -0.45280  -0.42271  -0.41120  -0.40057
 Alpha  occ. eigenvalues --   -0.38047  -0.37537  -0.36723  -0.35465  -0.34343
 Alpha  occ. eigenvalues --   -0.34246  -0.32920  -0.32035  -0.31298  -0.30424
 Alpha  occ. eigenvalues --   -0.29155  -0.28873  -0.28780  -0.28348  -0.26921
 Alpha  occ. eigenvalues --   -0.26736  -0.26458  -0.24219  -0.23379  -0.22603
 Alpha  occ. eigenvalues --   -0.18551  -0.17308  -0.15777  -0.15371  -0.13004
 Alpha  occ. eigenvalues --   -0.12165   0.04318
 Alpha virt. eigenvalues --    0.06658   0.07099   0.07539   0.08033   0.08797
 Alpha virt. eigenvalues --    0.09231   0.09767   0.10246   0.10816   0.11548
 Alpha virt. eigenvalues --    0.11935   0.12184   0.12554   0.13423   0.13774

  Beta  occ. eigenvalues --  -19.07820 -18.97756 -14.25131 -14.22276 -14.21221
  Beta  occ. eigenvalues --  -10.16552 -10.11893 -10.11854 -10.10223 -10.09730
  Beta  occ. eigenvalues --  -10.08645 -10.07856 -10.06924 -10.06553 -10.06081
  Beta  occ. eigenvalues --  -10.05868  -1.00728  -0.93212  -0.86963  -0.83041
  Beta  occ. eigenvalues --   -0.71161  -0.69192  -0.68659  -0.65593  -0.62515
  Beta  occ. eigenvalues --   -0.60860  -0.56770  -0.53424  -0.51951  -0.49324
  Beta  occ. eigenvalues --   -0.46459  -0.45170  -0.42197  -0.41060  -0.39983
  Beta  occ. eigenvalues --   -0.37987  -0.37451  -0.36549  -0.35419  -0.34289
  Beta  occ. eigenvalues --   -0.33984  -0.32835  -0.31974  -0.31221  -0.30301
  Beta  occ. eigenvalues --   -0.29108  -0.28812  -0.28739  -0.28037  -0.26865
  Beta  occ. eigenvalues --   -0.26679  -0.26397  -0.24175  -0.23359  -0.22574
  Beta  occ. eigenvalues --   -0.18500  -0.17032  -0.15593  -0.15136  -0.12772
  Beta  occ. eigenvalues --   -0.11982
  Beta virt. eigenvalues --    0.06687   0.07407   0.07825   0.08105   0.08431
  Beta virt. eigenvalues --    0.09216   0.09617   0.09887   0.10703   0.11251
  Beta virt. eigenvalues --    0.11779   0.12241   0.12387   0.12792   0.13670

 Mulliken charges and spin densities:
               1          2
     1  C   -0.489515  -0.218586
     2  C    0.098624  -0.206583
     3  C   -1.074957   0.882883
     4  C    0.634560  -1.224652
     5  N   -0.109378   0.170081
     6  C    0.963389  -1.308813
     7  C    1.135045  -1.945451
     8  C   -0.368320   1.177356
     9  C   -0.247810   0.002879
    10  O    0.029835   0.023555
    11  C   -0.268616  -0.011408
    12  C   -0.107528   0.269485
    13  C    0.020273  -0.463614
    14  O   -0.258802   0.028133
    15  N   -0.188319   0.042122
    16  N   -0.370735  -0.062525
    17  H    0.103764   0.016826
    18  H    0.064527   0.058857
    19  H    0.132728   0.047538
    20  H   -0.040409   0.184843
    21  H    0.066016   0.089438
    22  H    0.285486  -0.083328
    23  H   -0.133217   0.289564
    24  H   -0.087173   0.230642
    25  H    0.022555   0.116026
    26  H   -0.347227   0.509770
    27  H   -0.455253   0.602538
    28  H   -0.044800   0.191333
    29  H    0.225489  -0.074721
    30  H   -0.397691   0.617661
    31  H   -0.004756   0.158652
    32  H   -0.652507   0.822371
    33  H    0.302947   0.015031
    34  H    0.010713   0.255786
    35  H    0.551059  -0.203691
 Sum of Mulliken charges =  -1.00000   1.00000

 Dipole moment (field-independent basis, Debye):
    X=              0.0118    Y=             -3.2560    Z=             -1.8390  Tot=              3.7395
 Quadrupole moment (field-independent basis, Debye-Ang):
   XX=           -143.1834   YY=           -150.0888   ZZ=           -136.6031
   XY=              8.8303   XZ=              0.7375   YZ=             -8.9321

 Summary of Natural Population Analysis:

                                       Natural Population
                Natural  -----------------------------------------------
    Atom  No    Charge         Core      Valence    Rydberg      Total
 -----------------------------------------------------------------------
      C    1   -0.28766      0.99966     2.28364    0.00435     3.28766
      C    2   -0.19413      0.99961     2.18648    0.00804     3.19413
      C    3   -0.00952      0.99957     1.99727    0.01268     3.00952
      C    4   -0.29675      0.99964     2.29149    0.00562     3.29675
      N    5   -0.29626      0.99973     2.78021    0.01633     3.79626
      C    6   -0.17932      0.99963     2.17081    0.00888     3.17932
      C    7   -0.09316      0.99956     2.08025    0.01334     3.09316
      C    8   -0.04085      0.99947     2.02995    0.01143     3.04085
      C    9    0.10329      0.99936     1.88047    0.01688     2.89671
      O   10   -0.21579      0.99986     3.20834    0.00759     4.21579
      C   11    0.08100      0.99951     1.90532    0.01416     2.91900
      C   12   -0.15450      0.99951     2.14564    0.00935     3.15450
      C   13    0.32082      0.99961     1.65675    0.02282     2.67918
      O   14   -0.31294      0.99988     3.30775    0.00531     4.31294
      N   15   -0.22469      0.99966     2.71235    0.01268     3.72469
      N   16   -0.32801      0.99977     2.81599    0.01225     3.82801
      H   17    0.09255      0.00000     0.40651    0.00094     0.40745
      H   18    0.09476      0.00000     0.40451    0.00073     0.40524
      H   19    0.10946      0.00000     0.38956    0.00098     0.39054
      H   20    0.09109      0.00000     0.40782    0.00109     0.40891
      H   21    0.10293      0.00000     0.39560    0.00147     0.39707
      H   22    0.10332      0.00000     0.39405    0.00263     0.39668
      H   23    0.09864      0.00000     0.40030    0.00106     0.40136
      H   24    0.10263      0.00000     0.39648    0.00090     0.39737
      H   25    0.10055      0.00000     0.39863    0.00082     0.39945
      H   26    0.09813      0.00000     0.40039    0.00148     0.40187
      H   27    0.08718      0.00000     0.41103    0.00179     0.41282
      H   28    0.09729      0.00000     0.40141    0.00130     0.40271
      H   29    0.09190      0.00000     0.40648    0.00162     0.40810
      H   30    0.10836      0.00000     0.38819    0.00345     0.39164
      H   31    0.09175      0.00000     0.40740    0.00085     0.40825
      H   32    0.10925      0.00000     0.38958    0.00117     0.39075
      H   33    0.18548      0.00000     0.31240    0.00212     0.31452
      H   34    0.17424      0.00000     0.32347    0.00229     0.32576
      H   35    0.18895      0.00000     0.30800    0.00304     0.31105
 =======================================================================
   * Total *   -0.00000     15.99403    44.79453    0.21144    61.00000

 Normal termination of Gaussian 16 at Fri Dec 11 01:09:46 2020.
