 Gaussian 16, Revision A.03,

 -----------------------------------------------------------
 # opt freq B3LYP/6-31G(d) empiricaldispersion=gd3bj scf=xqc
 -----------------------------------------------------------

 ------------------------------
 CID_81324775_JID_6411_neutraal
 ------------------------------
 Symbolic Z-matrix:
 Charge =  0 Multiplicity = 1

 SCF Done:  E(RB3LYP) =  -786.330110494     A.U. after   14 cycles
 SCF Done:  E(RB3LYP) =  -786.335223729     A.U. after   12 cycles
 SCF Done:  E(RB3LYP) =  -786.334434735     A.U. after   13 cycles
 SCF Done:  E(RB3LYP) =  -786.335412183     A.U. after   13 cycles
 SCF Done:  E(RB3LYP) =  -786.336245939     A.U. after   12 cycles
 SCF Done:  E(RB3LYP) =  -786.336141726     A.U. after   12 cycles
 SCF Done:  E(RB3LYP) =  -786.336465179     A.U. after   12 cycles
 SCF Done:  E(RB3LYP) =  -786.336512340     A.U. after   12 cycles
 SCF Done:  E(RB3LYP) =  -786.336589174     A.U. after   10 cycles
 SCF Done:  E(RB3LYP) =  -786.336676030     A.U. after   12 cycles
 SCF Done:  E(RB3LYP) =  -786.336720970     A.U. after    9 cycles
 SCF Done:  E(RB3LYP) =  -786.336722172     A.U. after    9 cycles
 SCF Done:  E(RB3LYP) =  -786.336722221     A.U. after    9 cycles
 SCF Done:  E(RB3LYP) =  -786.336722524     A.U. after    9 cycles
 SCF Done:  E(RB3LYP) =  -786.336722560     A.U. after    7 cycles
 Optimization completed.
    -- Stationary point found.
 Normal termination of Gaussian 16 at Thu Dec 10 22:46:29 2020.

 --------------------------------------------------------------------
 #N Geom=AllCheck Guess=TCheck SCRF=Check GenChk RB3LYP/6-31G(d) Freq
 --------------------------------------------------------------------

 Structure from the checkpoint file:  "JID_6411.chk"
 ------------------------------
 CID_81324775_JID_6411_neutraal
 ------------------------------
 Charge =  0 Multiplicity = 1

 SCF Done:  E(RB3LYP) =  -786.336722560     A.U. after    1 cycles

  Exact polarizability: 146.663  -0.781 132.104   2.241  -5.931 108.977
 Approx polarizability: 182.541  -9.260 190.000   4.535 -18.354 174.567

                      1                      2                      3
                      A                      A                      A
 Frequencies --     31.7162                42.1025                46.9436
 Red. masses --      3.6278                 7.3059                 3.7103
 Frc consts  --      0.0022                 0.0076                 0.0048
 IR Inten    --      0.5698                 3.2060                 0.1361

                      4                      5                      6
                      A                      A                      A
 Frequencies --     52.4329                69.8587                80.5396
 Red. masses --      4.8761                 3.6052                 4.6768
 Frc consts  --      0.0079                 0.0104                 0.0179
 IR Inten    --      2.0139                 0.1498                 0.2718

                      7                      8                      9
                      A                      A                      A
 Frequencies --    101.3416               124.2422               160.1835
 Red. masses --      4.8652                 2.0686                 2.6031
 Frc consts  --      0.0294                 0.0188                 0.0394
 IR Inten    --      2.2471                 1.2168                 1.2166

                     10                     11                     12
                      A                      A                      A
 Frequencies --    192.9697               218.5614               224.9228
 Red. masses --      2.9665                 1.5166                 1.2671
 Frc consts  --      0.0651                 0.0427                 0.0378
 IR Inten    --      0.1881                 0.4376                 0.0948

                     13                     14                     15
                      A                      A                      A
 Frequencies --    245.9933               276.7938               313.6263
 Red. masses --      2.2806                 2.2013                 4.7333
 Frc consts  --      0.0813                 0.0994                 0.2743
 IR Inten    --      0.1471                 1.5401                 1.4143

                     16                     17                     18
                      A                      A                      A
 Frequencies --    331.7728               355.4450               387.4896
 Red. masses --      4.4389                 2.1927                 3.9711
 Frc consts  --      0.2879                 0.1632                 0.3513
 IR Inten    --      1.1819                 1.1269                14.9909

                     19                     20                     21
                      A                      A                      A
 Frequencies --    408.0199               433.5012               451.7440
 Red. masses --      3.1878                 2.5387                 2.7035
 Frc consts  --      0.3127                 0.2811                 0.3251
 IR Inten    --      0.7152                 1.6349                 8.4106

                     22                     23                     24
                      A                      A                      A
 Frequencies --    508.8995               538.3900               603.4303
 Red. masses --      2.0276                 2.9634                 3.3763
 Frc consts  --      0.3094                 0.5061                 0.7243
 IR Inten    --     14.6274                 3.5604                57.5883

                     25                     26                     27
                      A                      A                      A
 Frequencies --    637.1634               679.3518               702.5676
 Red. masses --      2.4529                 2.5124                 1.8347
 Frc consts  --      0.5867                 0.6832                 0.5336
 IR Inten    --     10.6693                36.4065                74.1374

                     28                     29                     30
                      A                      A                      A
 Frequencies --    721.6651               745.0174               784.1765
 Red. masses --      4.2591                 3.9685                 1.5701
 Frc consts  --      1.3069                 1.2978                 0.5688
 IR Inten    --     12.9230                 1.0147                 9.3585

                     31                     32                     33
                      A                      A                      A
 Frequencies --    815.2233               825.2263               850.6340
 Red. masses --      2.5255                 2.9297                 4.0819
 Frc consts  --      0.9889                 1.1755                 1.7402
 IR Inten    --      0.8460                 4.1789                 1.6813

                     34                     35                     36
                      A                      A                      A
 Frequencies --    869.0726               889.5414               905.2256
 Red. masses --      2.7695                 2.3089                 1.6402
 Frc consts  --      1.2324                 1.0764                 0.7919
 IR Inten    --      3.0663                14.4779                 2.8663

                     37                     38                     39
                      A                      A                      A
 Frequencies --    921.1025               940.8028               965.3105
 Red. masses --      1.8608                 1.9514                 2.2839
 Frc consts  --      0.9302                 1.0176                 1.2539
 IR Inten    --      6.8423                 0.1588                22.9512

                     40                     41                     42
                      A                      A                      A
 Frequencies --    981.6177              1016.2463              1025.4570
 Red. masses --      1.8248                 2.5914                 2.2462
 Frc consts  --      1.0360                 1.5768                 1.3917
 IR Inten    --     18.2929                 6.7143                45.2133

                     43                     44                     45
                      A                      A                      A
 Frequencies --   1064.6564              1075.8172              1108.8554
 Red. masses --      1.9739                 1.5365                 2.2019
 Frc consts  --      1.3182                 1.0478                 1.5952
 IR Inten    --      1.6439                 0.1867                84.2745

                     46                     47                     48
                      A                      A                      A
 Frequencies --   1122.3335              1126.1154              1147.9434
 Red. masses --      1.8560                 2.0704                 2.0820
 Frc consts  --      1.3774                 1.5470                 1.6165
 IR Inten    --     14.7507                36.3133               115.2504

                     49                     50                     51
                      A                      A                      A
 Frequencies --   1166.8257              1190.3176              1228.5837
 Red. masses --      2.5625                 2.2966                 1.6600
 Frc consts  --      2.0556                 1.9172                 1.4763
 IR Inten    --     35.1697               175.0195                52.6480

                     52                     53                     54
                      A                      A                      A
 Frequencies --   1239.1687              1242.9767              1258.4195
 Red. masses --      1.5067                 1.9441                 1.7122
 Frc consts  --      1.3631                 1.7697                 1.5975
 IR Inten    --     25.3504                19.7841                32.2531

                     55                     56                     57
                      A                      A                      A
 Frequencies --   1301.7398              1312.4170              1324.2375
 Red. masses --      1.3273                 1.2002                 1.5358
 Frc consts  --      1.3251                 1.2180                 1.5868
 IR Inten    --      0.3490                 1.7757                31.5706

                     58                     59                     60
                      A                      A                      A
 Frequencies --   1349.2169              1356.9766              1365.0198
 Red. masses --      1.4812                 1.3847                 1.3254
 Frc consts  --      1.5887                 1.5023                 1.4551
 IR Inten    --      2.7704                 1.4524                 6.2129

                     61                     62                     63
                      A                      A                      A
 Frequencies --   1376.1202              1390.8933              1391.4937
 Red. masses --      1.5805                 1.9282                 1.5237
 Frc consts  --      1.7634                 2.1978                 1.7383
 IR Inten    --     35.0144                20.9288                29.3432

                     64                     65                     66
                      A                      A                      A
 Frequencies --   1404.8098              1406.9089              1420.6791
 Red. masses --      1.2666                 1.2800                 1.3423
 Frc consts  --      1.4727                 1.4928                 1.5962
 IR Inten    --      6.2651                 0.8062                 5.8176

                     67                     68                     69
                      A                      A                      A
 Frequencies --   1442.9559              1447.2144              1467.1877
 Red. masses --      1.2936                 1.2747                 2.0235
 Frc consts  --      1.5870                 1.5730                 2.5664
 IR Inten    --     25.8351                 6.3600               102.4277

                     70                     71                     72
                      A                      A                      A
 Frequencies --   1494.6717              1510.0516              1513.3073
 Red. masses --      1.0841                 1.0621                 1.0652
 Frc consts  --      1.4269                 1.4269                 1.4373
 IR Inten    --     13.7743                 2.5246                 0.7756

                     73                     74                     75
                      A                      A                      A
 Frequencies --   1516.2257              1517.0916              1525.0884
 Red. masses --      1.1143                 1.0717                 1.0640
 Frc consts  --      1.5093                 1.4533                 1.4581
 IR Inten    --      9.0015                 2.0585                 4.7657

                     76                     77                     78
                      A                      A                      A
 Frequencies --   1529.0651              1536.7175              1540.1247
 Red. masses --      1.0739                 1.0572                 1.0953
 Frc consts  --      1.4793                 1.4709                 1.5307
 IR Inten    --     19.1291                 7.0050                 6.9326

                     79                     80                     81
                      A                      A                      A
 Frequencies --   1773.1200              1848.7395              3022.8973
 Red. masses --     10.6613                10.0914                 1.0651
 Frc consts  --     19.7486                20.3213                 5.7345
 IR Inten    --    237.4319               266.5553                35.0751

                     82                     83                     84
                      A                      A                      A
 Frequencies --   3042.2561              3054.8802              3058.6098
 Red. masses --      1.0846                 1.0419                 1.0358
 Frc consts  --      5.9143                 5.7288                 5.7094
 IR Inten    --     49.4072                19.7835                22.4553

                     85                     86                     87
                      A                      A                      A
 Frequencies --   3060.7571              3065.2007              3070.0670
 Red. masses --      1.0922                 1.0730                 1.0727
 Frc consts  --      6.0284                 5.9400                 5.9570
 IR Inten    --     15.9651                13.8717                24.0880

                     88                     89                     90
                      A                      A                      A
 Frequencies --   3078.3174              3078.7972              3085.5566
 Red. masses --      1.0711                 1.0723                 1.0639
 Frc consts  --      5.9803                 5.9888                 5.9678
 IR Inten    --     79.0971                25.0323                 6.9778

                     91                     92                     93
                      A                      A                      A
 Frequencies --   3118.8182              3124.1104              3131.9147
 Red. masses --      1.1022                 1.1022                 1.0970
 Frc consts  --      6.3168                 6.3381                 6.3396
 IR Inten    --     12.7167                46.5061                32.8955

                     94                     95                     96
                      A                      A                      A
 Frequencies --   3133.4695              3135.0157              3147.6926
 Red. masses --      1.1028                 1.1061                 1.0928
 Frc consts  --      6.3796                 6.4053                 6.3791
 IR Inten    --     22.4417                27.0748                 6.8821

                     97                     98                     99
                      A                      A                      A
 Frequencies --   3152.9405              3155.5724              3682.9028
 Red. masses --      1.1026                 1.0969                 1.0641
 Frc consts  --      6.4579                 6.4352                 8.5037
 IR Inten    --     22.9240                 7.2428                61.1191

 - Thermochemistry -
 -------------------
 Temperature   298.150 Kelvin.  Pressure   1.00000 Atm.
 Atom     1 has atomic number  6 and mass  12.00000

 Molecular mass:   229.13141 amu.
 Principal axes and moments of inertia in atomic units:
                           1         2         3
     Eigenvalues --  2820.352534355.375146244.47011
           X            0.99811   0.06046   0.01110
           Y           -0.06049   0.99817   0.00192
           Z           -0.01097  -0.00258   0.99994
 This molecule is an asymmetric top.
 Rotational symmetry number  1.
 Warning -- assumption of classical behavior for rotation
           may cause significant error
 Rotational temperatures (Kelvin)      0.03071     0.01989     0.01387
 Rotational constants (GHZ):           0.63990     0.41437     0.28901
 Zero-point vibrational energy     794979.5 (Joules/Mol)
                                  190.00465 (Kcal/Mol)
 Warning -- explicit consideration of  24 degrees of freedom as
           vibrations may cause significant error
 Vibrational temperatures:     45.63    60.58    67.54    75.44   100.51
          (Kelvin)            115.88   145.81   178.76   230.47   277.64
                              314.46   323.61   353.93   398.24   451.24
                              477.35   511.41   557.51   587.05   623.71
                              649.96   732.19   774.62   868.20   916.74
                              977.44  1010.84  1038.32  1071.91  1128.26
                             1172.92  1187.32  1223.87  1250.40  1279.85
                             1302.42  1325.26  1353.61  1388.87  1412.33
                             1462.15  1475.40  1531.80  1547.86  1595.40
                             1614.79  1620.23  1651.63  1678.80  1712.60
                             1767.66  1782.89  1788.37  1810.58  1872.91
                             1888.28  1905.28  1941.22  1952.39  1963.96
                             1979.93  2001.19  2002.05  2021.21  2024.23
                             2044.04  2076.09  2082.22  2110.96  2150.50
                             2172.63  2177.31  2181.51  2182.76  2194.26
                             2199.98  2210.99  2215.90  2551.12  2659.92
                             4349.28  4377.13  4395.29  4400.66  4403.75
                             4410.14  4417.14  4429.01  4429.70  4439.43
                             4487.28  4494.90  4506.13  4508.36  4510.59
                             4528.83  4536.38  4540.16  5298.88

 Zero-point correction=                           0.302792 (Hartree/Particle)
 Thermal correction to Energy=                    0.319767
 Thermal correction to Enthalpy=                  0.320711
 Thermal correction to Gibbs Free Energy=         0.256451
 Sum of electronic and zero-point Energies=           -786.033931
 Sum of electronic and thermal Energies=              -786.016955
 Sum of electronic and thermal Enthalpies=            -786.016011
 Sum of electronic and thermal Free Energies=         -786.080271

                     E (Thermal)             CV                S
                      KCal/Mol        Cal/Mol-Kelvin    Cal/Mol-Kelvin
 Total                  200.657             62.317            135.246
 Electronic               0.000              0.000              0.000
 Translational            0.889              2.981             42.189
 Rotational               0.889              2.981             32.706
 Vibrational            198.880             56.355             60.351
 Vibration     1          0.594              1.983              5.719
 Vibration     2          0.595              1.980              5.158
 Vibration     3          0.595              1.979              4.942
 Vibration     4          0.596              1.977              4.723
 Vibration     5          0.598              1.968              4.157
 Vibration     6          0.600              1.962              3.878
 Vibration     7          0.604              1.948              3.428
 Vibration     8          0.610              1.929              3.033
 Vibration     9          0.622              1.891              2.548
 Vibration    10          0.635              1.850              2.199
 Vibration    11          0.646              1.813              1.971
 Vibration    12          0.650              1.803              1.919
 Vibration    13          0.660              1.769              1.759
 Vibration    14          0.678              1.716              1.553
 Vibration    15          0.701              1.648              1.343
 Vibration    16          0.714              1.612              1.251
 Vibration    17          0.731              1.564              1.142
 Vibration    18          0.756              1.497              1.010
 Vibration    19          0.773              1.453              0.934
 Vibration    20          0.794              1.397              0.847
 Vibration    21          0.810              1.357              0.791
 Vibration    22          0.864              1.230              0.636
 Vibration    23          0.893              1.165              0.569
 Vibration    24          0.962              1.025              0.444

 Optimization completed.
    -- Stationary point found.
 Normal termination of Gaussian 16 at Thu Dec 10 22:59:48 2020.

 ----------------------------------------------------------------------
 # B3LYP/6-311++G(d,p) empiricaldispersion=gd3bj scf=xqc pop=npa geom=c
 heck
 ----------------------------------------------------------------------

 --------------------------------------
 CID_81324775_JID_6411_Energie_neutraal
 --------------------------------------
 Structure from the checkpoint file:  "JID_6411.chk"
 Charge =  0 Multiplicity = 1

 SCF Done:  E(RB3LYP) =  -786.572302123     A.U. after   15 cycles
 Normal termination of Gaussian 16 at Thu Dec 10 23:05:29 2020.

 ----------------------------------------------------------------------
 # B3LYP/6-311++G(d,p) empiricaldispersion=gd3bj scf=xqc pop=npa geom=c
 heck
 ----------------------------------------------------------------------

 ------------------------------------
 CID_81324775_JID_6411_Energie_kation
 ------------------------------------
 Structure from the checkpoint file:  "JID_6411.chk"
 Charge =  1 Multiplicity = 2

 SCF Done:  E(UB3LYP) =  -786.254623403     A.U. after   30 cycles
 Normal termination of Gaussian 16 at Thu Dec 10 23:21:12 2020.
 Gaussian 16:  ES64L-G16RevA.03 25-Dec-2016

 ----------------------------------------------------------------------
 # B3LYP/6-311++G(d,p) empiricaldispersion=gd3bj scf=xqc pop=npa geom=c
 heck
 ----------------------------------------------------------------------

 -----------------------------------
 CID_81324775_JID_6411_Energie_anion
 -----------------------------------
 Structure from the checkpoint file:  "JID_6411.chk"
 Charge = -1 Multiplicity = 2

                         Standard orientation:
 ---------------------------------------------------------------------
 Center     Atomic      Atomic             Coordinates (Angstroms)
 Number     Number       Type             X           Y           Z
 ---------------------------------------------------------------------
      1          6           0       -2.692540   -2.799905   -0.633429
      2          6           0       -3.335125   -1.574393    0.018985
      3          6           0       -2.339276   -0.715530    0.805846
      4          7           0       -1.266869   -0.171779   -0.037123
      5          6           0       -1.556950    1.045554   -0.757989
      6          6           0       -1.315320    2.353894   -0.007653
      7          8           0       -1.264871    3.434082   -0.549897
      8          8           0       -1.187914    2.184706    1.326826
      9          6           0       -0.013623   -0.744511    0.039090
     10          8           0        0.209971   -1.710732    0.753993
     11          6           0        1.107576   -0.102005   -0.799007
     12          6           0        1.714765    1.134777   -0.078205
     13          6           0        3.226158    0.906367   -0.231755
     14          6           0        3.329862   -0.624904   -0.273137
     15          8           0        2.158200   -1.028952   -1.000836
     16          6           0        3.393649   -1.284615    1.101655
     17          1           0       -1.934018   -2.502490   -1.364731
     18          1           0       -3.442277   -3.406218   -1.153177
     19          1           0       -2.195183   -3.427396    0.112956
     20          1           0       -3.831266   -0.961419   -0.747794
     21          1           0       -4.125787   -1.886380    0.714352
     22          1           0       -2.849046    0.123063    1.292532
     23          1           0       -1.855370   -1.312161    1.580192
     24          1           0       -0.997974    1.115732   -1.692160
     25          1           0       -2.614801    1.043078   -1.046268
     26          1           0       -1.053928    3.076311    1.700824
     27          1           0        0.731723    0.167038   -1.793606
     28          1           0        1.380295    2.075371   -0.523505
     29          1           0        1.424095    1.143593    0.976262
     30          1           0        3.805663    1.352703    0.581875
     31          1           0        3.579926    1.329584   -1.177973
     32          1           0        4.181872   -0.955416   -0.877305
     33          1           0        3.315334   -2.369944    0.996455
     34          1           0        4.343579   -1.042936    1.594104
     35          1           0        2.567110   -0.960875    1.739743
 ---------------------------------------------------------------------

 SCF Done:  E(UB3LYP) =  -786.563993984     A.U. after   33 cycles
 SCF Done:  E(UB3LYP) =  -786.563993984     a.u. after    1 cycles

 The electronic state is 2-A.
 Alpha  occ. eigenvalues --  -19.07569 -19.02686 -19.02391 -18.99067 -14.25123
 Alpha  occ. eigenvalues --  -10.21618 -10.17365 -10.13640 -10.13348 -10.12956
 Alpha  occ. eigenvalues --  -10.10267 -10.08294 -10.08082 -10.07683 -10.06430
 Alpha  occ. eigenvalues --  -10.06314  -1.01830  -0.95826  -0.93464  -0.93003
 Alpha  occ. eigenvalues --   -0.84843  -0.70086  -0.69688  -0.67835  -0.65327
 Alpha  occ. eigenvalues --   -0.61256  -0.58504  -0.53302  -0.52492  -0.50581
 Alpha  occ. eigenvalues --   -0.48214  -0.46233  -0.43140  -0.41606  -0.40457
 Alpha  occ. eigenvalues --   -0.39775  -0.38526  -0.37802  -0.36606  -0.35222
 Alpha  occ. eigenvalues --   -0.34936  -0.33538  -0.33000  -0.31872  -0.31362
 Alpha  occ. eigenvalues --   -0.30896  -0.30286  -0.29680  -0.29187  -0.29019
 Alpha  occ. eigenvalues --   -0.26767  -0.25925  -0.25633  -0.24649  -0.24514
 Alpha  occ. eigenvalues --   -0.24262  -0.23190  -0.22532  -0.20293  -0.17394
 Alpha  occ. eigenvalues --   -0.15468  -0.15090   0.04077
 Alpha virt. eigenvalues --    0.06035   0.06591   0.07448   0.07892   0.08608
 Alpha virt. eigenvalues --    0.08856   0.09013   0.09568   0.10610   0.11048
 Alpha virt. eigenvalues --    0.11235   0.11393   0.11700   0.12157   0.12572

  Beta  occ. eigenvalues --  -19.07496 -19.02685 -19.02374 -18.99058 -14.25125
  Beta  occ. eigenvalues --  -10.21615 -10.17359 -10.13628 -10.13303 -10.12952
  Beta  occ. eigenvalues --  -10.10253 -10.08271 -10.08066 -10.07659 -10.06419
  Beta  occ. eigenvalues --  -10.06306  -1.01736  -0.95815  -0.93452  -0.92930
  Beta  occ. eigenvalues --   -0.84831  -0.70055  -0.69660  -0.67804  -0.65260
  Beta  occ. eigenvalues --   -0.61233  -0.58475  -0.53179  -0.52445  -0.50536
  Beta  occ. eigenvalues --   -0.48169  -0.46182  -0.43105  -0.41566  -0.40421
  Beta  occ. eigenvalues --   -0.39741  -0.38473  -0.37771  -0.36578  -0.35181
  Beta  occ. eigenvalues --   -0.34904  -0.33511  -0.32974  -0.31854  -0.31310
  Beta  occ. eigenvalues --   -0.30850  -0.30265  -0.29647  -0.29166  -0.28996
  Beta  occ. eigenvalues --   -0.26737  -0.25891  -0.25603  -0.24621  -0.24483
  Beta  occ. eigenvalues --   -0.24234  -0.23146  -0.22514  -0.20245  -0.17384
  Beta  occ. eigenvalues --   -0.15455  -0.15064
  Beta virt. eigenvalues --    0.06212   0.06619   0.07788   0.07906   0.08203
  Beta virt. eigenvalues --    0.08863   0.09147   0.09372   0.09861   0.10690
  Beta virt. eigenvalues --    0.11181   0.11445   0.11614   0.12015   0.12236

 Mulliken charges and spin densities:
               1          2
     1  C   -0.056787  -0.359009
     2  C    0.105848  -0.390745
     3  C    0.188730  -0.413749
     4  N    0.440620  -0.086674
     5  C   -0.468378   0.112070
     6  C    1.104396  -1.394389
     7  O   -0.244300   0.078551
     8  O   -0.220901   0.089139
     9  C   -0.723049   0.094101
    10  O   -0.246165  -0.001705
    11  C    0.254989   0.009238
    12  C    0.269135  -0.567963
    13  C   -0.376158  -0.278108
    14  C   -0.021622   0.244046
    15  O   -0.071910  -0.010964
    16  C   -0.046956  -0.547476
    17  H    0.099441   0.066329
    18  H   -0.054446   0.197686
    19  H    0.125549   0.012419
    20  H   -0.186015   0.297541
    21  H   -0.094030   0.237048
    22  H   -0.163158   0.339350
    23  H    0.175632   0.029450
    24  H   -0.163623   0.421366
    25  H   -0.322211   0.529124
    26  H   -0.561733   0.892629
    27  H   -0.035677   0.282937
    28  H    0.005739   0.192535
    29  H    0.354544  -0.121240
    30  H   -0.247772   0.409154
    31  H   -0.009203   0.166545
    32  H   -0.057200   0.250510
    33  H    0.140830   0.024983
    34  H    0.060200   0.049980
    35  H    0.045643   0.145290
 Sum of Mulliken charges =  -1.00000   1.00000

 Dipole moment (field-independent basis, Debye):
    X=              2.7044    Y=             -4.1230    Z=             -1.2410  Tot=              5.0846
 Quadrupole moment (field-independent basis, Debye-Ang):
   XX=           -151.1514   YY=           -157.9720   ZZ=           -134.0024
   XY=              5.3740   XZ=              0.9206   YZ=             -6.5800

 Summary of Natural Population Analysis:

                                       Natural Population
                Natural  -----------------------------------------------
    Atom  No    Charge         Core      Valence    Rydberg      Total
 -----------------------------------------------------------------------
      C    1   -0.28817      0.99966     2.28238    0.00612     3.28817
      C    2   -0.19370      0.99963     2.18672    0.00735     3.19370
      C    3   -0.08682      0.99959     2.07548    0.01174     3.08682
      N    4   -0.26142      0.99964     2.74786    0.01391     3.76142
      C    5   -0.13673      0.99955     2.12484    0.01234     3.13673
      C    6    0.40066      0.99972     1.57463    0.02499     2.59934
      O    7   -0.30311      0.99987     3.29670    0.00654     4.30311
      O    8   -0.34122      0.99987     3.33367    0.00767     4.34122
      C    9    0.34361      0.99962     1.63208    0.02469     2.65639
      O   10   -0.31742      0.99987     3.31224    0.00531     4.31742
      C   11    0.02666      0.99953     1.95872    0.01509     2.97334
      C   12   -0.20668      0.99962     2.19856    0.00849     3.20668
      C   13   -0.19968      0.99961     2.19214    0.00792     3.19968
      C   14    0.06493      0.99957     1.92045    0.01505     2.93507
      O   15   -0.29721      0.99988     3.28870    0.00863     4.29721
      C   16   -0.29727      0.99964     2.29252    0.00511     3.29727
      H   17    0.09979      0.00000     0.39920    0.00101     0.40021
      H   18    0.09558      0.00000     0.40369    0.00073     0.40442
      H   19    0.10110      0.00000     0.39809    0.00081     0.39890
      H   20    0.09377      0.00000     0.40471    0.00152     0.40623
      H   21    0.09648      0.00000     0.40253    0.00099     0.40352
      H   22    0.10098      0.00000     0.39737    0.00165     0.39902
      H   23    0.11221      0.00000     0.38648    0.00131     0.38779
      H   24    0.11630      0.00000     0.38221    0.00148     0.38370
      H   25    0.11907      0.00000     0.37934    0.00159     0.38093
      H   26    0.25048      0.00000     0.22321    0.02631     0.24952
      H   27    0.09393      0.00000     0.40437    0.00170     0.40607
      H   28    0.11047      0.00000     0.38828    0.00125     0.38953
      H   29    0.10610      0.00000     0.39198    0.00192     0.39390
      H   30    0.10428      0.00000     0.39473    0.00099     0.39572
      H   31    0.10020      0.00000     0.39868    0.00112     0.39980
      H   32    0.08717      0.00000     0.41170    0.00113     0.41283
      H   33    0.10533      0.00000     0.39384    0.00083     0.39467
      H   34    0.09362      0.00000     0.40541    0.00097     0.40638
      H   35    0.10668      0.00000     0.39229    0.00103     0.39332
 =======================================================================
   * Total *    0.00000     15.99490    45.77581    0.22929    62.00000

 Normal termination of Gaussian 16 at Thu Dec 10 23:36:52 2020.
