 Gaussian 16, Revision A.03,

 -----------------------------------------------------------
 # opt freq B3LYP/6-31G(d) empiricaldispersion=gd3bj scf=xqc
 -----------------------------------------------------------

 -------------------------------
 CID_122370700_JID_7553_neutraal
 -------------------------------
 Symbolic Z-matrix:
 Charge =  0 Multiplicity = 1

 SCF Done:  E(RB3LYP) =  -779.836651186     A.U. after   16 cycles
 SCF Done:  E(RB3LYP) =  -779.843061041     A.U. after   13 cycles
 SCF Done:  E(RB3LYP) =  -779.843498586     A.U. after   12 cycles
 SCF Done:  E(RB3LYP) =  -779.843637011     A.U. after   13 cycles
 SCF Done:  E(RB3LYP) =  -779.843772895     A.U. after   11 cycles
 SCF Done:  E(RB3LYP) =  -779.843826206     A.U. after   11 cycles
 SCF Done:  E(RB3LYP) =  -779.843836824     A.U. after   10 cycles
 SCF Done:  E(RB3LYP) =  -779.843838860     A.U. after    9 cycles
 SCF Done:  E(RB3LYP) =  -779.843839393     A.U. after    8 cycles
 SCF Done:  E(RB3LYP) =  -779.843839520     A.U. after    8 cycles
 Optimization completed.
    -- Stationary point found.
 Normal termination of Gaussian 16 at Mon Dec 14 16:38:27 2020.

 --------------------------------------------------------------------
 #N Geom=AllCheck Guess=TCheck SCRF=Check GenChk RB3LYP/6-31G(d) Freq
 --------------------------------------------------------------------

 Structure from the checkpoint file:  "JID_7553.chk"
 -------------------------------
 CID_122370700_JID_7553_neutraal
 -------------------------------
 Charge =  0 Multiplicity = 1

 SCF Done:  E(RB3LYP) =  -779.843839520     A.U. after    1 cycles

  Exact polarizability: 201.775  -2.229 158.872  14.950   5.101  84.925
 Approx polarizability: 314.780  22.403 275.737  38.384  19.579 132.583

                      1                      2                      3
                      A                      A                      A
 Frequencies --     44.7154                67.6715                94.6207
 Red. masses --      5.5173                 4.2864                 5.8414
 Frc consts  --      0.0065                 0.0116                 0.0308
 IR Inten    --      2.3967                 3.0941                 1.3486

                      4                      5                      6
                      A                      A                      A
 Frequencies --    119.9616               166.9899               202.0736
 Red. masses --      4.4550                 5.3333                 5.6896
 Frc consts  --      0.0378                 0.0876                 0.1369
 IR Inten    --      1.6470                 2.7300                 0.1517

                      7                      8                      9
                      A                      A                      A
 Frequencies --    213.2532               258.1418               282.5298
 Red. masses --      3.0537                 3.4317                 3.6851
 Frc consts  --      0.0818                 0.1347                 0.1733
 IR Inten    --      0.8201                 5.6161                 1.1443

                     10                     11                     12
                      A                      A                      A
 Frequencies --    323.4412               367.2175               391.9773
 Red. masses --      6.0750                 2.7895                 2.3694
 Frc consts  --      0.3744                 0.2216                 0.2145
 IR Inten    --      6.9392                 3.2045                 2.9787

                     13                     14                     15
                      A                      A                      A
 Frequencies --    444.2923               464.5132               473.5889
 Red. masses --      3.8635                 3.6646                 5.4638
 Frc consts  --      0.4493                 0.4659                 0.7220
 IR Inten    --      7.0812                 4.6982                 3.8846

                     16                     17                     18
                      A                      A                      A
 Frequencies --    480.6305               520.9768               530.2591
 Red. masses --      3.2103                 5.1328                 5.6787
 Frc consts  --      0.4369                 0.8208                 0.9407
 IR Inten    --      5.2298                 5.2851                 1.7365

                     19                     20                     21
                      A                      A                      A
 Frequencies --    552.8786               579.3610               602.5644
 Red. masses --      4.8297                 3.2312                 1.6791
 Frc consts  --      0.8698                 0.6390                 0.3592
 IR Inten    --     10.3518                 3.8263                90.9726

                     22                     23                     24
                      A                      A                      A
 Frequencies --    623.4293               637.8184               657.8638
 Red. masses --      2.1299                 2.5051                 5.4829
 Frc consts  --      0.4877                 0.6004                 1.3981
 IR Inten    --     11.9050                11.1470                 7.5810

                     25                     26                     27
                      A                      A                      A
 Frequencies --    727.8024               791.3063               805.5112
 Red. masses --      3.0822                 3.2108                 4.8452
 Frc consts  --      0.9619                 1.1846                 1.8523
 IR Inten    --      9.3792                 2.6229                 3.7507

                     28                     29                     30
                      A                      A                      A
 Frequencies --    824.9087               839.2453               853.1653
 Red. masses --      5.2050                 1.7649                 1.8774
 Frc consts  --      2.0868                 0.7324                 0.8051
 IR Inten    --     14.9480                47.7262                 1.2578

                     31                     32                     33
                      A                      A                      A
 Frequencies --    858.7550               870.4606               911.4950
 Red. masses --      1.6467                 3.2631                 4.8089
 Frc consts  --      0.7155                 1.4567                 2.3540
 IR Inten    --      0.4759                 4.0883                23.7614

                     34                     35                     36
                      A                      A                      A
 Frequencies --    914.7957               960.3928               963.1199
 Red. masses --      2.5732                 1.2953                 1.3287
 Frc consts  --      1.2687                 0.7039                 0.7262
 IR Inten    --     10.2761                 1.8459                 2.9019

                     37                     38                     39
                      A                      A                      A
 Frequencies --    988.2210              1030.1646              1065.9235
 Red. masses --      3.5835                 2.5600                 2.4959
 Frc consts  --      2.0619                 1.6007                 1.6708
 IR Inten    --     57.8403                 5.4895                28.3929

                     40                     41                     42
                      A                      A                      A
 Frequencies --   1094.1998              1101.4445              1123.6065
 Red. masses --      2.1053                 1.8646                 1.9618
 Frc consts  --      1.4851                 1.3328                 1.4592
 IR Inten    --     22.4134                13.2578                 2.2980

                     43                     44                     45
                      A                      A                      A
 Frequencies --   1149.6007              1156.4581              1170.5932
 Red. masses --      6.0588                 2.5888                 3.6488
 Frc consts  --      4.7177                 2.0399                 2.9458
 IR Inten    --     94.3552                 3.4592                13.2619

                     46                     47                     48
                      A                      A                      A
 Frequencies --   1201.1269              1225.4533              1255.5993
 Red. masses --      3.1035                 1.2878                 1.1044
 Frc consts  --      2.6380                 1.1394                 1.0258
 IR Inten    --     11.5255                23.5727                 3.0599

                     49                     50                     51
                      A                      A                      A
 Frequencies --   1273.0267              1277.4316              1300.1077
 Red. masses --      2.3619                 1.9390                 1.3098
 Frc consts  --      2.2552                 1.8642                 1.3044
 IR Inten    --     80.0156                10.4753                18.2867

                     52                     53                     54
                      A                      A                      A
 Frequencies --   1321.1870              1338.4959              1357.3531
 Red. masses --      2.1640                 1.2348                 3.6571
 Frc consts  --      2.2256                 1.3034                 3.9698
 IR Inten    --      8.2739                16.0072                 2.4578

                     55                     56                     57
                      A                      A                      A
 Frequencies --   1379.0815              1408.5141              1413.7146
 Red. masses --      1.2418                 1.2550                 1.4112
 Frc consts  --      1.3915                 1.4670                 1.6617
 IR Inten    --      1.4928                20.3739                 9.0193

                     58                     59                     60
                      A                      A                      A
 Frequencies --   1423.3226              1435.6249              1442.1875
 Red. masses --      1.7545                 1.7151                 1.3456
 Frc consts  --      2.0942                 2.0827                 1.6490
 IR Inten    --     26.1591                 8.2447                10.1514

                     61                     62                     63
                      A                      A                      A
 Frequencies --   1459.1947              1486.3745              1500.5687
 Red. masses --      3.3242                 2.2756                 1.0826
 Frc consts  --      4.1702                 2.9621                 1.4363
 IR Inten    --     58.3839                92.6678                 6.6114

                     64                     65                     66
                      A                      A                      A
 Frequencies --   1513.4681              1515.0844              1527.0799
 Red. masses --      1.1673                 1.1022                 1.1076
 Frc consts  --      1.5754                 1.4907                 1.5217
 IR Inten    --      6.6767                 0.5407                 5.0479

                     67                     68                     69
                      A                      A                      A
 Frequencies --   1559.3373              1618.9204              1630.9490
 Red. masses --      3.8846                 5.0556                 6.1537
 Frc consts  --      5.5652                 7.8068                 9.6441
 IR Inten    --    184.4380               170.1947                16.0021

                     70                     71                     72
                      A                      A                      A
 Frequencies --   1678.0564              1755.4514              2998.4482
 Red. masses --      5.3165                11.2777                 1.0702
 Frc consts  --      8.8204                20.4762                 5.6689
 IR Inten    --     13.3315               349.1984                27.4033

                     73                     74                     75
                      A                      A                      A
 Frequencies --   3012.2547              3048.0354              3051.4322
 Red. masses --      1.0695                 1.0661                 1.0671
 Frc consts  --      5.7178                 5.8355                 5.8544
 IR Inten    --     39.9269                10.4205                68.3960

                     76                     77                     78
                      A                      A                      A
 Frequencies --   3112.9860              3115.0719              3122.4852
 Red. masses --      1.0946                 1.0958                 1.0994
 Frc consts  --      6.2496                 6.2652                 6.3157
 IR Inten    --     49.3415                41.7727                16.0279

                     79                     80                     81
                      A                      A                      A
 Frequencies --   3134.9854              3169.7885              3214.1868
 Red. masses --      1.0984                 1.0897                 1.0898
 Frc consts  --      6.3602                 6.4511                 6.6335
 IR Inten    --     13.2887                29.1499                 9.0300

                     82                     83                     84
                      A                      A                      A
 Frequencies --   3233.1216              3239.9876              3601.4513
 Red. masses --      1.0914                 1.0958                 1.0772
 Frc consts  --      6.7217                 6.7776                 8.2316
 IR Inten    --     12.6368                 6.2952                66.6361

 - Thermochemistry -
 -------------------
 Temperature   298.150 Kelvin.  Pressure   1.00000 Atm.
 Atom     1 has atomic number  6 and mass  12.00000

 Molecular mass:   231.10078 amu.
 Principal axes and moments of inertia in atomic units:
                           1         2         3
     Eigenvalues --  1698.870015907.218176943.62954
           X            0.99992  -0.01259  -0.00007
           Y            0.01259   0.99990  -0.00697
           Z            0.00016   0.00697   0.99998
 This molecule is an asymmetric top.
 Rotational symmetry number  1.
 Warning -- assumption of classical behavior for rotation
           may cause significant error
 Rotational temperatures (Kelvin)      0.05098     0.01466     0.01247
 Rotational constants (GHZ):           1.06232     0.30551     0.25991
 Zero-point vibrational energy     643907.3 (Joules/Mol)
                                  153.89753 (Kcal/Mol)
 Warning -- explicit consideration of  21 degrees of freedom as
           vibrations may cause significant error
 Vibrational temperatures:     64.34    97.36   136.14   172.60   240.26
          (Kelvin)            290.74   306.82   371.41   406.50   465.36
                              528.34   563.97   639.24   668.33   681.39
                              691.52   749.57   762.92   795.47   833.57
                              866.96   896.98   917.68   946.52  1047.15
                             1138.51  1158.95  1186.86  1207.49  1227.51
                             1235.56  1252.40  1311.44  1316.19  1381.79
                             1385.71  1421.83  1482.18  1533.63  1574.31
                             1584.73  1616.62  1654.02  1663.89  1684.22
                             1728.15  1763.15  1806.53  1831.60  1837.94
                             1870.57  1900.89  1925.80  1952.93  1984.19
                             2026.54  2034.02  2047.84  2065.54  2074.99
                             2099.46  2138.56  2158.98  2177.54  2179.87
                             2197.13  2243.54  2329.27  2346.57  2414.35
                             2525.70  4314.10  4333.96  4385.44  4390.33
                             4478.89  4481.89  4492.56  4510.54  4560.62
                             4624.50  4651.74  4661.62  5181.69

 Zero-point correction=                           0.245251 (Hartree/Particle)
 Thermal correction to Energy=                    0.258405
 Thermal correction to Enthalpy=                  0.259350
 Thermal correction to Gibbs Free Energy=         0.205267
 Sum of electronic and zero-point Energies=           -779.598588
 Sum of electronic and thermal Energies=              -779.585434
 Sum of electronic and thermal Enthalpies=            -779.584490
 Sum of electronic and thermal Free Energies=         -779.638573

                     E (Thermal)             CV                S
                      KCal/Mol        Cal/Mol-Kelvin    Cal/Mol-Kelvin
 Total                  162.152             53.251            113.827
 Electronic               0.000              0.000              0.000
 Translational            0.889              2.981             42.215
 Rotational               0.889              2.981             32.610
 Vibrational            160.374             47.289             39.002
 Vibration     1          0.595              1.980              5.038
 Vibration     2          0.598              1.970              4.220
 Vibration     3          0.603              1.953              3.562
 Vibration     4          0.609              1.933              3.101
 Vibration     5          0.624              1.883              2.469
 Vibration     6          0.639              1.837              2.114
 Vibration     7          0.644              1.821              2.016
 Vibration     8          0.667              1.749              1.674
 Vibration     9          0.682              1.706              1.518
 Vibration    10          0.708              1.629              1.293
 Vibration    11          0.740              1.540              1.091
 Vibration    12          0.759              1.487              0.993
 Vibration    13          0.804              1.373              0.813
 Vibration    14          0.822              1.329              0.753
 Vibration    15          0.830              1.309              0.728
 Vibration    16          0.837              1.293              0.708
 Vibration    17          0.876              1.204              0.608
 Vibration    18          0.885              1.183              0.587
 Vibration    19          0.908              1.133              0.538
 Vibration    20          0.936              1.076              0.487
 Vibration    21          0.961              1.026              0.445

 Optimization completed.
    -- Stationary point found.
 Normal termination of Gaussian 16 at Mon Dec 14 16:51:00 2020.

 ----------------------------------------------------------------------
 # B3LYP/6-311++G(d,p) empiricaldispersion=gd3bj scf=xqc pop=npa geom=c
 heck
 ----------------------------------------------------------------------

 ---------------------------------------
 CID_122370700_JID_7553_Energie_neutraal
 ---------------------------------------
 Structure from the checkpoint file:  "JID_7553.chk"
 Charge =  0 Multiplicity = 1

 SCF Done:  E(RB3LYP) =  -780.055707362     A.U. after   18 cycles
 Normal termination of Gaussian 16 at Mon Dec 14 16:57:46 2020.

 ----------------------------------------------------------------------
 # B3LYP/6-311++G(d,p) empiricaldispersion=gd3bj scf=xqc pop=npa geom=c
 heck
 ----------------------------------------------------------------------

 -------------------------------------
 CID_122370700_JID_7553_Energie_kation
 -------------------------------------
 Structure from the checkpoint file:  "JID_7553.chk"
 Charge =  1 Multiplicity = 2

 SCF Done:  E(UB3LYP) =  -779.769489126     A.U. after   29 cycles
 Normal termination of Gaussian 16 at Mon Dec 14 17:12:44 2020.
 Gaussian 16:  ES64L-G16RevA.03 25-Dec-2016

 ----------------------------------------------------------------------
 # B3LYP/6-311++G(d,p) empiricaldispersion=gd3bj scf=xqc pop=npa geom=c
 heck
 ----------------------------------------------------------------------

 ------------------------------------
 CID_122370700_JID_7553_Energie_anion
 ------------------------------------
 Structure from the checkpoint file:  "JID_7553.chk"
 Charge = -1 Multiplicity = 2

                         Standard orientation:
 ---------------------------------------------------------------------
 Center     Atomic      Atomic             Coordinates (Angstroms)
 Number     Number       Type             X           Y           Z
 ---------------------------------------------------------------------
      1          6           0       -2.670213    0.107016   -1.274686
      2          6           0       -3.713319    0.665976   -0.300189
      3          8           0       -4.058215   -0.301242    0.682134
      4          6           0       -2.910590   -0.710060    1.414804
      5          6           0       -1.887804   -1.364664    0.489523
      6          7           0       -1.488749   -0.450306   -0.603879
      7          6           0       -0.396983    0.405356   -0.334645
      8          6           0        0.892296   -0.182283   -0.227568
      9          6           0        2.009755    0.617819    0.081771
     10          7           0        1.913217    1.954423    0.221477
     11          6           0        0.723882    2.508699    0.040623
     12          6           0       -0.453040    1.789721   -0.227775
     13          6           0        3.360196   -0.013011    0.238806
     14          8           0        4.357604    0.626045    0.557544
     15          6           0        3.386960   -1.449908   -0.035659
     16          6           0        2.273462   -2.136461   -0.389501
     17          7           0        1.042143   -1.538144   -0.449271
     18          1           0       -3.135035   -0.710783   -1.840188
     19          1           0       -2.347126    0.868583   -1.989993
     20          1           0       -3.344410    1.578558    0.193190
     21          1           0       -4.636984    0.912565   -0.832182
     22          1           0       -3.259802   -1.419059    2.171248
     23          1           0       -2.454477    0.154032    1.925779
     24          1           0       -2.339033   -2.257776    0.038176
     25          1           0       -1.001934   -1.669471    1.051714
     26          1           0        0.676253    3.592449    0.133824
     27          1           0       -1.392350    2.320814   -0.323174
     28          1           0        4.343239   -1.954423    0.035340
     29          1           0        2.283244   -3.194654   -0.629555
     30          1           0        0.259415   -2.010254   -0.882923
 ---------------------------------------------------------------------

 SCF Done:  E(UB3LYP) =  -780.064539323     A.U. after   33 cycles
 SCF Done:  E(UB3LYP) =  -780.064983862     a.u. after    5 cycles

 The electronic state is 2-A.
 Alpha  occ. eigenvalues --  -19.04176 -18.91937 -14.23362 -14.22042 -14.14959
 Alpha  occ. eigenvalues --  -10.13204 -10.12806 -10.10978 -10.10413 -10.09087
 Alpha  occ. eigenvalues --  -10.08704 -10.07985 -10.07802 -10.06498 -10.06174
 Alpha  occ. eigenvalues --  -10.04282 -10.03182  -0.95837  -0.86520  -0.85372
 Alpha  occ. eigenvalues --   -0.82882  -0.79247  -0.68783  -0.67604  -0.63973
 Alpha  occ. eigenvalues --   -0.63125  -0.59770  -0.56998  -0.52665  -0.51405
 Alpha  occ. eigenvalues --   -0.49399  -0.47275  -0.42834  -0.41760  -0.40680
 Alpha  occ. eigenvalues --   -0.39388  -0.38778  -0.38000  -0.37045  -0.35136
 Alpha  occ. eigenvalues --   -0.33356  -0.32097  -0.31745  -0.31180  -0.30114
 Alpha  occ. eigenvalues --   -0.29253  -0.28956  -0.27744  -0.27044  -0.25008
 Alpha  occ. eigenvalues --   -0.24733  -0.23684  -0.23353  -0.22782  -0.19551
 Alpha  occ. eigenvalues --   -0.16748  -0.13775  -0.11584  -0.11140  -0.08609
 Alpha  occ. eigenvalues --   -0.08461   0.04052
 Alpha virt. eigenvalues --    0.06178   0.07273   0.08210   0.08580   0.09676
 Alpha virt. eigenvalues --    0.10293   0.10684   0.10817   0.11297   0.11991
 Alpha virt. eigenvalues --    0.12225   0.12723   0.13082   0.13559   0.14479

  Beta  occ. eigenvalues --  -19.04172 -18.91623 -14.23312 -14.22042 -14.14601
  Beta  occ. eigenvalues --  -10.13200 -10.12801 -10.10971 -10.10358 -10.09148
  Beta  occ. eigenvalues --  -10.08486 -10.07838 -10.07471 -10.06517 -10.06155
  Beta  occ. eigenvalues --  -10.04186 -10.03256  -0.95828  -0.86208  -0.84973
  Beta  occ. eigenvalues --   -0.82737  -0.78789  -0.68748  -0.67199  -0.63728
  Beta  occ. eigenvalues --   -0.62897  -0.59649  -0.56946  -0.52384  -0.51274
  Beta  occ. eigenvalues --   -0.49096  -0.47153  -0.42757  -0.41563  -0.40458
  Beta  occ. eigenvalues --   -0.39340  -0.38687  -0.37962  -0.36921  -0.35018
  Beta  occ. eigenvalues --   -0.33181  -0.31981  -0.31552  -0.31085  -0.29780
  Beta  occ. eigenvalues --   -0.29136  -0.28773  -0.27691  -0.26953  -0.24717
  Beta  occ. eigenvalues --   -0.24122  -0.23473  -0.22993  -0.21670  -0.19401
  Beta  occ. eigenvalues --   -0.15694  -0.13213  -0.11045  -0.10465  -0.08289
  Beta  occ. eigenvalues --   -0.07615
  Beta virt. eigenvalues --    0.06443   0.07347   0.08049   0.08633   0.09107
  Beta virt. eigenvalues --    0.09715   0.10361   0.10881   0.11007   0.11287
  Beta virt. eigenvalues --    0.11924   0.12207   0.12858   0.13638   0.14104

 Mulliken charges and spin densities:
               1          2
     1  C    0.034079  -0.103500
     2  C   -0.270341  -0.004120
     3  O   -0.142274   0.003287
     4  C   -0.563424  -0.005652
     5  C    0.332055  -0.438066
     6  N    0.123355   0.072026
     7  C   -0.183482   0.318611
     8  C    0.070307  -0.278489
     9  C   -0.288188  -0.116756
    10  N   -0.043783   0.170127
    11  C   -0.264014   0.039027
    12  C   -0.028571   0.071479
    13  C   -0.362103   0.046388
    14  O   -0.394216   0.115328
    15  C    0.398152  -0.282017
    16  C   -0.226317   0.178655
    17  N   -0.211535   0.124498
    18  H    0.078960   0.081918
    19  H    0.107383   0.045383
    20  H    0.117594   0.015316
    21  H    0.169734   0.002337
    22  H    0.171773   0.005126
    23  H    0.149402   0.001211
    24  H   -0.193624   0.367618
    25  H    0.165601   0.006931
    26  H    0.146815  -0.000560
    27  H    0.085195  -0.012195
    28  H    0.163316  -0.010790
    29  H   -0.202013   0.330422
    30  H    0.060165   0.256457
 Sum of Mulliken charges =  -1.00000   1.00000

 Dipole moment (field-independent basis, Debye):
    X=             -9.7924    Y=             -1.6426    Z=             -1.2274  Tot=             10.0048
 Quadrupole moment (field-independent basis, Debye-Ang):
   XX=           -172.4638   YY=           -125.6342   ZZ=           -110.4770
   XY=            -17.6812   XZ=             -4.2487   YZ=             -4.0170

 Summary of Natural Population Analysis:

                                       Natural Population
                Natural  -----------------------------------------------
    Atom  No    Charge         Core      Valence    Rydberg      Total
 -----------------------------------------------------------------------
      C    1   -0.09914      0.99962     2.08765    0.01187     3.09914
      C    2   -0.01905      0.99959     2.00839    0.01108     3.01905
      O    3   -0.30110      0.99989     3.29292    0.00829     4.30110
      C    4   -0.02067      0.99958     2.00906    0.01203     3.02067
      C    5   -0.09816      0.99960     2.08647    0.01210     3.09816
      N    6   -0.27436      0.99969     2.76046    0.01420     3.77436
      C    7    0.12983      0.99943     1.85932    0.01142     2.87017
      C    8    0.05482      0.99944     1.93420    0.01155     2.94518
      C    9    0.05017      0.99946     1.93257    0.01780     2.94983
      N   10   -0.16846      0.99968     2.65859    0.01019     3.66846
      C   11    0.01809      0.99961     1.96854    0.01375     2.98191
      C   12   -0.12838      0.99952     2.11890    0.00996     3.12838
      C   13    0.24553      0.99958     1.73445    0.02043     2.75447
      O   14   -0.27724      0.99988     3.27072    0.00664     4.27724
      C   15   -0.19238      0.99954     2.18066    0.01218     3.19238
      C   16    0.05993      0.99957     1.92789    0.01261     2.94007
      N   17   -0.28014      0.99965     2.77114    0.00936     3.78014
      H   18    0.09351      0.00000     0.40530    0.00118     0.40649
      H   19    0.10428      0.00000     0.39475    0.00097     0.39572
      H   20    0.08050      0.00000     0.41846    0.00105     0.41950
      H   21    0.08724      0.00000     0.41185    0.00091     0.41276
      H   22    0.08953      0.00000     0.40959    0.00088     0.41047
      H   23    0.08334      0.00000     0.41562    0.00104     0.41666
      H   24    0.09206      0.00000     0.40570    0.00224     0.40794
      H   25    0.10752      0.00000     0.39144    0.00104     0.39248
      H   26    0.07984      0.00000     0.41897    0.00119     0.42016
      H   27    0.09277      0.00000     0.40598    0.00125     0.40723
      H   28    0.10117      0.00000     0.39736    0.00147     0.39883
      H   29    0.08923      0.00000     0.40970    0.00107     0.41077
      H   30    0.19972      0.00000     0.29693    0.00335     0.30028
 =======================================================================
   * Total *   -0.00000     16.99333    43.78357    0.22310    61.00000

 Normal termination of Gaussian 16 at Mon Dec 14 18:37:17 2020.
