 Gaussian 16, Revision A.03,

 -----------------------------------------------------------
 # opt freq B3LYP/6-31G(d) empiricaldispersion=gd3bj scf=xqc
 -----------------------------------------------------------

 ------------------------------
 CID_82606695_JID_3093_neutraal
 ------------------------------
 Symbolic Z-matrix:
 Charge =  0 Multiplicity = 1

 SCF Done:  E(RB3LYP) =  -933.129056377     A.U. after   15 cycles
 SCF Done:  E(RB3LYP) =  -933.133510691     A.U. after   12 cycles
 SCF Done:  E(RB3LYP) =  -933.134008726     A.U. after   12 cycles
 SCF Done:  E(RB3LYP) =  -933.134491692     A.U. after   12 cycles
 SCF Done:  E(RB3LYP) =  -933.134608659     A.U. after   12 cycles
 SCF Done:  E(RB3LYP) =  -933.134543055     A.U. after    8 cycles
 SCF Done:  E(RB3LYP) =  -933.135272456     A.U. after   12 cycles
 SCF Done:  E(RB3LYP) =  -933.134057189     A.U. after   15 cycles
 SCF Done:  E(RB3LYP) =  -933.136377976     A.U. after   13 cycles
 SCF Done:  E(RB3LYP) =  -933.136396079     A.U. after   12 cycles
 SCF Done:  E(RB3LYP) =  -933.136585008     A.U. after    8 cycles
 SCF Done:  E(RB3LYP) =  -933.136585620     A.U. after    8 cycles
 SCF Done:  E(RB3LYP) =  -933.136585721     A.U. after    7 cycles
 SCF Done:  E(RB3LYP) =  -933.136585775     A.U. after    7 cycles
 SCF Done:  E(RB3LYP) =  -933.136585804     A.U. after    7 cycles
 Optimization completed.
    -- Stationary point found.
 Normal termination of Gaussian 16 at Wed Dec  9 22:25:39 2020.

 --------------------------------------------------------------------
 #N Geom=AllCheck Guess=TCheck SCRF=Check GenChk RB3LYP/6-31G(d) Freq
 --------------------------------------------------------------------

 Structure from the checkpoint file:  "JID_3093.chk"
 ------------------------------
 CID_82606695_JID_3093_neutraal
 ------------------------------
 Charge =  0 Multiplicity = 1

 SCF Done:  E(RB3LYP) =  -933.136585804     A.U. after    1 cycles

  Exact polarizability: 165.063   1.958 130.542  -0.858  -3.246  72.164
 Approx polarizability: 233.780   8.187 208.074  -2.974  -7.036 112.934

                      1                      2                      3
                      A                      A                      A
 Frequencies --     41.5224                64.9093                89.8641
 Red. masses --      4.8191                 3.4553                 3.4602
 Frc consts  --      0.0049                 0.0086                 0.0165
 IR Inten    --      2.2302                 2.8640                 0.9764

                      4                      5                      6
                      A                      A                      A
 Frequencies --    128.4963               130.3519               156.0945
 Red. masses --      3.4091                 1.1936                 2.8487
 Frc consts  --      0.0332                 0.0119                 0.0409
 IR Inten    --      1.2629                 0.4614                 2.0280

                      7                      8                      9
                      A                      A                      A
 Frequencies --    181.6780               206.2881               235.3580
 Red. masses --      2.9920                 3.3702                 2.5125
 Frc consts  --      0.0582                 0.0845                 0.0820
 IR Inten    --      9.1979                 7.0052                13.3995

                     10                     11                     12
                      A                      A                      A
 Frequencies --    248.1393               311.0153               326.7616
 Red. masses --      2.6726                 4.8955                 2.2558
 Frc consts  --      0.0970                 0.2790                 0.1419
 IR Inten    --      4.8907                 0.7869                23.8982

                     13                     14                     15
                      A                      A                      A
 Frequencies --    334.1806               448.6554               481.8809
 Red. masses --      2.0534                 5.1013                 4.6087
 Frc consts  --      0.1351                 0.6050                 0.6305
 IR Inten    --     27.0451                 7.3393                 0.5178

                     16                     17                     18
                      A                      A                      A
 Frequencies --    517.8794               589.1469               596.4237
 Red. masses --      4.1392                 5.6572                 2.7830
 Frc consts  --      0.6541                 1.1569                 0.5833
 IR Inten    --     10.6881                15.0564                 5.9763

                     19                     20                     21
                      A                      A                      A
 Frequencies --    602.8225               648.5349               652.5544
 Red. masses --      3.8022                 4.0146                 4.5744
 Frc consts  --      0.8141                 0.9948                 1.1477
 IR Inten    --      2.9253                 0.1883                 1.3512

                     22                     23                     24
                      A                      A                      A
 Frequencies --    725.3801               744.8991               830.9903
 Red. masses --      5.7115                 1.2197                 5.0998
 Frc consts  --      1.7707                 0.3988                 2.0749
 IR Inten    --      0.2190                28.7604                 1.5054

                     25                     26                     27
                      A                      A                      A
 Frequencies --    838.0193               861.3000               887.8841
 Red. masses --      3.9534                 1.2912                 3.1384
 Frc consts  --      1.6358                 0.5644                 1.4577
 IR Inten    --      0.9912               136.6892                13.3777

                     28                     29                     30
                      A                      A                      A
 Frequencies --    974.6793               998.8233              1019.5561
 Red. masses --      2.2935                 2.0658                 1.6114
 Frc consts  --      1.2837                 1.2143                 0.9869
 IR Inten    --     17.8892                19.0917                 0.6861

                     31                     32                     33
                      A                      A                      A
 Frequencies --   1049.7550              1060.2162              1062.9069
 Red. masses --      1.7284                 3.3137                 1.7353
 Frc consts  --      1.1222                 2.1946                 1.1551
 IR Inten    --      0.0982                 2.1828                 5.9495

                     34                     35                     36
                      A                      A                      A
 Frequencies --   1086.6329              1103.2191              1180.1648
 Red. masses --      2.1721                 3.4157                 1.3882
 Frc consts  --      1.5111                 2.4494                 1.1392
 IR Inten    --      1.5901                 3.6268                11.1542

                     37                     38                     39
                      A                      A                      A
 Frequencies --   1184.0876              1202.9364              1213.7076
 Red. masses --      1.4858                 1.1011                 1.0549
 Frc consts  --      1.2274                 0.9388                 0.9156
 IR Inten    --      5.4088                 1.2456                 0.4189

                     40                     41                     42
                      A                      A                      A
 Frequencies --   1218.1491              1248.8595              1325.9891
 Red. masses --      4.0506                 2.5764                 1.2290
 Frc consts  --      3.5413                 2.3675                 1.2732
 IR Inten    --     13.0686                15.4307                 4.7211

                     43                     44                     45
                      A                      A                      A
 Frequencies --   1351.8693              1353.1167              1404.4436
 Red. masses --      1.9468                 1.6053                 1.4912
 Frc consts  --      2.0963                 1.7317                 1.7330
 IR Inten    --      8.4982                 0.5268                87.2403

                     46                     47                     48
                      A                      A                      A
 Frequencies --   1427.7274              1434.4585              1457.0878
 Red. masses --      2.3462                 1.6657                 4.6178
 Frc consts  --      2.8177                 2.0195                 5.7764
 IR Inten    --     37.6211               136.3941               243.2305

                     49                     50                     51
                      A                      A                      A
 Frequencies --   1500.7949              1513.8205              1530.9806
 Red. masses --      1.0989                 1.0466                 1.0805
 Frc consts  --      1.4583                 1.4131                 1.4922
 IR Inten    --      6.3193                10.1944                 0.6420

                     52                     53                     54
                      A                      A                      A
 Frequencies --   1537.1036              1546.0202              1576.5051
 Red. masses --      1.0791                 1.0838                 8.3158
 Frc consts  --      1.5022                 1.5262                12.1771
 IR Inten    --      0.8106                 3.0742                 2.9917

                     55                     56                     57
                      A                      A                      A
 Frequencies --   1664.6784              1692.5316              1768.6381
 Red. masses --      9.8441                 1.0983                 9.9398
 Frc consts  --     16.0726                 1.8537                18.3192
 IR Inten    --      1.1118                35.5133               328.6432

                     58                     59                     60
                      A                      A                      A
 Frequencies --   2949.2688              3011.4309              3032.5214
 Red. masses --      1.0736                 1.0560                 1.1075
 Frc consts  --      5.5019                 5.6424                 6.0007
 IR Inten    --     65.1660                49.5535                30.8978

                     61                     62                     63
                      A                      A                      A
 Frequencies --   3040.8418              3051.6479              3053.6706
 Red. masses --      1.0868                 1.0579                 1.0395
 Frc consts  --      5.9211                 5.8044                 5.7111
 IR Inten    --     28.7513                20.6404                10.5997

                     64                     65                     66
                      A                      A                      A
 Frequencies --   3077.6811              3111.2136              3178.4179
 Red. masses --      1.1070                 1.1005                 1.0999
 Frc consts  --      6.1780                 6.2765                 6.5465
 IR Inten    --     21.2621                14.6234                 9.5959

                     67                     68                     69
                      A                      A                      A
 Frequencies --   3265.3082              3479.5506              3569.8233
 Red. masses --      1.0943                 1.0495                 1.0937
 Frc consts  --      6.8746                 7.4862                 8.2118
 IR Inten    --      0.1626                 0.7300                 0.3885

 - Thermochemistry -
 -------------------
 Temperature   298.150 Kelvin.  Pressure   1.00000 Atm.
 Atom     1 has atomic number  6 and mass  12.00000

 Molecular mass:   196.06703 amu.
 Principal axes and moments of inertia in atomic units:
                           1         2         3
     Eigenvalues --  1172.247664612.008685692.13220
           X            0.99999   0.00320   0.00247
           Y           -0.00319   0.99999  -0.00217
           Z           -0.00248   0.00216   0.99999
 This molecule is an asymmetric top.
 Rotational symmetry number  1.
 Warning -- assumption of classical behavior for rotation
           may cause significant error
 Rotational temperatures (Kelvin)      0.07389     0.01878     0.01522
 Rotational constants (GHZ):           1.53956     0.39131     0.31706
 Zero-point vibrational energy     534682.1 (Joules/Mol)
                                  127.79209 (Kcal/Mol)
 Warning -- explicit consideration of  19 degrees of freedom as
           vibrations may cause significant error
 Vibrational temperatures:     59.74    93.39   129.29   184.88   187.55
          (Kelvin)            224.59   261.39   296.80   338.63   357.02
                              447.48   470.14   480.81   645.52   693.32
                              745.11   847.65   858.12   867.33   933.10
                              938.88  1043.66  1071.74  1195.61  1205.72
                             1239.22  1277.47  1402.35  1437.08  1466.91
                             1510.36  1525.41  1529.29  1563.42  1587.29
                             1697.99  1703.64  1730.76  1746.25  1752.64
                             1796.83  1907.80  1945.04  1946.83  2020.68
                             2054.18  2063.87  2096.42  2159.31  2178.05
                             2202.74  2211.55  2224.38  2268.24  2395.10
                             2435.18  2544.68  4243.34  4332.78  4363.12
                             4375.09  4390.64  4393.55  4428.10  4476.34
                             4573.03  4698.05  5006.30  5136.18

 Zero-point correction=                           0.203650 (Hartree/Particle)
 Thermal correction to Energy=                    0.216556
 Thermal correction to Enthalpy=                  0.217500
 Thermal correction to Gibbs Free Energy=         0.163554
 Sum of electronic and zero-point Energies=           -932.932936
 Sum of electronic and thermal Energies=              -932.920030
 Sum of electronic and thermal Enthalpies=            -932.919085
 Sum of electronic and thermal Free Energies=         -932.973032

                     E (Thermal)             CV                S
                      KCal/Mol        Cal/Mol-Kelvin    Cal/Mol-Kelvin
 Total                  135.891             47.512            113.539
 Electronic               0.000              0.000              0.000
 Translational            0.889              2.981             41.725
 Rotational               0.889              2.981             31.798
 Vibrational            134.114             41.550             40.016
 Vibration     1          0.594              1.981              5.185
 Vibration     2          0.597              1.971              4.302
 Vibration     3          0.602              1.956              3.663
 Vibration     4          0.611              1.925              2.968
 Vibration     5          0.612              1.923              2.941
 Vibration     6          0.620              1.896              2.597
 Vibration     7          0.630              1.865              2.311
 Vibration     8          0.641              1.831              2.076
 Vibration     9          0.655              1.787              1.838
 Vibration    10          0.662              1.766              1.744
 Vibration    11          0.700              1.653              1.357
 Vibration    12          0.710              1.622              1.276
 Vibration    13          0.716              1.607              1.240
 Vibration    14          0.808              1.364              0.800
 Vibration    15          0.838              1.290              0.705
 Vibration    16          0.873              1.210              0.615
 Vibration    17          0.946              1.055              0.469
 Vibration    18          0.954              1.039              0.456
 Vibration    19          0.961              1.026              0.445

 Optimization completed.
    -- Stationary point found.
 Normal termination of Gaussian 16 at Wed Dec  9 22:31:16 2020.

 ----------------------------------------------------------------------
 # B3LYP/6-311++G(d,p) empiricaldispersion=gd3bj scf=xqc pop=npa geom=c
 heck
 ----------------------------------------------------------------------

 --------------------------------------
 CID_82606695_JID_3093_Energie_neutraal
 --------------------------------------
 Structure from the checkpoint file:  "JID_3093.chk"
 Charge =  0 Multiplicity = 1

 SCF Done:  E(RB3LYP) =  -933.317663429     A.U. after   15 cycles
 Normal termination of Gaussian 16 at Wed Dec  9 22:33:50 2020.

 ----------------------------------------------------------------------
 # B3LYP/6-311++G(d,p) empiricaldispersion=gd3bj scf=xqc pop=npa geom=c
 heck
 ----------------------------------------------------------------------

 ------------------------------------
 CID_82606695_JID_3093_Energie_kation
 ------------------------------------
 Structure from the checkpoint file:  "JID_3093.chk"
 Charge =  1 Multiplicity = 2

 SCF Done:  E(UB3LYP) =  -933.016245738     A.U. after   31 cycles
 Normal termination of Gaussian 16 at Wed Dec  9 22:41:15 2020.
 Gaussian 16:  ES64L-G16RevA.03 25-Dec-2016

 ----------------------------------------------------------------------
 # B3LYP/6-311++G(d,p) empiricaldispersion=gd3bj scf=xqc pop=npa geom=c
 heck
 ----------------------------------------------------------------------

 -----------------------------------
 CID_82606695_JID_3093_Energie_anion
 -----------------------------------
 Structure from the checkpoint file:  "JID_3093.chk"
 Charge = -1 Multiplicity = 2

                         Standard orientation:
 ---------------------------------------------------------------------
 Center     Atomic      Atomic             Coordinates (Angstroms)
 Number     Number       Type             X           Y           Z
 ---------------------------------------------------------------------
      1          6           0       -3.648302    1.693416   -0.013699
      2          6           0       -3.240404    0.230233    0.049934
      3          8           0       -4.058109   -0.681141    0.137003
      4          7           0       -1.900239   -0.024077    0.006245
      5          6           0       -1.426864   -1.421043    0.057568
      6          6           0        0.063559   -1.251502   -0.005841
      7          6           0        1.152384   -2.070955    0.013439
      8         16           0        2.629307   -1.145692   -0.072898
      9          6           0        1.750191    0.371118   -0.142446
     10          6           0        0.407070    0.130227   -0.093251
     11          6           0       -0.830866    0.982766   -0.109075
     12          6           0        2.484958    1.671044   -0.274596
     13          7           0        3.778221    1.601769    0.407269
     14          1           0       -4.736528    1.745340    0.027882
     15          1           0       -3.299100    2.165791   -0.939442
     16          1           0       -3.227403    2.262034    0.823947
     17          1           0       -1.777528   -1.904700    0.977030
     18          1           0       -1.841399   -1.992742   -0.781662
     19          1           0        1.196027   -3.148762    0.093553
     20          1           0       -0.930731    1.564555   -1.036490
     21          1           0       -0.861677    1.696496    0.726722
     22          1           0        2.689193    1.878811   -1.334067
     23          1           0        1.816037    2.478310    0.076680
     24          1           0        4.314536    2.449409    0.236068
     25          1           0        3.638304    1.530014    1.413338
 ---------------------------------------------------------------------

 SCF Done:  E(UB3LYP) =  -933.312166952     A.U. after   33 cycles
 SCF Done:  E(UB3LYP) =  -933.312166952     a.u. after    1 cycles

 The electronic state is 2-A.
 Alpha  occ. eigenvalues --  -88.76717 -18.98824 -14.24572 -14.19035 -10.17360
 Alpha  occ. eigenvalues --  -10.11847 -10.11746 -10.09806 -10.09650 -10.09178
 Alpha  occ. eigenvalues --  -10.08008 -10.07863 -10.07489  -7.85277  -5.81580
 Alpha  occ. eigenvalues --   -5.81192  -5.80879  -0.94097  -0.85122  -0.79129
 Alpha  occ. eigenvalues --   -0.76571  -0.67872  -0.66500  -0.63514  -0.61271
 Alpha  occ. eigenvalues --   -0.55733  -0.54876  -0.47317  -0.44200  -0.42401
 Alpha  occ. eigenvalues --   -0.40367  -0.39529  -0.38129  -0.36269  -0.35513
 Alpha  occ. eigenvalues --   -0.34218  -0.33741  -0.32639  -0.31084  -0.30383
 Alpha  occ. eigenvalues --   -0.29756  -0.29135  -0.27428  -0.27000  -0.26406
 Alpha  occ. eigenvalues --   -0.25127  -0.23199  -0.16056  -0.15618  -0.14694
 Alpha  occ. eigenvalues --   -0.13727  -0.12560   0.04129
 Alpha virt. eigenvalues --    0.06602   0.07503   0.07690   0.08592   0.09227
 Alpha virt. eigenvalues --    0.09755   0.10206   0.10882   0.11355   0.11644
 Alpha virt. eigenvalues --    0.12014   0.12426   0.13395   0.14108   0.14224

  Beta  occ. eigenvalues --  -88.76703 -18.98816 -14.24572 -14.18979 -10.17357
  Beta  occ. eigenvalues --  -10.11813 -10.11743 -10.09765 -10.09605 -10.09115
  Beta  occ. eigenvalues --  -10.08012 -10.07833 -10.07471  -7.85264  -5.81572
  Beta  occ. eigenvalues --   -5.81185  -5.80839  -0.94084  -0.85100  -0.79036
  Beta  occ. eigenvalues --   -0.76493  -0.67831  -0.66427  -0.63449  -0.61171
  Beta  occ. eigenvalues --   -0.55686  -0.54751  -0.47256  -0.44144  -0.42313
  Beta  occ. eigenvalues --   -0.40305  -0.39485  -0.38065  -0.36191  -0.35480
  Beta  occ. eigenvalues --   -0.34132  -0.33704  -0.32592  -0.31035  -0.30319
  Beta  occ. eigenvalues --   -0.29731  -0.29064  -0.27374  -0.26913  -0.26349
  Beta  occ. eigenvalues --   -0.25011  -0.23141  -0.16035  -0.15551  -0.14603
  Beta  occ. eigenvalues --   -0.13599  -0.12272
  Beta virt. eigenvalues --    0.06757   0.07336   0.07606   0.08317   0.09279
  Beta virt. eigenvalues --    0.09669   0.10084   0.10686   0.11279   0.11446
  Beta virt. eigenvalues --    0.11986   0.12394   0.12602   0.13490   0.14212

 Mulliken charges and spin densities:
               1          2
     1  C    0.748121  -1.261207
     2  C   -0.345546   0.558003
     3  O   -0.371171   0.002098
     4  N   -0.032492   0.110227
     5  C    0.084593  -0.606232
     6  C    0.962626   0.195622
     7  C   -0.488773   0.900153
     8  S   -0.358362  -0.377750
     9  C   -0.693176   0.664423
    10  C   -1.809214   2.210184
    11  C    0.696174  -2.809632
    12  C    2.546697  -2.574047
    13  N   -0.540285   0.199862
    14  H    0.147874   0.056479
    15  H   -0.222342   0.367802
    16  H   -0.240658   0.396498
    17  H    0.117932   0.082437
    18  H    0.182558   0.009703
    19  H    0.165282   0.061427
    20  H    0.125737   0.064097
    21  H   -0.246299   0.475585
    22  H   -0.475231   0.678950
    23  H   -0.664570   0.843646
    24  H   -0.212577   0.457480
    25  H   -0.076897   0.294193
 Sum of Mulliken charges =  -1.00000   1.00000

 Dipole moment (field-independent basis, Debye):
    X=             -2.2362    Y=             -6.6219    Z=             -0.6795  Tot=              7.0222
 Quadrupole moment (field-independent basis, Debye-Ang):
   XX=           -164.8097   YY=           -128.8061   ZZ=           -108.4790
   XY=            -17.0306   XZ=              2.6512   YZ=             -1.4742

 Summary of Natural Population Analysis:

                                       Natural Population
                Natural  -----------------------------------------------
    Atom  No    Charge         Core      Valence    Rydberg      Total
 -----------------------------------------------------------------------
      C    1   -0.33146      0.99963     2.32692    0.00491     3.33146
      C    2    0.34560      0.99966     1.63250    0.02224     2.65440
      O    3   -0.33136      0.99988     3.32586    0.00562     4.33136
      N    4   -0.25170      0.99965     2.74290    0.00916     3.75170
      C    5   -0.08160      0.99958     2.07295    0.00907     3.08160
      C    6   -0.04854      0.99944     2.03800    0.01110     3.04854
      C    7   -0.18671      0.99946     2.17712    0.01014     3.18671
      S    8    0.21834      4.99944     2.76176    0.02046     7.78166
      C    9   -0.08173      0.99942     2.06772    0.01458     3.08173
      C   10   -0.04899      0.99938     2.03773    0.01188     3.04899
      C   11   -0.08216      0.99957     2.07258    0.01000     3.08216
      C   12   -0.10034      0.99957     2.08756    0.01321     3.10034
      N   13   -0.42045      0.99978     2.90994    0.01074     3.92045
      H   14    0.11004      0.00000     0.38919    0.00077     0.38996
      H   15    0.10892      0.00000     0.38983    0.00125     0.39108
      H   16    0.11186      0.00000     0.38678    0.00136     0.38814
      H   17    0.10407      0.00000     0.39446    0.00147     0.39593
      H   18    0.10199      0.00000     0.39662    0.00139     0.39801
      H   19    0.10528      0.00000     0.39392    0.00080     0.39472
      H   20    0.10023      0.00000     0.39841    0.00136     0.39977
      H   21    0.10809      0.00000     0.38896    0.00295     0.39191
      H   22    0.10124      0.00000     0.39604    0.00272     0.39876
      H   23    0.09282      0.00000     0.40284    0.00434     0.40718
      H   24    0.18066      0.00000     0.31517    0.00417     0.31934
      H   25    0.17589      0.00000     0.32166    0.00245     0.32411
 =======================================================================
   * Total *    0.00000     16.99446    34.82739    0.17815    52.00000

 Normal termination of Gaussian 16 at Wed Dec  9 22:49:08 2020.
