 Gaussian 16, Revision A.03,

 -----------------------------------------------------------
 # opt freq B3LYP/6-31G(d) empiricaldispersion=gd3bj scf=xqc
 -----------------------------------------------------------

 -------------------------------
 CID_151469293_JID_1253_neutraal
 -------------------------------
 Symbolic Z-matrix:
 Charge =  0 Multiplicity = 1

 SCF Done:  E(RB3LYP) =  -426.358063026     A.U. after   14 cycles
 SCF Done:  E(RB3LYP) =  -426.362124864     A.U. after   13 cycles
 SCF Done:  E(RB3LYP) =  -426.363485776     A.U. after   12 cycles
 SCF Done:  E(RB3LYP) =  -426.364834092     A.U. after   13 cycles
 SCF Done:  E(RB3LYP) =  -426.365491988     A.U. after   12 cycles
 SCF Done:  E(RB3LYP) =  -426.365760649     A.U. after   12 cycles
 SCF Done:  E(RB3LYP) =  -426.365777570     A.U. after   10 cycles
 SCF Done:  E(RB3LYP) =  -426.365783041     A.U. after    8 cycles
 Optimization completed.
    -- Stationary point found.
 Normal termination of Gaussian 16 at Tue Dec  8 19:30:43 2020.

 --------------------------------------------------------------------
 #N Geom=AllCheck Guess=TCheck SCRF=Check GenChk RB3LYP/6-31G(d) Freq
 --------------------------------------------------------------------

 Structure from the checkpoint file:  "JID_1253.chk"
 -------------------------------
 CID_151469293_JID_1253_neutraal
 -------------------------------
 Charge =  0 Multiplicity = 1

 SCF Done:  E(RB3LYP) =  -426.365783041     A.U. after    1 cycles

  Exact polarizability: 186.130   6.289 135.023  10.720  -3.644  58.256
 Approx polarizability: 290.308  23.811 243.044  27.290  -9.307  94.074

                      1                      2                      3
                      A                      A                      A
 Frequencies --     75.4196               108.2188               126.6232
 Red. masses --      3.6157                 2.1338                 2.3742
 Frc consts  --      0.0121                 0.0147                 0.0224
 IR Inten    --      0.2220                 0.6353                 1.3928

                      4                      5                      6
                      A                      A                      A
 Frequencies --    173.3094               217.7101               228.0918
 Red. masses --      1.7505                 3.3421                 1.8163
 Frc consts  --      0.0310                 0.0933                 0.0557
 IR Inten    --      0.1133                 1.6032                 0.5600

                      7                      8                      9
                      A                      A                      A
 Frequencies --    300.5548               335.2015               346.3451
 Red. masses --      3.1742                 3.2880                 2.5470
 Frc consts  --      0.1689                 0.2177                 0.1800
 IR Inten    --      3.7346                 1.6317                 1.3089

                     10                     11                     12
                      A                      A                      A
 Frequencies --    379.4406               459.6824               468.6175
 Red. masses --      3.6954                 2.5638                 2.8273
 Frc consts  --      0.3135                 0.3192                 0.3658
 IR Inten    --      2.0339                 1.7521                 0.2070

                     13                     14                     15
                      A                      A                      A
 Frequencies --    492.7938               572.8988               608.7013
 Red. masses --      3.6772                 3.1748                 4.8989
 Frc consts  --      0.5261                 0.6139                 1.0694
 IR Inten    --      2.9480                 7.1791                 0.9103

                     16                     17                     18
                      A                      A                      A
 Frequencies --    673.1210               700.4250               753.9707
 Red. masses --      1.2637                 3.3246                 1.1771
 Frc consts  --      0.3374                 0.9610                 0.3943
 IR Inten    --      7.5954                 0.6632                 7.7453

                     19                     20                     21
                      A                      A                      A
 Frequencies --    764.9606               806.1745               835.5817
 Red. masses --      2.6110                 1.3660                 1.7178
 Frc consts  --      0.9002                 0.5231                 0.7067
 IR Inten    --      0.7944                13.5556                 1.5005

                     22                     23                     24
                      A                      A                      A
 Frequencies --    871.3522               886.3873               895.9353
 Red. masses --      3.8629                 1.9374                 1.5188
 Frc consts  --      1.7281                 0.8968                 0.7183
 IR Inten    --      7.1030                 3.9226                51.6501

                     25                     26                     27
                      A                      A                      A
 Frequencies --    908.6940               928.9688               961.4451
 Red. masses --      1.5248                 1.3802                 1.7328
 Frc consts  --      0.7418                 0.7018                 0.9437
 IR Inten    --      1.9538                32.5433                11.6986

                     28                     29                     30
                      A                      A                      A
 Frequencies --    976.1785               984.0006              1017.9947
 Red. masses --      1.2912                 1.6857                 1.0957
 Frc consts  --      0.7249                 0.9616                 0.6690
 IR Inten    --      0.9356                 1.2227                23.1604

                     31                     32                     33
                      A                      A                      A
 Frequencies --   1070.5754              1077.0159              1131.8261
 Red. masses --      1.9994                 1.5163                 2.3588
 Frc consts  --      1.3502                 1.0363                 1.7803
 IR Inten    --      2.1327                 0.3230                 0.0257

                     34                     35                     36
                      A                      A                      A
 Frequencies --   1165.1951              1207.0322              1267.2618
 Red. masses --      1.7981                 1.3110                 1.6421
 Frc consts  --      1.4383                 1.1254                 1.5537
 IR Inten    --      0.9487                 2.9311                 0.3752

                     37                     38                     39
                      A                      A                      A
 Frequencies --   1321.4422              1345.2122              1360.3929
 Red. masses --      1.9521                 1.4873                 1.7728
 Frc consts  --      2.0084                 1.5858                 1.9330
 IR Inten    --      0.8200                 1.5955                 5.5905

                     40                     41                     42
                      A                      A                      A
 Frequencies --   1390.4944              1440.2551              1449.0053
 Red. masses --      1.5328                 1.3302                 1.9243
 Frc consts  --      1.7461                 1.6258                 2.3804
 IR Inten    --      0.5836                 5.3718                 2.9526

                     43                     44                     45
                      A                      A                      A
 Frequencies --   1463.0310              1482.5710              1507.6191
 Red. masses --      1.3812                 1.4597                 1.0457
 Frc consts  --      1.7419                 1.8904                 1.4003
 IR Inten    --      4.5323                 3.0586                 5.8820

                     46                     47                     48
                      A                      A                      A
 Frequencies --   1520.6889              1590.1183              1645.1361
 Red. masses --      1.0620                 7.2682                 3.9481
 Frc consts  --      1.4469                10.8276                 6.2957
 IR Inten    --      8.2709                 9.1804                11.0831

                     49                     50                     51
                      A                      A                      A
 Frequencies --   1656.3741              1696.8294              1728.0130
 Red. masses --      4.2909                 5.1495                 5.5566
 Frc consts  --      6.9360                 8.7355                 9.7758
 IR Inten    --      5.9395                 1.3611                 6.4912

                     52                     53                     54
                      A                      A                      A
 Frequencies --   3027.5538              3071.4297              3115.9983
 Red. masses --      1.0377                 1.0997                 1.0998
 Frc consts  --      5.6041                 6.1121                 6.2915
 IR Inten    --     53.2990                24.2358                16.1098

                     55                     56                     57
                      A                      A                      A
 Frequencies --   3136.3903              3171.7362              3178.2429
 Red. masses --      1.0881                 1.0592                 1.0862
 Frc consts  --      6.3067                 6.2777                 6.4647
 IR Inten    --     24.3272                 5.9036                10.5940

                     58                     59                     60
                      A                      A                      A
 Frequencies --   3182.7652              3187.5399              3191.5325
 Red. masses --      1.0861                 1.0883                 1.0613
 Frc consts  --      6.4821                 6.5147                 6.3692
 IR Inten    --     14.7776                16.9838                 7.9899

                     61                     62                     63
                      A                      A                      A
 Frequencies --   3205.8181              3256.5457              3279.1531
 Red. masses --      1.0971                 1.1160                 1.1149
 Frc consts  --      6.6431                 6.9734                 7.0634
 IR Inten    --     33.9009                 8.9425                 2.8934

 - Thermochemistry -
 -------------------
 Temperature   298.150 Kelvin.  Pressure   1.00000 Atm.
 Atom     1 has atomic number  6 and mass  12.00000

 Molecular mass:   144.09390 amu.
 Principal axes and moments of inertia in atomic units:
                           1         2         3
     Eigenvalues --   864.951322497.994663184.30074
           X            1.00000  -0.00269   0.00066
           Y            0.00269   1.00000  -0.00082
           Z           -0.00066   0.00083   1.00000
 This molecule is an asymmetric top.
 Rotational symmetry number  1.
 Warning -- assumption of classical behavior for rotation
           may cause significant error
 Rotational temperatures (Kelvin)      0.10014     0.03467     0.02720
 Rotational constants (GHZ):           2.08652     0.72248     0.56676
 Zero-point vibrational energy     510683.4 (Joules/Mol)
                                  122.05626 (Kcal/Mol)
 Warning -- explicit consideration of  15 degrees of freedom as
           vibrations may cause significant error
 Vibrational temperatures:    108.51   155.70   182.18   249.35   313.24
          (Kelvin)            328.17   432.43   482.28   498.31   545.93
                              661.38   674.24   709.02   824.27   875.79
                              968.47  1007.76  1084.80  1100.61  1159.91
                             1202.22  1253.68  1275.31  1289.05  1307.41
                             1336.58  1383.31  1404.50  1415.76  1464.67
                             1540.32  1549.59  1628.45  1676.46  1736.65
                             1823.31  1901.26  1935.46  1957.30  2000.61
                             2072.21  2084.80  2104.98  2133.09  2169.13
                             2187.93  2287.83  2366.98  2383.15  2441.36
                             2486.23  4355.97  4419.10  4483.23  4512.57
                             4563.42  4572.78  4579.29  4586.16  4591.90
                             4612.46  4685.44  4717.97

 Zero-point correction=                           0.194509 (Hartree/Particle)
 Thermal correction to Energy=                    0.204940
 Thermal correction to Enthalpy=                  0.205884
 Thermal correction to Gibbs Free Energy=         0.158937
 Sum of electronic and zero-point Energies=           -426.171274
 Sum of electronic and thermal Energies=              -426.160843
 Sum of electronic and thermal Enthalpies=            -426.159899
 Sum of electronic and thermal Free Energies=         -426.206846

                     E (Thermal)             CV                S
                      KCal/Mol        Cal/Mol-Kelvin    Cal/Mol-Kelvin
 Total                  128.602             40.816             98.810
 Electronic               0.000              0.000              0.000
 Translational            0.889              2.981             40.807
 Rotational               0.889              2.981             30.310
 Vibrational            126.825             34.855             27.693
 Vibration     1          0.599              1.965              4.007
 Vibration     2          0.606              1.943              3.301
 Vibration     3          0.611              1.927              2.997
 Vibration     4          0.627              1.875              2.399
 Vibration     5          0.646              1.814              1.978
 Vibration     6          0.651              1.798              1.894
 Vibration     7          0.693              1.673              1.414
 Vibration     8          0.716              1.605              1.235
 Vibration     9          0.724              1.583              1.183
 Vibration    10          0.749              1.514              1.041
 Vibration    11          0.818              1.339              0.767
 Vibration    12          0.826              1.320              0.741
 Vibration    13          0.848              1.266              0.676
 Vibration    14          0.929              1.090              0.499
 Vibration    15          0.968              1.013              0.435

 Optimization completed.
    -- Stationary point found.
 Normal termination of Gaussian 16 at Tue Dec  8 19:34:45 2020.

 ----------------------------------------------------------------------
 # B3LYP/6-311++G(d,p) empiricaldispersion=gd3bj scf=xqc pop=npa geom=c
 heck
 ----------------------------------------------------------------------

 ---------------------------------------
 CID_151469293_JID_1253_Energie_neutraal
 ---------------------------------------
 Structure from the checkpoint file:  "JID_1253.chk"
 Charge =  0 Multiplicity = 1

 SCF Done:  E(RB3LYP) =  -426.478193701     A.U. after   15 cycles
 Normal termination of Gaussian 16 at Tue Dec  8 19:36:11 2020.

 ----------------------------------------------------------------------
 # B3LYP/6-311++G(d,p) empiricaldispersion=gd3bj scf=xqc pop=npa geom=c
 heck
 ----------------------------------------------------------------------

 -------------------------------------
 CID_151469293_JID_1253_Energie_kation
 -------------------------------------
 Structure from the checkpoint file:  "JID_1253.chk"
 Charge =  1 Multiplicity = 2

 SCF Done:  E(UB3LYP) =  -426.220406418     A.U. after   21 cycles
 Normal termination of Gaussian 16 at Tue Dec  8 19:38:50 2020.
 Gaussian 16:  ES64L-G16RevA.03 25-Dec-2016

 ----------------------------------------------------------------------
 # B3LYP/6-311++G(d,p) empiricaldispersion=gd3bj scf=xqc pop=npa geom=c
 heck
 ----------------------------------------------------------------------

 ------------------------------------
 CID_151469293_JID_1253_Energie_anion
 ------------------------------------
 Structure from the checkpoint file:  "JID_1253.chk"
 Charge = -1 Multiplicity = 2

                         Standard orientation:
 ---------------------------------------------------------------------
 Center     Atomic      Atomic             Coordinates (Angstroms)
 Number     Number       Type             X           Y           Z
 ---------------------------------------------------------------------
      1          6           0       -4.078446   -0.157284    0.355870
      2          6           0       -2.590713   -0.317840    0.273350
      3          6           0       -1.748292    0.654769   -0.112847
      4          6           0       -0.286822    0.610486   -0.157607
      5          6           0        0.410190    1.784206   -0.123151
      6          6           0        1.850989    1.828374   -0.057730
      7          6           0        2.574758    0.694719    0.098085
      8          6           0        1.915213   -0.601920    0.161828
      9          6           0        2.568963   -1.695681    0.610687
     10          6           0        0.488666   -0.645962   -0.274803
     11          6           0        0.000125   -1.743138   -0.889233
     12          1           0       -4.393270    0.846357    0.050931
     13          1           0       -4.440372   -0.332654    1.378249
     14          1           0       -4.594769   -0.884936   -0.285523
     15          1           0       -2.191677   -1.284209    0.573373
     16          1           0       -2.177013    1.627626   -0.357919
     17          1           0       -0.136470    2.723954   -0.110226
     18          1           0        2.342910    2.797009   -0.068983
     19          1           0        3.651394    0.729302    0.241141
     20          1           0        3.627015   -1.654091    0.853042
     21          1           0        2.064659   -2.644371    0.760768
     22          1           0        0.639272   -2.595983   -1.092001
     23          1           0       -1.019473   -1.792384   -1.249549
 ---------------------------------------------------------------------

 SCF Done:  E(UB3LYP) =  -426.498328571     A.U. after   26 cycles

 The electronic state is 2-A.
 Alpha  occ. eigenvalues --  -10.05233 -10.02906 -10.02388 -10.02039 -10.01635
 Alpha  occ. eigenvalues --  -10.01103 -10.00553 -10.00437 -10.00131  -9.98903
 Alpha  occ. eigenvalues --   -9.98870  -0.69770  -0.65955  -0.61693  -0.61006
 Alpha  occ. eigenvalues --   -0.55813  -0.53008  -0.48107  -0.43859  -0.40395
 Alpha  occ. eigenvalues --   -0.39972  -0.34087  -0.32376  -0.31917  -0.29844
 Alpha  occ. eigenvalues --   -0.28830  -0.28325  -0.25489  -0.24993  -0.24722
 Alpha  occ. eigenvalues --   -0.22590  -0.21973  -0.21485  -0.18584  -0.16985
 Alpha  occ. eigenvalues --   -0.14818  -0.12533  -0.10004  -0.04041   0.03843
 Alpha virt. eigenvalues --    0.08311   0.09980   0.10542   0.11283   0.11552
 Alpha virt. eigenvalues --    0.11646   0.12440   0.13303   0.13473   0.13961
 Alpha virt. eigenvalues --    0.15015   0.15747   0.16397   0.16642   0.17474

  Beta  occ. eigenvalues --  -10.05243 -10.02944 -10.02251 -10.02084 -10.01693
  Beta  occ. eigenvalues --  -10.00900 -10.00499 -10.00299  -9.99863  -9.98611
  Beta  occ. eigenvalues --   -9.98473  -0.69426  -0.65745  -0.61324  -0.60638
  Beta  occ. eigenvalues --   -0.55511  -0.52629  -0.47348  -0.43529  -0.40086
  Beta  occ. eigenvalues --   -0.39636  -0.33916  -0.32200  -0.31727  -0.29714
  Beta  occ. eigenvalues --   -0.28708  -0.28152  -0.25362  -0.24815  -0.24519
  Beta  occ. eigenvalues --   -0.22420  -0.21743  -0.20686  -0.18291  -0.16760
  Beta  occ. eigenvalues --   -0.14092  -0.11309  -0.08837  -0.02148
  Beta virt. eigenvalues --    0.08274   0.09242   0.09962   0.10526   0.11320
  Beta virt. eigenvalues --    0.11539   0.11661   0.12986   0.13264   0.13477
  Beta virt. eigenvalues --    0.14127   0.15081   0.15755   0.16478   0.16883

 Mulliken charges and spin densities:
               1          2
     1  C   -0.775298  -0.008464
     2  C   -0.209029   0.096161
     3  C    0.155541  -0.040988
     4  C    0.479503   0.103780
     5  C   -0.069910   0.176990
     6  C   -0.249101   0.042353
     7  C   -0.670477   0.179650
     8  C    0.326890  -0.069990
     9  C   -0.719723   0.406966
    10  C    0.485964  -0.080261
    11  C   -0.945288   0.247175
    12  H    0.114562   0.000925
    13  H    0.114468   0.003743
    14  H    0.117116   0.006268
    15  H    0.134277   0.007276
    16  H    0.096760   0.005870
    17  H    0.064394  -0.003591
    18  H    0.101145  -0.006211
    19  H    0.075172  -0.015857
    20  H    0.074589  -0.019453
    21  H    0.103304  -0.010985
    22  H    0.105090  -0.008186
    23  H    0.090053  -0.013172
 Sum of Mulliken charges =  -1.00000   1.00000

 Dipole moment (field-independent basis, Debye):
    X=             -3.2833    Y=              1.1428    Z=              0.2236  Tot=              3.4837
 Quadrupole moment (field-independent basis, Debye-Ang):
   XX=            -92.7780   YY=            -83.1184   ZZ=            -80.9277
   XY=              2.1446   XZ=             -0.0738   YZ=             -0.1913

 Summary of Natural Population Analysis:

                                       Natural Population
                Natural  -----------------------------------------------
    Atom  No    Charge         Core      Valence    Rydberg      Total
 -----------------------------------------------------------------------
      C    1   -0.29622      0.99966     2.29217    0.00439     3.29622
      C    2   -0.08145      0.99955     2.07385    0.00805     3.08145
      C    3   -0.10161      0.99951     2.09286    0.00925     3.10161
      C    4   -0.00795      0.99945     1.99697    0.01153     3.00795
      C    5   -0.07171      0.99952     2.06371    0.00848     3.07171
      C    6   -0.11475      0.99956     2.10467    0.01053     3.11475
      C    7   -0.04250      0.99951     2.03340    0.00959     3.04250
      C    8   -0.05588      0.99949     2.04462    0.01177     3.05588
      C    9   -0.10363      0.99955     2.09683    0.00725     3.10363
      C   10   -0.03498      0.99947     2.02523    0.01028     3.03498
      C   11   -0.13452      0.99955     2.12674    0.00823     3.13452
      H   12    0.09303      0.00000     0.40591    0.00106     0.40697
      H   13    0.09320      0.00000     0.40554    0.00127     0.40680
      H   14    0.09327      0.00000     0.40541    0.00132     0.40673
      H   15    0.09424      0.00000     0.40410    0.00167     0.40576
      H   16    0.08417      0.00000     0.41427    0.00157     0.41583
      H   17    0.08418      0.00000     0.41434    0.00148     0.41582
      H   18    0.08625      0.00000     0.41259    0.00116     0.41375
      H   19    0.08366      0.00000     0.41463    0.00170     0.41634
      H   20    0.07755      0.00000     0.42129    0.00116     0.42245
      H   21    0.08391      0.00000     0.41501    0.00108     0.41609
      H   22    0.08559      0.00000     0.41332    0.00109     0.41441
      H   23    0.08617      0.00000     0.41283    0.00100     0.41383
 =======================================================================
   * Total *   -0.00000     10.99483    27.89029    0.11488    39.00000

 Normal termination of Gaussian 16 at Tue Dec  8 19:42:07 2020.
