 Gaussian 16, Revision A.03,

 -----------------------------------------------------------
 # opt freq B3LYP/6-31G(d) empiricaldispersion=gd3bj scf=xqc
 -----------------------------------------------------------

 ------------------------------
 CID_61623310_JID_3480_neutraal
 ------------------------------
 Symbolic Z-matrix:
 Charge =  0 Multiplicity = 1

 SCF Done:  E(RB3LYP) =  -928.065819220     A.U. after   15 cycles
 SCF Done:  E(RB3LYP) =  -928.070084566     A.U. after   12 cycles
 SCF Done:  E(RB3LYP) =  -928.070647422     A.U. after   13 cycles
 SCF Done:  E(RB3LYP) =  -928.071570684     A.U. after   12 cycles
 SCF Done:  E(RB3LYP) =  -928.071927251     A.U. after   12 cycles
 SCF Done:  E(RB3LYP) =  -928.072107577     A.U. after   11 cycles
 SCF Done:  E(RB3LYP) =  -928.072223968     A.U. after   11 cycles
 SCF Done:  E(RB3LYP) =  -928.072381093     A.U. after   12 cycles
 SCF Done:  E(RB3LYP) =  -928.072481191     A.U. after   12 cycles
 SCF Done:  E(RB3LYP) =  -928.072605016     A.U. after   12 cycles
 SCF Done:  E(RB3LYP) =  -928.076350326     A.U. after   11 cycles
 SCF Done:  E(RB3LYP) =  -928.076350450     A.U. after    8 cycles
 SCF Done:  E(RB3LYP) =  -928.076350523     A.U. after    8 cycles
 SCF Done:  E(RB3LYP) =  -928.076350540     A.U. after    8 cycles
 Optimization completed.
    -- Stationary point found.
 Normal termination of Gaussian 16 at Wed Dec  9 23:36:21 2020.

 --------------------------------------------------------------------
 #N Geom=AllCheck Guess=TCheck SCRF=Check GenChk RB3LYP/6-31G(d) Freq
 --------------------------------------------------------------------

 Structure from the checkpoint file:  "JID_3480.chk"
 ------------------------------
 CID_61623310_JID_3480_neutraal
 ------------------------------
 Charge =  0 Multiplicity = 1

 SCF Done:  E(RB3LYP) =  -928.076350540     A.U. after    1 cycles

  Exact polarizability: 147.089  -2.978  98.815 -10.120  -2.982  96.518
 Approx polarizability: 214.692  -5.959 156.239 -26.778  -4.973 176.456

                      1                      2                      3
                      A                      A                      A
 Frequencies --     28.3742                44.1764                70.8919
 Red. masses --      4.9287                 4.7580                 7.3129
 Frc consts  --      0.0023                 0.0055                 0.0217
 IR Inten    --      1.1849                 0.7242                 0.5720

                      4                      5                      6
                      A                      A                      A
 Frequencies --     93.8353               150.9520               198.9674
 Red. masses --      4.8841                 3.9113                 2.7932
 Frc consts  --      0.0253                 0.0525                 0.0651
 IR Inten    --      0.3696                 2.6369                 6.7131

                      7                      8                      9
                      A                      A                      A
 Frequencies --    259.1479               273.3339               300.1936
 Red. masses --      2.6325                 1.8948                 2.9978
 Frc consts  --      0.1042                 0.0834                 0.1592
 IR Inten    --     19.3268                16.5775                16.1682

                     10                     11                     12
                      A                      A                      A
 Frequencies --    328.4660               342.1357               466.1144
 Red. masses --      7.2066                 3.1577                 4.8949
 Frc consts  --      0.4581                 0.2178                 0.6266
 IR Inten    --      1.9591                 2.6033                 0.3924

                     13                     14                     15
                      A                      A                      A
 Frequencies --    538.3687               624.8514               648.7563
 Red. masses --      4.0977                 6.9999                 3.5320
 Frc consts  --      0.6998                 1.6103                 0.8759
 IR Inten    --      6.6631                 6.4474                 5.3247

                     16                     17                     18
                      A                      A                      A
 Frequencies --    675.8399               696.0590               705.0862
 Red. masses --      2.9807                 3.2961                 4.2140
 Frc consts  --      0.8022                 0.9409                 1.2343
 IR Inten    --     23.7584                16.2468                10.4409

                     19                     20                     21
                      A                      A                      A
 Frequencies --    709.6136               789.3306               837.3711
 Red. masses --      1.5039                 3.2811                 4.2965
 Frc consts  --      0.4462                 1.2045                 1.7750
 IR Inten    --     10.0139                35.8058                13.5993

                     22                     23                     24
                      A                      A                      A
 Frequencies --    852.5215               855.0314               877.2645
 Red. masses --      1.4184                 1.4653                 3.1064
 Frc consts  --      0.6074                 0.6312                 1.4085
 IR Inten    --     24.1093                32.4083                 4.4156

                     25                     26                     27
                      A                      A                      A
 Frequencies --    892.1190               894.4079               901.4189
 Red. masses --      1.3795                 1.2762                 1.4056
 Frc consts  --      0.6469                 0.6015                 0.6729
 IR Inten    --      8.6800                 1.6895                74.3957

                     28                     29                     30
                      A                      A                      A
 Frequencies --    928.8645               973.5423               977.7361
 Red. masses --      3.4527                 2.4156                 5.8420
 Frc consts  --      1.7552                 1.3489                 3.2904
 IR Inten    --      6.2369                17.0581                 6.9800

                     31                     32                     33
                      A                      A                      A
 Frequencies --   1037.7746              1048.5352              1115.5514
 Red. masses --      4.3588                 1.9312                 1.7820
 Frc consts  --      2.7658                 1.2510                 1.3066
 IR Inten    --     35.3462                12.8664                 7.6804

                     34                     35                     36
                      A                      A                      A
 Frequencies --   1120.7543              1164.5271              1170.7410
 Red. masses --      1.2247                 1.6443                 1.6745
 Frc consts  --      0.9064                 1.3138                 1.3523
 IR Inten    --      2.8571                17.5302                19.0522

                     37                     38                     39
                      A                      A                      A
 Frequencies --   1210.7999              1223.9623              1234.5192
 Red. masses --      1.8242                 1.5746                 1.7407
 Frc consts  --      1.5757                 1.3898                 1.5630
 IR Inten    --      0.3545                12.7055                28.5625

                     40                     41                     42
                      A                      A                      A
 Frequencies --   1247.1737              1318.3058              1326.2634
 Red. masses --      1.9587                 2.7870                 1.4532
 Frc consts  --      1.7950                 2.8538                 1.5060
 IR Inten    --      1.2661                44.3933                 4.3398

                     43                     44                     45
                      A                      A                      A
 Frequencies --   1360.9610              1383.1486              1391.7336
 Red. masses --      1.9883                 1.4838                 3.7291
 Frc consts  --      2.1698                 1.6725                 4.2556
 IR Inten    --     19.7349                16.3394                16.0273

                     46                     47                     48
                      A                      A                      A
 Frequencies --   1440.6250              1444.4709              1476.2645
 Red. masses --      2.8079                 1.3885                 6.4663
 Frc consts  --      3.4335                 1.7069                 8.3030
 IR Inten    --      3.9372                 7.7806                13.3045

                     49                     50                     51
                      A                      A                      A
 Frequencies --   1481.6249              1529.4129              1550.0299
 Red. masses --      3.2056                 1.1049                 3.9580
 Frc consts  --      4.1461                 1.5227                 5.6029
 IR Inten    --      4.0995                 7.9263                49.7471

                     52                     53                     54
                      A                      A                      A
 Frequencies --   1598.1415              1695.4093              3014.3586
 Red. masses --      5.7629                 1.0868                 1.0697
 Frc consts  --      8.6720                 1.8406                 5.7266
 IR Inten    --      0.9867                33.2737                45.4040

                     55                     56                     57
                      A                      A                      A
 Frequencies --   3079.6099              3101.2296              3217.2289
 Red. masses --      1.0848                 1.0941                 1.0914
 Frc consts  --      6.0617                 6.1998                 6.6558
 IR Inten    --     14.7629                28.5757                 3.4307

                     58                     59                     60
                      A                      A                      A
 Frequencies --   3272.9601              3275.0490              3286.1881
 Red. masses --      1.0966                 1.0965                 1.0946
 Frc consts  --      6.9213                 6.9294                 6.9642
 IR Inten    --      9.4036                 0.5529                18.8233

                     61                     62                     63
                      A                      A                      A
 Frequencies --   3302.2466              3476.8550              3559.3008
 Red. masses --      1.0984                 1.0502                 1.0922
 Frc consts  --      7.0568                 7.4802                 8.1523
 IR Inten    --      0.1371                 0.1634                 0.5133

 - Thermochemistry -
 -------------------
 Temperature   298.150 Kelvin.  Pressure   1.00000 Atm.
 Atom     1 has atomic number  6 and mass  12.00000

 Molecular mass:   194.06262 amu.
 Principal axes and moments of inertia in atomic units:
                           1         2         3
     Eigenvalues --  1372.780853826.602544349.31804
           X            0.99985  -0.01607   0.00589
           Y            0.01621   0.99957  -0.02457
           Z           -0.00549   0.02466   0.99968
 This molecule is an asymmetric top.
 Rotational symmetry number  1.
 Warning -- assumption of classical behavior for rotation
           may cause significant error
 Rotational temperatures (Kelvin)      0.06309     0.02263     0.01991
 Rotational constants (GHZ):           1.31466     0.47163     0.41495
 Zero-point vibrational energy     479047.7 (Joules/Mol)
                                  114.49516 (Kcal/Mol)
 Warning -- explicit consideration of  13 degrees of freedom as
           vibrations may cause significant error
 Vibrational temperatures:     40.82    63.56   102.00   135.01   217.19
          (Kelvin)            286.27   372.86   393.27   431.91   472.59
                              492.26   670.63   774.59   899.02   933.42
                              972.38  1001.47  1014.46  1020.98  1135.67
                             1204.79  1226.59  1230.20  1262.19  1283.56
                             1286.85  1296.94  1336.43  1400.71  1406.74
                             1493.13  1508.61  1605.03  1612.52  1675.49
                             1684.44  1742.07  1761.01  1776.20  1794.40
                             1896.75  1908.20  1958.12  1990.04  2002.39
                             2072.74  2078.27  2124.02  2131.73  2200.48
                             2230.15  2299.37  2439.32  4336.99  4430.87
                             4461.98  4628.87  4709.06  4712.06  4728.09
                             4751.20  5002.42  5121.04

 Zero-point correction=                           0.182460 (Hartree/Particle)
 Thermal correction to Energy=                    0.193972
 Thermal correction to Enthalpy=                  0.194916
 Thermal correction to Gibbs Free Energy=         0.142875
 Sum of electronic and zero-point Energies=           -927.893891
 Sum of electronic and thermal Energies=              -927.882378
 Sum of electronic and thermal Enthalpies=            -927.881434
 Sum of electronic and thermal Free Energies=         -927.933475

                     E (Thermal)             CV                S
                      KCal/Mol        Cal/Mol-Kelvin    Cal/Mol-Kelvin
 Total                  121.719             42.976            109.530
 Electronic               0.000              0.000              0.000
 Translational            0.889              2.981             41.694
 Rotational               0.889              2.981             31.502
 Vibrational            119.942             37.014             36.333
 Vibration     1          0.593              1.984              5.940
 Vibration     2          0.595              1.980              5.062
 Vibration     3          0.598              1.968              4.128
 Vibration     4          0.603              1.954              3.578
 Vibration     5          0.618              1.902              2.660
 Vibration     6          0.637              1.841              2.143
 Vibration     7          0.668              1.747              1.668
 Vibration     8          0.676              1.723              1.575
 Vibration     9          0.693              1.673              1.416
 Vibration    10          0.712              1.619              1.268
 Vibration    11          0.721              1.591              1.202
 Vibration    12          0.823              1.325              0.749
 Vibration    13          0.893              1.165              0.569

 Optimization completed.
    -- Stationary point found.
 Normal termination of Gaussian 16 at Wed Dec  9 23:42:43 2020.

 ----------------------------------------------------------------------
 # B3LYP/6-311++G(d,p) empiricaldispersion=gd3bj scf=xqc pop=npa geom=c
 heck
 ----------------------------------------------------------------------

 --------------------------------------
 CID_61623310_JID_3480_Energie_neutraal
 --------------------------------------
 Structure from the checkpoint file:  "JID_3480.chk"
 Charge =  0 Multiplicity = 1

 SCF Done:  E(RB3LYP) =  -928.251997828     A.U. after   16 cycles
 Normal termination of Gaussian 16 at Wed Dec  9 23:45:41 2020.

 ----------------------------------------------------------------------
 # B3LYP/6-311++G(d,p) empiricaldispersion=gd3bj scf=xqc pop=npa geom=c
 heck
 ----------------------------------------------------------------------

 ------------------------------------
 CID_61623310_JID_3480_Energie_kation
 ------------------------------------
 Structure from the checkpoint file:  "JID_3480.chk"
 Charge =  1 Multiplicity = 2

 SCF Done:  E(UB3LYP) =  -927.934638811     A.U. after   33 cycles
 SCF Done:  E(UB3LYP) =  -927.934638811     a.u. after    1 cycles
 Normal termination of Gaussian 16 at Wed Dec  9 23:54:29 2020.
 Gaussian 16:  ES64L-G16RevA.03 25-Dec-2016

 ----------------------------------------------------------------------
 # B3LYP/6-311++G(d,p) empiricaldispersion=gd3bj scf=xqc pop=npa geom=c
 heck
 ----------------------------------------------------------------------

 -----------------------------------
 CID_61623310_JID_3480_Energie_anion
 -----------------------------------
 Structure from the checkpoint file:  "JID_3480.chk"
 Charge = -1 Multiplicity = 2

                         Standard orientation:
 ---------------------------------------------------------------------
 Center     Atomic      Atomic             Coordinates (Angstroms)
 Number     Number       Type             X           Y           Z
 ---------------------------------------------------------------------
      1          6           0        1.628395   -0.935849    1.182635
      2          6           0        2.856677   -1.193734    0.644685
      3         16           0        3.188247   -0.151560   -0.704749
      4          6           0        1.653099    0.632804   -0.538948
      5          6           0        0.929489    0.120549    0.508121
      6          6           0       -0.452170    0.566069    0.919900
      7          6           0       -0.781844    2.045933    0.661349
      8          7           0       -0.844383    2.336902   -0.772937
      9          7           0       -1.474361   -0.277350    0.278850
     10          6           0       -1.400128   -1.066430   -0.817738
     11          7           0       -2.591638   -1.576353   -1.098328
     12          6           0       -3.378521   -1.046500   -0.120363
     13          7           0       -2.755706   -0.249677    0.738937
     14          1           0        1.221206   -1.472172    2.033389
     15          1           0        3.587126   -1.925344    0.961226
     16          1           0        1.338689    1.417642   -1.211762
     17          1           0       -0.566937    0.391837    1.994831
     18          1           0       -1.714732    2.270709    1.199879
     19          1           0        0.017812    2.647794    1.105507
     20          1           0       -1.663142    1.879180   -1.171242
     21          1           0       -0.982862    3.335962   -0.909881
     22          1           0       -0.480138   -1.236873   -1.355398
     23          1           0       -4.436335   -1.255478   -0.034062
 ---------------------------------------------------------------------

 SCF Done:  E(UB3LYP) =  -928.238947469     A.U. after   33 cycles
 SCF Done:  E(UB3LYP) =  -928.238982197     a.u. after    6 cycles

 The electronic state is 2-A.
 Alpha  occ. eigenvalues --  -88.78466 -14.30677 -14.24616 -14.21477 -14.19756
 Alpha  occ. eigenvalues --  -10.14445 -10.13674 -10.12800 -10.10430 -10.10103
 Alpha  occ. eigenvalues --  -10.10039 -10.09304 -10.08345  -7.87078  -5.83353
 Alpha  occ. eigenvalues --   -5.82986  -5.82707  -0.98791  -0.82328  -0.79180
 Alpha  occ. eigenvalues --   -0.78486  -0.74833  -0.67613  -0.63696  -0.61822
 Alpha  occ. eigenvalues --   -0.55012  -0.53509  -0.50086  -0.47639  -0.46187
 Alpha  occ. eigenvalues --   -0.43883  -0.41410  -0.39317  -0.37440  -0.36231
 Alpha  occ. eigenvalues --   -0.35381  -0.33708  -0.31729  -0.30998  -0.29498
 Alpha  occ. eigenvalues --   -0.28637  -0.28438  -0.27553  -0.25280  -0.24062
 Alpha  occ. eigenvalues --   -0.19902  -0.19256  -0.17988  -0.16299  -0.15462
 Alpha  occ. eigenvalues --   -0.14449   0.04441
 Alpha virt. eigenvalues --    0.06119   0.06771   0.07507   0.08105   0.08798
 Alpha virt. eigenvalues --    0.08986   0.09390   0.10290   0.10891   0.11552
 Alpha virt. eigenvalues --    0.11823   0.12405   0.12734   0.13138   0.13645

  Beta  occ. eigenvalues --  -88.78462 -14.30679 -14.24597 -14.21480 -14.19704
  Beta  occ. eigenvalues --  -10.14428 -10.13664 -10.12794 -10.10394 -10.10073
  Beta  occ. eigenvalues --  -10.10010 -10.09308 -10.08325  -7.87074  -5.83351
  Beta  occ. eigenvalues --   -5.82983  -5.82698  -0.98777  -0.82305  -0.79145
  Beta  occ. eigenvalues --   -0.78420  -0.74798  -0.67577  -0.63640  -0.61765
  Beta  occ. eigenvalues --   -0.54939  -0.53491  -0.50051  -0.47570  -0.46156
  Beta  occ. eigenvalues --   -0.43834  -0.41346  -0.39255  -0.37402  -0.36172
  Beta  occ. eigenvalues --   -0.35338  -0.33694  -0.31677  -0.30944  -0.29453
  Beta  occ. eigenvalues --   -0.28582  -0.28385  -0.27506  -0.25247  -0.24034
  Beta  occ. eigenvalues --   -0.19874  -0.19246  -0.17928  -0.16259  -0.15383
  Beta  occ. eigenvalues --   -0.14370
  Beta virt. eigenvalues --    0.06904   0.07010   0.07534   0.08115   0.08311
  Beta virt. eigenvalues --    0.09196   0.09366   0.09954   0.10567   0.11128
  Beta virt. eigenvalues --    0.11916   0.12049   0.12551   0.13199   0.13339

 Mulliken charges and spin densities:
               1          2
     1  C   -0.926658   1.038453
     2  C    1.168720  -1.490341
     3  S    0.275529  -0.698966
     4  C   -1.640287   2.241225
     5  C    0.401001  -1.233121
     6  C    1.283745  -0.928224
     7  C    1.589086  -2.486482
     8  N   -0.535320   0.095402
     9  N   -0.028858  -0.050551
    10  C    0.117213  -0.311759
    11  N   -0.154804   0.015468
    12  C   -0.049551  -0.055078
    13  N    0.031072   0.008204
    14  H   -0.794416   0.981476
    15  H   -0.908731   1.178636
    16  H    0.087437   0.292232
    17  H   -0.196603   0.456796
    18  H   -0.072683   0.263149
    19  H   -0.453462   0.632950
    20  H    0.046004   0.189151
    21  H   -0.390440   0.654676
    22  H    0.082689   0.119961
    23  H    0.069317   0.086742
 Sum of Mulliken charges =  -1.00000   1.00000

 Dipole moment (field-independent basis, Debye):
    X=             -0.8515    Y=             -2.1214    Z=             -2.5014  Tot=              3.3885
 Quadrupole moment (field-independent basis, Debye-Ang):
   XX=           -133.7151   YY=           -143.6946   ZZ=           -121.4637
   XY=             11.4149   XZ=             -9.5604   YZ=              4.5497

 Summary of Natural Population Analysis:

                                       Natural Population
                Natural  -----------------------------------------------
    Atom  No    Charge         Core      Valence    Rydberg      Total
 -----------------------------------------------------------------------
      C    1   -0.11922      0.99948     2.10767    0.01207     3.11922
      C    2   -0.18694      0.99954     2.17544    0.01196     3.18694
      S    3    0.20150      4.99945     2.77821    0.02084     7.79850
      C    4   -0.18134      0.99944     2.17198    0.00991     3.18134
      C    5   -0.06261      0.99947     2.04875    0.01439     3.06261
      C    6   -0.01158      0.99952     1.99578    0.01627     3.01158
      C    7   -0.08780      0.99962     2.07606    0.01213     3.08780
      N    8   -0.42832      0.99977     2.91696    0.01160     3.92832
      N    9   -0.11444      0.99964     2.60060    0.01420     3.61444
      C   10    0.11361      0.99962     1.87169    0.01508     2.88639
      N   11   -0.26963      0.99973     2.75913    0.01077     3.76963
      C   12    0.08530      0.99970     1.89619    0.01881     2.91470
      N   13   -0.15724      0.99973     2.64708    0.01043     3.65724
      H   14    0.11193      0.00000     0.38588    0.00220     0.38807
      H   15    0.11338      0.00000     0.38385    0.00277     0.38662
      H   16    0.12941      0.00000     0.36892    0.00167     0.37059
      H   17    0.11397      0.00000     0.38352    0.00251     0.38603
      H   18    0.09155      0.00000     0.40630    0.00215     0.40845
      H   19    0.10019      0.00000     0.39756    0.00225     0.39981
      H   20    0.17511      0.00000     0.32262    0.00228     0.32489
      H   21    0.18520      0.00000     0.30837    0.00643     0.31480
      H   22    0.10704      0.00000     0.39138    0.00158     0.39296
      H   23    0.09096      0.00000     0.40822    0.00082     0.40904
 =======================================================================
   * Total *   -0.00000     16.99472    33.80216    0.20311    51.00000

 Normal termination of Gaussian 16 at Thu Dec 10 00:42:29 2020.
