 Gaussian 16, Revision A.03,

 -----------------------------------------------------------
 # opt freq B3LYP/6-31G(d) empiricaldispersion=gd3bj scf=xqc
 -----------------------------------------------------------

 -------------------------------
 CID_148776382_JID_2730_neutraal
 -------------------------------
 Symbolic Z-matrix:
 Charge =  0 Multiplicity = 1

 SCF Done:  E(RB3LYP) =  -500.200613017     A.U. after   14 cycles
 SCF Done:  E(RB3LYP) =  -500.205528714     A.U. after   12 cycles
 SCF Done:  E(RB3LYP) =  -500.206799061     A.U. after   12 cycles
 SCF Done:  E(RB3LYP) =  -500.207281793     A.U. after   11 cycles
 SCF Done:  E(RB3LYP) =  -500.207408600     A.U. after   10 cycles
 SCF Done:  E(RB3LYP) =  -500.207468994     A.U. after   10 cycles
 SCF Done:  E(RB3LYP) =  -500.207485197     A.U. after   10 cycles
 SCF Done:  E(RB3LYP) =  -500.207490339     A.U. after    8 cycles
 SCF Done:  E(RB3LYP) =  -500.207490729     A.U. after    8 cycles
 SCF Done:  E(RB3LYP) =  -500.207490856     A.U. after    7 cycles
 Optimization completed.
    -- Stationary point found.
 Normal termination of Gaussian 16 at Wed Dec  9 17:51:57 2020.

 --------------------------------------------------------------------
 #N Geom=AllCheck Guess=TCheck SCRF=Check GenChk RB3LYP/6-31G(d) Freq
 --------------------------------------------------------------------

 Structure from the checkpoint file:  "JID_2730.chk"
 -------------------------------
 CID_148776382_JID_2730_neutraal
 -------------------------------
 Charge =  0 Multiplicity = 1

 SCF Done:  E(RB3LYP) =  -500.207490856     A.U. after    1 cycles

  Exact polarizability: 148.159   1.912 117.279  -0.851  -2.479  82.504
 Approx polarizability: 195.534   9.617 196.459  -0.686  -3.163 123.275

                      1                      2                      3
                      A                      A                      A
 Frequencies --     69.4610                93.8735               133.1336
 Red. masses --      3.0927                 1.9871                 2.5803
 Frc consts  --      0.0088                 0.0103                 0.0269
 IR Inten    --      0.5497                 1.0841                 1.5059

                      4                      5                      6
                      A                      A                      A
 Frequencies --    185.6057               209.7272               221.5351
 Red. masses --      2.1336                 2.4485                 1.5965
 Frc consts  --      0.0433                 0.0635                 0.0462
 IR Inten    --      0.9284                 2.2872                 0.7392

                      7                      8                      9
                      A                      A                      A
 Frequencies --    252.1273               289.6636               308.2348
 Red. masses --      1.5867                 1.4510                 2.4037
 Frc consts  --      0.0594                 0.0717                 0.1346
 IR Inten    --      3.8990                 3.4823                 2.9774

                     10                     11                     12
                      A                      A                      A
 Frequencies --    334.1285               345.4791               379.8723
 Red. masses --      2.4216                 2.7674                 2.3194
 Frc consts  --      0.1593                 0.1946                 0.1972
 IR Inten    --      2.6323                 0.1729                 0.7514

                     13                     14                     15
                      A                      A                      A
 Frequencies --    453.9147               501.0813               546.9940
 Red. masses --      3.2173                 3.2831                 2.8923
 Frc consts  --      0.3906                 0.4857                 0.5099
 IR Inten    --      2.0374                 9.6635                 4.9476

                     16                     17                     18
                      A                      A                      A
 Frequencies --    559.8256               595.5352               607.2020
 Red. masses --      4.0963                 2.9769                 2.1857
 Frc consts  --      0.7564                 0.6220                 0.4748
 IR Inten    --      6.2107                58.8319                72.5519

                     19                     20                     21
                      A                      A                      A
 Frequencies --    690.8242               743.5527               756.9392
 Red. masses --      3.7281                 1.5727                 2.5595
 Frc consts  --      1.0483                 0.5123                 0.8640
 IR Inten    --     20.8337                24.0628                82.8955

                     22                     23                     24
                      A                      A                      A
 Frequencies --    772.4511               798.9168               854.3707
 Red. masses --      2.3994                 1.3749                 2.1780
 Frc consts  --      0.8435                 0.5171                 0.9367
 IR Inten    --     14.1295                98.5355                 7.4263

                     25                     26                     27
                      A                      A                      A
 Frequencies --    896.3750               897.3364               943.8023
 Red. masses --      2.0012                 2.2135                 1.8175
 Frc consts  --      0.9474                 1.0501                 0.9538
 IR Inten    --      4.6995                 8.1097                 2.4654

                     28                     29                     30
                      A                      A                      A
 Frequencies --    953.9606               969.6304               977.9285
 Red. masses --      2.1345                 1.3371                 1.7069
 Frc consts  --      1.1445                 0.7407                 0.9618
 IR Inten    --      3.5745                 0.5003                12.3623

                     31                     32                     33
                      A                      A                      A
 Frequencies --   1044.0470              1073.0228              1086.8081
 Red. masses --      3.0606                 1.8538                 2.0454
 Frc consts  --      1.9656                 1.2576                 1.4234
 IR Inten    --      8.7197                12.4541                 7.7062

                     34                     35                     36
                      A                      A                      A
 Frequencies --   1092.0957              1111.9066              1156.8738
 Red. masses --      1.8647                 2.3364                 1.6944
 Frc consts  --      1.3103                 1.7019                 1.3361
 IR Inten    --      1.8597                10.2826                 0.2299

                     37                     38                     39
                      A                      A                      A
 Frequencies --   1175.5897              1190.9009              1196.8904
 Red. masses --      1.3900                 1.5830                 1.2758
 Frc consts  --      1.1318                 1.3228                 1.0768
 IR Inten    --      8.3851                55.9779                 4.1309

                     40                     41                     42
                      A                      A                      A
 Frequencies --   1207.3517              1221.3303              1233.3177
 Red. masses --      1.9900                 1.4780                 1.7811
 Frc consts  --      1.7091                 1.2989                 1.5962
 IR Inten    --     46.2515                 3.3189                 6.7329

                     43                     44                     45
                      A                      A                      A
 Frequencies --   1269.2966              1289.4634              1308.1029
 Red. masses --      1.6161                 1.7278                 1.8446
 Frc consts  --      1.5341                 1.6927                 1.8597
 IR Inten    --      7.5172                 6.3731                 2.6189

                     46                     47                     48
                      A                      A                      A
 Frequencies --   1334.1474              1350.5659              1386.9342
 Red. masses --      1.6376                 1.3507                 1.9035
 Frc consts  --      1.7174                 1.4516                 2.1573
 IR Inten    --     28.5422                42.5534                12.0743

                     49                     50                     51
                      A                      A                      A
 Frequencies --   1418.9326              1448.5303              1479.8580
 Red. masses --      1.2888                 1.9702                 1.6931
 Frc consts  --      1.5289                 2.4356                 2.1846
 IR Inten    --      8.0664                 3.8017                55.6920

                     52                     53                     54
                      A                      A                      A
 Frequencies --   1480.9113              1494.6529              1506.3714
 Red. masses --      1.1990                 1.2256                 1.1926
 Frc consts  --      1.5493                 1.6132                 1.5945
 IR Inten    --      3.4041                 3.6266                16.4531

                     55                     56                     57
                      A                      A                      A
 Frequencies --   1518.0405              1524.2012              1529.2306
 Red. masses --      1.0773                 1.1059                 1.0701
 Frc consts  --      1.4627                 1.5137                 1.4744
 IR Inten    --     10.3345                 1.2212                 3.8085

                     58                     59                     60
                      A                      A                      A
 Frequencies --   1534.5126              1546.7517              1550.7158
 Red. masses --      1.0542                 1.1116                 1.0508
 Frc consts  --      1.4626                 1.5669                 1.4888
 IR Inten    --      2.2428                 1.4714                12.9476

                     61                     62                     63
                      A                      A                      A
 Frequencies --   1651.9070              1719.2613              2970.2630
 Red. masses --      7.4624                 6.6145                 1.0601
 Frc consts  --     11.9978                11.5194                 5.5104
 IR Inten    --     83.2324                26.1321                62.4229

                     64                     65                     66
                      A                      A                      A
 Frequencies --   2993.0176              3006.6816              3012.4574
 Red. masses --      1.0692                 1.0760                 1.0678
 Frc consts  --      5.6432                 5.7309                 5.7094
 IR Inten    --     43.6712                56.4341                71.2313

                     67                     68                     69
                      A                      A                      A
 Frequencies --   3049.6768              3062.0921              3079.2733
 Red. masses --      1.0406                 1.0891                 1.0915
 Frc consts  --      5.7021                 6.0166                 6.0976
 IR Inten    --     15.6315                37.0716                45.9051

                     70                     71                     72
                      A                      A                      A
 Frequencies --   3086.5067              3109.9629              3117.0375
 Red. masses --      1.0725                 1.0944                 1.0969
 Frc consts  --      6.0199                 6.2365                 6.2790
 IR Inten    --     49.4181                52.6673                37.6563

                     73                     74                     75
                      A                      A                      A
 Frequencies --   3127.3260              3145.8927              3169.4967
 Red. masses --      1.1022                 1.1038                 1.0865
 Frc consts  --      6.3513                 6.4363                 6.4309
 IR Inten    --     23.9107                14.3653                18.0123

                     76                     77                     78
                      A                      A                      A
 Frequencies --   3199.5539              3483.1530              3534.0716
 Red. masses --      1.0949                 1.0739                 1.0759
 Frc consts  --      6.6040                 7.6763                 7.9169
 IR Inten    --     17.4496                 1.0925                 1.5589

 - Thermochemistry -
 -------------------
 Temperature   298.150 Kelvin.  Pressure   1.00000 Atm.
 Atom     1 has atomic number  6 and mass  12.00000

 Molecular mass:   164.13135 amu.
 Principal axes and moments of inertia in atomic units:
                           1         2         3
     Eigenvalues --   904.732972934.737553371.30037
           X            0.99989  -0.01510  -0.00127
           Y            0.01509   0.99987  -0.00563
           Z            0.00135   0.00561   0.99998
 This molecule is an asymmetric top.
 Rotational symmetry number  1.
 Warning -- assumption of classical behavior for rotation
           may cause significant error
 Rotational temperatures (Kelvin)      0.09573     0.02951     0.02569
 Rotational constants (GHZ):           1.99478     0.61496     0.53532
 Zero-point vibrational energy     655688.0 (Joules/Mol)
                                  156.71318 (Kcal/Mol)
 Warning -- explicit consideration of  18 degrees of freedom as
           vibrations may cause significant error
 Vibrational temperatures:     99.94   135.06   191.55   267.05   301.75
          (Kelvin)            318.74   362.75   416.76   443.48   480.74
                              497.07   546.55   653.08   720.94   787.00
                              805.46   856.84   873.63   993.94  1069.81
                             1089.07  1111.38  1149.46  1229.25  1289.68
                             1291.07  1357.92  1372.54  1395.08  1407.02
                             1502.15  1543.84  1563.67  1571.28  1599.79
                             1664.48  1691.41  1713.44  1722.06  1737.11
                             1757.22  1774.47  1826.23  1855.25  1882.07
                             1919.54  1943.16  1995.49  2041.53  2084.11
                             2129.19  2130.70  2150.47  2167.33  2184.12
                             2192.99  2200.22  2207.82  2225.43  2231.13
                             2376.73  2473.63  4273.55  4306.28  4325.94
                             4334.25  4387.80  4405.67  4430.39  4440.79
                             4474.54  4484.72  4499.52  4526.24  4560.20
                             4603.44  5011.48  5084.74

 Zero-point correction=                           0.249738 (Hartree/Particle)
 Thermal correction to Energy=                    0.261215
 Thermal correction to Enthalpy=                  0.262159
 Thermal correction to Gibbs Free Energy=         0.213127
 Sum of electronic and zero-point Energies=           -499.957752
 Sum of electronic and thermal Energies=              -499.946276
 Sum of electronic and thermal Enthalpies=            -499.945332
 Sum of electronic and thermal Free Energies=         -499.994364

                     E (Thermal)             CV                S
                      KCal/Mol        Cal/Mol-Kelvin    Cal/Mol-Kelvin
 Total                  163.915             45.705            103.198
 Electronic               0.000              0.000              0.000
 Translational            0.889              2.981             41.195
 Rotational               0.889              2.981             30.571
 Vibrational            162.137             39.744             31.432
 Vibration     1          0.598              1.969              4.169
 Vibration     2          0.603              1.954              3.578
 Vibration     3          0.613              1.920              2.900
 Vibration     4          0.632              1.860              2.271
 Vibration     5          0.642              1.826              2.046
 Vibration     6          0.648              1.808              1.947
 Vibration     7          0.664              1.759              1.716
 Vibration     8          0.686              1.693              1.476
 Vibration     9          0.698              1.658              1.372
 Vibration    10          0.716              1.607              1.240
 Vibration    11          0.724              1.584              1.187
 Vibration    12          0.750              1.513              1.040
 Vibration    13          0.812              1.352              0.784
 Vibration    14          0.856              1.248              0.655
 Vibration    15          0.902              1.146              0.550
 Vibration    16          0.915              1.118              0.524
 Vibration    17          0.953              1.041              0.457
 Vibration    18          0.966              1.017              0.437

 Optimization completed.
    -- Stationary point found.
 Normal termination of Gaussian 16 at Wed Dec  9 17:59:39 2020.

 ----------------------------------------------------------------------
 # B3LYP/6-311++G(d,p) empiricaldispersion=gd3bj scf=xqc pop=npa geom=c
 heck
 ----------------------------------------------------------------------

 ---------------------------------------
 CID_148776382_JID_2730_Energie_neutraal
 ---------------------------------------
 Structure from the checkpoint file:  "JID_2730.chk"
 Charge =  0 Multiplicity = 1

 SCF Done:  E(RB3LYP) =  -500.348996936     A.U. after   15 cycles
 Normal termination of Gaussian 16 at Wed Dec  9 18:03:15 2020.

 ----------------------------------------------------------------------
 # B3LYP/6-311++G(d,p) empiricaldispersion=gd3bj scf=xqc pop=npa geom=c
 heck
 ----------------------------------------------------------------------

 -------------------------------------
 CID_148776382_JID_2730_Energie_kation
 -------------------------------------
 Structure from the checkpoint file:  "JID_2730.chk"
 Charge =  1 Multiplicity = 2

 SCF Done:  E(UB3LYP) =  -500.102713876     A.U. after   22 cycles
 Normal termination of Gaussian 16 at Wed Dec  9 18:11:01 2020.
 Gaussian 16:  ES64L-G16RevA.03 25-Dec-2016

 ----------------------------------------------------------------------
 # B3LYP/6-311++G(d,p) empiricaldispersion=gd3bj scf=xqc pop=npa geom=c
 heck
 ----------------------------------------------------------------------

 ------------------------------------
 CID_148776382_JID_2730_Energie_anion
 ------------------------------------
 Structure from the checkpoint file:  "JID_2730.chk"
 Charge = -1 Multiplicity = 2

                         Standard orientation:
 ---------------------------------------------------------------------
 Center     Atomic      Atomic             Coordinates (Angstroms)
 Number     Number       Type             X           Y           Z
 ---------------------------------------------------------------------
      1          6           0        1.519865    0.186545    1.658957
      2          6           0        1.388534    0.267951    0.124442
      3          6           0        0.460505   -0.883991   -0.372469
      4          6           0       -0.984832   -0.561514   -0.162584
      5          6           0       -1.450551    0.707071   -0.129811
      6          6           0       -2.964181    0.671170   -0.124839
      7          6           0       -3.240087   -0.812450    0.233323
      8          7           0       -2.007423   -1.515041   -0.194737
      9          6           0       -0.537758    1.822158   -0.282780
     10          6           0        0.792945    1.626801   -0.214862
     11          7           0        2.730651    0.222716   -0.483783
     12          6           0        3.476128   -1.024177   -0.349770
     13          1           0        2.173289    0.984923    2.021247
     14          1           0        1.935936   -0.776409    1.979190
     15          1           0        0.532784    0.296957    2.117647
     16          1           0        0.621021   -1.043843   -1.451814
     17          1           0        0.737360   -1.823402    0.122643
     18          1           0       -3.433740    1.356465    0.589745
     19          1           0       -3.368443    0.914580   -1.119251
     20          1           0       -4.118357   -1.224139   -0.271380
     21          1           0       -3.384644   -0.913601    1.319661
     22          1           0       -1.814787   -2.382310    0.297101
     23          1           0       -0.941031    2.819840   -0.444245
     24          1           0        1.500377    2.447555   -0.292670
     25          1           0        2.626531    0.442010   -1.473126
     26          1           0        2.963320   -1.924619   -0.731695
     27          1           0        4.421533   -0.923352   -0.892573
     28          1           0        3.722841   -1.201751    0.701515
 ---------------------------------------------------------------------

 SCF Done:  E(UB3LYP) =  -500.333973149     A.U. after   33 cycles
 SCF Done:  E(UB3LYP) =  -500.333973149     a.u. after    1 cycles

 The electronic state is 2-A.
 Alpha  occ. eigenvalues --  -14.21256 -14.19365 -10.10787 -10.09522 -10.09483
 Alpha  occ. eigenvalues --  -10.08150 -10.07198 -10.06868 -10.06861 -10.05573
 Alpha  occ. eigenvalues --  -10.05030 -10.04905  -0.83774  -0.80711  -0.71667
 Alpha  occ. eigenvalues --   -0.66928  -0.63392  -0.62640  -0.57698  -0.56118
 Alpha  occ. eigenvalues --   -0.49820  -0.49705  -0.45903  -0.41920  -0.39215
 Alpha  occ. eigenvalues --   -0.37384  -0.37012  -0.35881  -0.33981  -0.32981
 Alpha  occ. eigenvalues --   -0.31344  -0.30561  -0.29041  -0.28900  -0.28172
 Alpha  occ. eigenvalues --   -0.27254  -0.26112  -0.25196  -0.24762  -0.24004
 Alpha  occ. eigenvalues --   -0.21839  -0.21091  -0.16761  -0.12537  -0.07538
 Alpha  occ. eigenvalues --    0.04639
 Alpha virt. eigenvalues --    0.06711   0.07548   0.07908   0.08362   0.08864
 Alpha virt. eigenvalues --    0.09190   0.09577   0.10295   0.11049   0.11705
 Alpha virt. eigenvalues --    0.11977   0.12322   0.12694   0.13715   0.15000

  Beta  occ. eigenvalues --  -14.21219 -14.19356 -10.10787 -10.09522 -10.09449
  Beta  occ. eigenvalues --  -10.08117 -10.07186 -10.06858 -10.06843 -10.05570
  Beta  occ. eigenvalues --  -10.05007 -10.04899  -0.83731  -0.80691  -0.71646
  Beta  occ. eigenvalues --   -0.66892  -0.63358  -0.62606  -0.57647  -0.56056
  Beta  occ. eigenvalues --   -0.49749  -0.49666  -0.45868  -0.41863  -0.39162
  Beta  occ. eigenvalues --   -0.37346  -0.36986  -0.35840  -0.33957  -0.32947
  Beta  occ. eigenvalues --   -0.31311  -0.30524  -0.28995  -0.28864  -0.28140
  Beta  occ. eigenvalues --   -0.27216  -0.26069  -0.25163  -0.24738  -0.23981
  Beta  occ. eigenvalues --   -0.21813  -0.21068  -0.16734  -0.12513  -0.07513
  Beta virt. eigenvalues --    0.06887   0.07536   0.07887   0.08256   0.08918
  Beta virt. eigenvalues --    0.09485   0.09676   0.09985   0.10568   0.11556
  Beta virt. eigenvalues --    0.12140   0.12230   0.12808   0.13113   0.13874

 Mulliken charges and spin densities:
               1          2
     1  C    0.582725  -1.264638
     2  C   -1.074302   1.193064
     3  C   -0.702068   0.261883
     4  C   -0.442595  -0.149474
     5  C    2.269389  -1.376748
     6  C   -0.296915  -0.197253
     7  C    1.454225  -1.753111
     8  N   -0.272571   0.275352
     9  C   -0.760785   0.017264
    10  C   -0.464846   0.368362
    11  N   -0.104220   0.065678
    12  C    0.859640  -1.156565
    13  H    0.022737   0.138905
    14  H   -0.292885   0.418094
    15  H    0.156611  -0.004343
    16  H   -0.236482   0.438713
    17  H    0.193571  -0.015751
    18  H   -0.053747   0.200985
    19  H    0.037262   0.086388
    20  H   -0.306628   0.480908
    21  H   -0.447016   0.612485
    22  H   -0.514055   0.788603
    23  H   -0.056534   0.199641
    24  H    0.089638   0.081470
    25  H    0.142896   0.083496
    26  H   -0.429240   0.570003
    27  H   -0.238967   0.382419
    28  H   -0.114837   0.254170
 Sum of Mulliken charges =  -1.00000   1.00000

 Dipole moment (field-independent basis, Debye):
    X=              0.3867    Y=              5.5054    Z=             -1.5856  Tot=              5.7422
 Quadrupole moment (field-independent basis, Debye-Ang):
   XX=           -140.6848   YY=           -117.6130   ZZ=           -107.5908
   XY=             -3.9167   XZ=              4.7376   YZ=              1.1751

 Summary of Natural Population Analysis:

                                       Natural Population
                Natural  -----------------------------------------------
    Atom  No    Charge         Core      Valence    Rydberg      Total
 -----------------------------------------------------------------------
      C    1   -0.28828      0.99961     2.28139    0.00728     3.28828
      C    2    0.05070      0.99956     1.93518    0.01456     2.94930
      C    3   -0.21599      0.99956     2.20409    0.01234     3.21599
      C    4    0.11960      0.99941     1.86730    0.01369     2.88040
      C    5   -0.08378      0.99939     2.07329    0.01110     3.08378
      C    6   -0.19177      0.99962     2.18359    0.00856     3.19177
      C    7   -0.07961      0.99964     2.06887    0.01111     3.07961
      N    8   -0.31461      0.99968     2.80274    0.01219     3.81461
      C    9   -0.09607      0.99950     2.08735    0.00922     3.09607
      C   10   -0.10484      0.99951     2.09365    0.01167     3.10484
      N   11   -0.34186      0.99972     2.82914    0.01300     3.84186
      C   12   -0.18176      0.99965     2.17369    0.00843     3.18176
      H   13    0.10143      0.00000     0.39747    0.00110     0.39857
      H   14    0.09913      0.00000     0.39976    0.00111     0.40087
      H   15    0.10616      0.00000     0.39255    0.00129     0.39384
      H   16    0.10936      0.00000     0.38887    0.00178     0.39064
      H   17    0.11028      0.00000     0.38748    0.00224     0.38972
      H   18    0.10024      0.00000     0.39849    0.00128     0.39976
      H   19    0.09313      0.00000     0.40568    0.00119     0.40687
      H   20    0.09310      0.00000     0.40526    0.00164     0.40690
      H   21    0.08830      0.00000     0.40876    0.00294     0.41170
      H   22    0.19018      0.00000     0.30131    0.00851     0.30982
      H   23    0.09683      0.00000     0.40197    0.00120     0.40317
      H   24    0.10031      0.00000     0.39850    0.00118     0.39969
      H   25    0.17114      0.00000     0.32599    0.00287     0.32886
      H   26    0.08195      0.00000     0.41615    0.00190     0.41805
      H   27    0.09407      0.00000     0.40498    0.00095     0.40593
      H   28    0.09267      0.00000     0.40594    0.00139     0.40733
 =======================================================================
   * Total *    0.00000     11.99485    32.83942    0.16573    45.00000

 Normal termination of Gaussian 16 at Wed Dec  9 18:22:30 2020.
