 Gaussian 16, Revision A.03,

 -----------------------------------------------------------
 # opt freq B3LYP/6-31G(d) empiricaldispersion=gd3bj scf=xqc
 -----------------------------------------------------------

 ------------------------------
 CID_63582704_JID_7305_neutraal
 ------------------------------
 Symbolic Z-matrix:
 Charge =  0 Multiplicity = 1

 SCF Done:  E(RB3LYP) =  -1176.92439351     A.U. after   18 cycles
 SCF Done:  E(RB3LYP) =  -1176.76566998     A.U. after   18 cycles
 SCF Done:  E(RB3LYP) =  -1176.92727809     A.U. after   15 cycles
 SCF Done:  E(RB3LYP) =  -1176.93067089     A.U. after   15 cycles
 SCF Done:  E(RB3LYP) =  -1176.93025467     A.U. after   15 cycles
 SCF Done:  E(RB3LYP) =  -1176.93320399     A.U. after   14 cycles
 SCF Done:  E(RB3LYP) =  -1176.93581636     A.U. after   15 cycles
 SCF Done:  E(RB3LYP) =  -1176.93741496     A.U. after   15 cycles
 SCF Done:  E(RB3LYP) =  -1176.93635603     A.U. after   14 cycles
 SCF Done:  E(RB3LYP) =  -1176.93711105     A.U. after   14 cycles
 SCF Done:  E(RB3LYP) =  -1176.94547652     A.U. after   12 cycles
 SCF Done:  E(RB3LYP) =  -1176.94548638     A.U. after   11 cycles
 SCF Done:  E(RB3LYP) =  -1176.94548691     A.U. after    9 cycles
 SCF Done:  E(RB3LYP) =  -1176.94548718     A.U. after    8 cycles
 SCF Done:  E(RB3LYP) =  -1176.94548728     A.U. after    8 cycles
 Optimization completed.
    -- Stationary point found.
 Normal termination of Gaussian 16 at Mon Dec 14 17:30:30 2020.

 --------------------------------------------------------------------
 #N Geom=AllCheck Guess=TCheck SCRF=Check GenChk RB3LYP/6-31G(d) Freq
 --------------------------------------------------------------------

 Structure from the checkpoint file:  "JID_7305.chk"
 ------------------------------
 CID_63582704_JID_7305_neutraal
 ------------------------------
 Charge =  0 Multiplicity = 1

 SCF Done:  E(RB3LYP) =  -1176.94548728     A.U. after    1 cycles

  Exact polarizability: 158.849  13.047 170.895  32.376   2.732 114.449
 Approx polarizability: 244.992  35.376 302.976  68.550   4.962 191.300

                      1                      2                      3
                      A                      A                      A
 Frequencies --     31.6224                35.3168                60.7794
 Red. masses --      6.4164                 6.0760                 5.2280
 Frc consts  --      0.0038                 0.0045                 0.0114
 IR Inten    --      1.6165                 1.4923                 0.7493

                      4                      5                      6
                      A                      A                      A
 Frequencies --     79.9386               104.4664               112.5640
 Red. masses --      8.1242                 6.0975                 6.3545
 Frc consts  --      0.0306                 0.0392                 0.0474
 IR Inten    --      0.1070                 0.6718                 0.3120

                      7                      8                      9
                      A                      A                      A
 Frequencies --    129.2291               149.1820               198.2939
 Red. masses --      5.8182                 4.4775                 5.7734
 Frc consts  --      0.0572                 0.0587                 0.1338
 IR Inten    --      4.2358                 4.3509                 2.6963

                     10                     11                     12
                      A                      A                      A
 Frequencies --    212.0283               217.6658               244.4196
 Red. masses --      7.1140                 2.9283                 4.7884
 Frc consts  --      0.1884                 0.0817                 0.1685
 IR Inten    --      2.2109                 3.3561                 0.4802

                     13                     14                     15
                      A                      A                      A
 Frequencies --    272.3242               318.3543               348.9006
 Red. masses --      3.0624                 6.3239                 3.4460
 Frc consts  --      0.1338                 0.3776                 0.2472
 IR Inten    --      5.5235                 0.6751                 1.3289

                     16                     17                     18
                      A                      A                      A
 Frequencies --    371.4979               404.7132               419.5083
 Red. masses --      3.1062                 1.4747                 2.2114
 Frc consts  --      0.2526                 0.1423                 0.2293
 IR Inten    --     14.9344                88.6224                13.8339

                     19                     20                     21
                      A                      A                      A
 Frequencies --    446.7527               456.9158               516.2316
 Red. masses --      3.9555                 5.7728                 3.9509
 Frc consts  --      0.4651                 0.7101                 0.6203
 IR Inten    --      6.2833                 2.1602                 6.3763

                     22                     23                     24
                      A                      A                      A
 Frequencies --    545.1121               564.4431               567.4036
 Red. masses --      3.1068                 5.6634                 2.0180
 Frc consts  --      0.5439                 1.0631                 0.3828
 IR Inten    --      8.4192                 2.6969                12.2650

                     25                     26                     27
                      A                      A                      A
 Frequencies --    591.3979               633.0135               664.4936
 Red. masses --      3.4287                 2.7137                 4.6415
 Frc consts  --      0.7065                 0.6407                 1.2075
 IR Inten    --      8.7100                15.8390                 5.4183

                     28                     29                     30
                      A                      A                      A
 Frequencies --    671.4184               703.5633               742.0051
 Red. masses --      2.5984                 4.8506                 6.7688
 Frc consts  --      0.6901                 1.4147                 2.1957
 IR Inten    --     26.8003                13.7628                 9.3517

                     31                     32                     33
                      A                      A                      A
 Frequencies --    753.4665               778.0049               806.9207
 Red. masses --      1.9172                 2.8807                 2.1862
 Frc consts  --      0.6413                 1.0273                 0.8387
 IR Inten    --     45.8958                 6.5341                 7.0937

                     34                     35                     36
                      A                      A                      A
 Frequencies --    855.6371               871.5422               893.4520
 Red. masses --      1.8024                 8.4804                 2.1862
 Frc consts  --      0.7775                 3.7953                 1.0282
 IR Inten    --     10.2844                21.5890                 7.4407

                     37                     38                     39
                      A                      A                      A
 Frequencies --    902.1730               968.7847               977.1581
 Red. masses --      1.6331                 1.5529                 1.3551
 Frc consts  --      0.7831                 0.8587                 0.7623
 IR Inten    --      1.3684               115.1853                 2.1272

                     40                     41                     42
                      A                      A                      A
 Frequencies --    991.1828              1004.9540              1036.8297
 Red. masses --      1.7321                 1.3061                 2.1391
 Frc consts  --      1.0026                 0.7772                 1.3549
 IR Inten    --     64.9145                 0.2649                11.4782

                     43                     44                     45
                      A                      A                      A
 Frequencies --   1070.9273              1079.6019              1099.5653
 Red. masses --      4.2757                 3.6322                 2.7418
 Frc consts  --      2.8892                 2.4943                 1.9531
 IR Inten    --      9.1033                 1.7410                 1.6124

                     46                     47                     48
                      A                      A                      A
 Frequencies --   1139.7047              1152.7233              1177.7862
 Red. masses --      2.1963                 2.5028                 1.9145
 Frc consts  --      1.6808                 1.9594                 1.5647
 IR Inten    --     12.4926                53.1111                 9.5217

                     49                     50                     51
                      A                      A                      A
 Frequencies --   1188.4336              1198.5821              1206.8870
 Red. masses --      1.1303                 1.1042                 1.1877
 Frc consts  --      0.9405                 0.9346                 1.0193
 IR Inten    --      1.7745                 0.2885                13.0013

                     52                     53                     54
                      A                      A                      A
 Frequencies --   1287.8629              1300.1674              1315.2674
 Red. masses --      1.5832                 1.2234                 1.5436
 Frc consts  --      1.5472                 1.2185                 1.5733
 IR Inten    --      7.1933                 4.0975                 1.9063

                     55                     56                     57
                      A                      A                      A
 Frequencies --   1338.6920              1350.4722              1352.5804
 Red. masses --      1.1774                 1.4155                 4.1181
 Frc consts  --      1.2432                 1.5210                 4.4389
 IR Inten    --      8.9612                65.5827                 6.2900

                     58                     59                     60
                      A                      A                      A
 Frequencies --   1390.4196              1401.9586              1432.1903
 Red. masses --      9.5340                 1.4284                 1.9483
 Frc consts  --     10.8597                 1.6542                 2.3545
 IR Inten    --    221.5954                 9.7644                80.7457

                     61                     62                     63
                      A                      A                      A
 Frequencies --   1478.3715              1491.4992              1499.0589
 Red. masses --      2.1578                 1.9230                 1.7580
 Frc consts  --      2.7786                 2.5205                 2.3275
 IR Inten    --      3.4779                18.0406                 6.8042

                     64                     65                     66
                      A                      A                      A
 Frequencies --   1501.8718              1506.4332              1510.4093
 Red. masses --      1.2376                 1.1106                 1.1392
 Frc consts  --      1.6448                 1.4850                 1.5312
 IR Inten    --     18.5058                13.3998                 3.6913

                     67                     68                     69
                      A                      A                      A
 Frequencies --   1605.6540              1632.4407              1654.9755
 Red. masses --      6.8517                 6.4867                 7.1046
 Frc consts  --     10.4076                10.1848                11.4650
 IR Inten    --     80.0719                62.7263                70.4199

                     70                     71                     72
                      A                      A                      A
 Frequencies --   1728.0735              1787.5988              3047.8962
 Red. masses --      1.1383                 6.6656                 1.0736
 Frc consts  --      2.0027                12.5496                 5.8760
 IR Inten    --     29.4037               213.5484                12.5561

                     73                     74                     75
                      A                      A                      A
 Frequencies --   3068.0365              3085.2072              3109.5940
 Red. masses --      1.0618                 1.0701                 1.1023
 Frc consts  --      5.8886                 6.0011                 6.2801
 IR Inten    --     22.4131                14.0373                10.8508

                     76                     77                     78
                      A                      A                      A
 Frequencies --   3184.0776              3188.6245              3201.2722
 Red. masses --      1.0953                 1.0858                 1.0873
 Frc consts  --      6.5426                 6.5045                 6.5653
 IR Inten    --      5.3807                 3.6864                 3.8773

                     79                     80                     81
                      A                      A                      A
 Frequencies --   3217.7921              3227.5155              3259.2843
 Red. masses --      1.0925                 1.0947                 1.0922
 Frc consts  --      6.6646                 6.7188                 6.8359
 IR Inten    --     11.2494                 5.7245                 1.2222

                     82                     83                     84
                      A                      A                      A
 Frequencies --   3454.8150              3521.3292              3543.2731
 Red. masses --      1.0464                 1.0760                 1.0984
 Frc consts  --      7.3589                 7.8613                 8.1251
 IR Inten    --      2.9892                 7.1006                 6.0672

 - Thermochemistry -
 -------------------
 Temperature   298.150 Kelvin.  Pressure   1.00000 Atm.
 Atom     1 has atomic number  6 and mass  12.00000

 Molecular mass:   255.06776 amu.
 Principal axes and moments of inertia in atomic units:
                           1         2         3
     Eigenvalues --  3141.376924733.093945877.69696
           X            0.99989   0.00336   0.01470
           Y           -0.00341   0.99999   0.00305
           Z           -0.01469  -0.00310   0.99989
 This molecule is an asymmetric top.
 Rotational symmetry number  1.
 Warning -- assumption of classical behavior for rotation
           may cause significant error
 Rotational temperatures (Kelvin)      0.02757     0.01830     0.01474
 Rotational constants (GHZ):           0.57451     0.38130     0.30705
 Zero-point vibrational energy     619920.3 (Joules/Mol)
                                  148.16452 (Kcal/Mol)
 Warning -- explicit consideration of  25 degrees of freedom as
           vibrations may cause significant error
 Vibrational temperatures:     45.50    50.81    87.45   115.01   150.30
          (Kelvin)            161.95   185.93   214.64   285.30   305.06
                              313.17   351.67   391.81   458.04   501.99
                              534.50   582.29   603.58   642.78   657.40
                              742.74   784.29   812.11   816.37   850.89
                              910.77   956.06   966.02  1012.27  1067.58
                             1084.07  1119.38  1160.98  1231.07  1253.95
                             1285.48  1298.03  1393.87  1405.91  1426.09
                             1445.90  1491.77  1540.83  1553.31  1582.03
                             1639.78  1658.51  1694.57  1709.89  1724.49
                             1736.44  1852.95  1870.65  1892.38  1926.08
                             1943.03  1946.06  2000.50  2017.11  2060.60
                             2127.05  2145.93  2156.81  2160.86  2167.42
                             2173.14  2310.18  2348.72  2381.14  2486.31
                             2571.96  4385.24  4414.22  4438.92  4474.01
                             4581.18  4587.72  4605.92  4629.69  4643.67
                             4689.38  4970.71  5066.41  5097.98

 Zero-point correction=                           0.236115 (Hartree/Particle)
 Thermal correction to Energy=                    0.252367
 Thermal correction to Enthalpy=                  0.253311
 Thermal correction to Gibbs Free Energy=         0.191321
 Sum of electronic and zero-point Energies=          -1176.709372
 Sum of electronic and thermal Energies=             -1176.693121
 Sum of electronic and thermal Enthalpies=           -1176.692177
 Sum of electronic and thermal Free Energies=        -1176.754166

                     E (Thermal)             CV                S
                      KCal/Mol        Cal/Mol-Kelvin    Cal/Mol-Kelvin
 Total                  158.362             60.918            130.468
 Electronic               0.000              0.000              0.000
 Translational            0.889              2.981             42.509
 Rotational               0.889              2.981             32.835
 Vibrational            156.585             54.956             55.124
 Vibration     1          0.594              1.983              5.725
 Vibration     2          0.594              1.982              5.506
 Vibration     3          0.597              1.973              4.432
 Vibration     4          0.600              1.963              3.892
 Vibration     5          0.605              1.946              3.369
 Vibration     6          0.607              1.939              3.224
 Vibration     7          0.612              1.924              2.957
 Vibration     8          0.618              1.904              2.683
 Vibration     9          0.637              1.842              2.149
 Vibration    10          0.643              1.823              2.026
 Vibration    11          0.646              1.814              1.978
 Vibration    12          0.660              1.772              1.770
 Vibration    13          0.675              1.724              1.581
 Vibration    14          0.705              1.638              1.319
 Vibration    15          0.726              1.577              1.171
 Vibration    16          0.743              1.531              1.074
 Vibration    17          0.770              1.460              0.945
 Vibration    18          0.782              1.428              0.894
 Vibration    19          0.806              1.368              0.806
 Vibration    20          0.815              1.346              0.775
 Vibration    21          0.871              1.214              0.619
 Vibration    22          0.900              1.150              0.554
 Vibration    23          0.920              1.108              0.515
 Vibration    24          0.923              1.102              0.509
 Vibration    25          0.949              1.050              0.465

 Optimization completed.
    -- Stationary point found.
 Normal termination of Gaussian 16 at Mon Dec 14 17:43:01 2020.

 ----------------------------------------------------------------------
 # B3LYP/6-311++G(d,p) empiricaldispersion=gd3bj scf=xqc pop=npa geom=c
 heck
 ----------------------------------------------------------------------

 --------------------------------------
 CID_63582704_JID_7305_Energie_neutraal
 --------------------------------------
 Structure from the checkpoint file:  "JID_7305.chk"
 Charge =  0 Multiplicity = 1

 SCF Done:  E(RB3LYP) =  -1177.20355234     A.U. after   18 cycles
 Normal termination of Gaussian 16 at Mon Dec 14 17:49:46 2020.

 ----------------------------------------------------------------------
 # B3LYP/6-311++G(d,p) empiricaldispersion=gd3bj scf=xqc pop=npa geom=c
 heck
 ----------------------------------------------------------------------

 ------------------------------------
 CID_63582704_JID_7305_Energie_kation
 ------------------------------------
 Structure from the checkpoint file:  "JID_7305.chk"
 Charge =  1 Multiplicity = 2

 SCF Done:  E(UB3LYP) =  -1176.89826556     A.U. after   33 cycles
 SCF Done:  E(UB3LYP) =  -1176.89826556     a.u. after    2 cycles
 Normal termination of Gaussian 16 at Mon Dec 14 18:28:14 2020.
 Gaussian 16:  ES64L-G16RevA.03 25-Dec-2016

 ----------------------------------------------------------------------
 # B3LYP/6-311++G(d,p) empiricaldispersion=gd3bj scf=xqc pop=npa geom=c
 heck
 ----------------------------------------------------------------------

 -----------------------------------
 CID_63582704_JID_7305_Energie_anion
 -----------------------------------
 Structure from the checkpoint file:  "JID_7305.chk"
 Charge = -1 Multiplicity = 2

                         Standard orientation:
 ---------------------------------------------------------------------
 Center     Atomic      Atomic             Coordinates (Angstroms)
 Number     Number       Type             X           Y           Z
 ---------------------------------------------------------------------
      1          6           0        3.127315    1.107015    1.258920
      2          6           0        3.314844   -0.265645    1.421799
      3          6           0        2.541196   -1.167428    0.695726
      4          6           0        1.556068   -0.745145   -0.212941
      5          6           0        1.409695    0.649845   -0.374757
      6          6           0        2.177391    1.561086    0.353923
      7          7           0        0.435806    1.239990   -1.290831
      8          8           0       -0.498481    0.548852   -1.688676
      9          8           0        0.584352    2.428611   -1.600018
     10         16           0        0.772624   -2.055650   -1.141616
     11          6           0       -0.998270   -2.130324   -0.616287
     12          6           0       -1.278804   -1.965696    0.881290
     13          6           0       -1.470130   -0.512754    1.330120
     14          6           0       -2.714051    0.092600    0.695670
     15          8           0       -3.691032   -0.578554    0.385312
     16          7           0       -2.748556    1.456965    0.530234
     17          7           0       -1.609364    2.273292    0.613782
     18          1           0        3.713468    1.819308    1.830466
     19          1           0        4.054815   -0.638389    2.123782
     20          1           0        2.681066   -2.234354    0.828145
     21          1           0        2.005770    2.617381    0.195762
     22          1           0       -1.579250   -1.424955   -1.207384
     23          1           0       -1.262673   -3.143070   -0.937779
     24          1           0       -2.207960   -2.503250    1.096880
     25          1           0       -0.482465   -2.435477    1.469016
     26          1           0       -1.624803   -0.489078    2.417775
     27          1           0       -0.601137    0.112371    1.136204
     28          1           0       -3.570527    1.785254    0.029866
     29          1           0       -1.382168    2.650247   -0.305889
     30          1           0       -1.801553    3.050099    1.243007
 ---------------------------------------------------------------------

 SCF Done:  E(UB3LYP) =  -1177.25316959     A.U. after   22 cycles

 The electronic state is 2-A.
 Alpha  occ. eigenvalues --  -88.71073 -18.97841 -18.95229 -18.95119 -14.32775
 Alpha  occ. eigenvalues --  -14.24981 -14.22830 -10.16072 -10.07557 -10.07456
 Alpha  occ. eigenvalues --  -10.06781 -10.05782 -10.05752 -10.05330 -10.05317
 Alpha  occ. eigenvalues --  -10.04531 -10.04402  -7.79642  -5.76062  -5.75670
 Alpha  occ. eigenvalues --   -5.75001  -1.03433  -0.93394  -0.86890  -0.86073
 Alpha  occ. eigenvalues --   -0.74249  -0.69458  -0.68597  -0.65278  -0.64634
 Alpha  occ. eigenvalues --   -0.61027  -0.55926  -0.53314  -0.49616  -0.46922
 Alpha  occ. eigenvalues --   -0.44888  -0.43220  -0.42595  -0.40776  -0.39045
 Alpha  occ. eigenvalues --   -0.37767  -0.35641  -0.35128  -0.34940  -0.34234
 Alpha  occ. eigenvalues --   -0.32235  -0.31597  -0.31007  -0.29750  -0.28966
 Alpha  occ. eigenvalues --   -0.28541  -0.25820  -0.25076  -0.24199  -0.23611
 Alpha  occ. eigenvalues --   -0.23310  -0.21639  -0.19058  -0.17314  -0.15967
 Alpha  occ. eigenvalues --   -0.14962  -0.14468  -0.13919  -0.13466  -0.13367
 Alpha  occ. eigenvalues --   -0.11106  -0.08880   0.01436
 Alpha virt. eigenvalues --    0.07668   0.08377   0.09115   0.09659   0.10216
 Alpha virt. eigenvalues --    0.10591   0.10928   0.12090   0.12510   0.12856
 Alpha virt. eigenvalues --    0.12919   0.13448   0.13632   0.14584   0.15737

  Beta  occ. eigenvalues --  -88.71070 -18.97838 -18.94698 -18.94662 -14.32126
  Beta  occ. eigenvalues --  -14.24980 -14.22821 -10.16071 -10.07482 -10.07256
  Beta  occ. eigenvalues --  -10.06747 -10.05782 -10.05753 -10.05417 -10.05372
  Beta  occ. eigenvalues --  -10.04269 -10.04266  -7.79639  -5.76065  -5.75673
  Beta  occ. eigenvalues --   -5.74984  -1.02349  -0.93388  -0.86878  -0.85139
  Beta  occ. eigenvalues --   -0.73955  -0.69427  -0.68551  -0.64994  -0.64149
  Beta  occ. eigenvalues --   -0.60928  -0.55603  -0.52669  -0.49533  -0.46771
  Beta  occ. eigenvalues --   -0.44729  -0.43010  -0.42476  -0.40624  -0.38609
  Beta  occ. eigenvalues --   -0.37673  -0.35150  -0.34538  -0.34297  -0.32582
  Beta  occ. eigenvalues --   -0.32128  -0.31016  -0.30855  -0.29638  -0.28912
  Beta  occ. eigenvalues --   -0.28432  -0.25699  -0.24355  -0.24109  -0.23551
  Beta  occ. eigenvalues --   -0.23246  -0.21489  -0.18794  -0.17279  -0.15762
  Beta  occ. eigenvalues --   -0.14600  -0.13475  -0.13104  -0.12544  -0.11292
  Beta  occ. eigenvalues --   -0.10552  -0.08490
  Beta virt. eigenvalues --    0.07456   0.08274   0.08496   0.09123   0.09916
  Beta virt. eigenvalues --    0.10231   0.10674   0.10939   0.12118   0.12852
  Beta virt. eigenvalues --    0.12899   0.13259   0.13615   0.14323   0.15288

 Mulliken charges and spin densities:
               1          2
     1  C   -0.388852  -0.040170
     2  C   -0.548429   0.203549
     3  C   -0.627774  -0.060938
     4  C    0.893463   0.166840
     5  C    0.621911  -0.032231
     6  C   -0.301364   0.159487
     7  N   -0.250080   0.216461
     8  O   -0.178037   0.210560
     9  O   -0.159496   0.163099
    10  S   -0.431925  -0.010065
    11  C   -0.465092   0.000330
    12  C   -0.490983  -0.010327
    13  C    0.066148  -0.007466
    14  C   -0.257527   0.026937
    15  O   -0.312898   0.000635
    16  N   -0.264634   0.001575
    17  N   -0.438911  -0.016879
    18  H    0.133114   0.003474
    19  H    0.111862  -0.016064
    20  H    0.158531   0.004586
    21  H    0.200788  -0.008989
    22  H    0.261459  -0.001624
    23  H    0.189738   0.003213
    24  H    0.176858  -0.001174
    25  H    0.167166   0.000378
    26  H    0.164108   0.004189
    27  H    0.234313  -0.003510
    28  H    0.268361   0.003652
    29  H    0.218122   0.025263
    30  H    0.250060   0.015209
 Sum of Mulliken charges =  -1.00000   1.00000

 Dipole moment (field-independent basis, Debye):
    X=             -0.5761    Y=              0.0210    Z=              5.1665  Tot=              5.1986
 Quadrupole moment (field-independent basis, Debye-Ang):
   XX=           -139.7305   YY=           -121.8729   ZZ=           -126.0001
   XY=             -8.8373   XZ=              2.2893   YZ=              7.0134

 Summary of Natural Population Analysis:

                                       Natural Population
                Natural  -----------------------------------------------
    Atom  No    Charge         Core      Valence    Rydberg      Total
 -----------------------------------------------------------------------
      C    1   -0.12234      0.99957     2.11383    0.00894     3.12234
      C    2   -0.05586      0.99957     2.04720    0.00909     3.05586
      C    3   -0.12687      0.99952     2.11660    0.01075     3.12687
      C    4   -0.05767      0.99935     2.04447    0.01384     3.05767
      C    5    0.04656      0.99933     1.93849    0.01562     2.95344
      C    6   -0.06532      0.99952     2.05688    0.00892     3.06532
      N    7    0.30682      0.99970     2.16474    0.02873     3.19318
      O    8   -0.17960      0.99989     3.17044    0.00927     4.17960
      O    9   -0.21580      0.99990     3.20879    0.00710     4.21580
      S   10    0.10649      4.99955     2.87367    0.02030     7.89351
      C   11   -0.23577      0.99957     2.22754    0.00866     3.23577
      C   12   -0.19594      0.99962     2.18860    0.00772     3.19594
      C   13   -0.23867      0.99957     2.23145    0.00765     3.23867
      C   14    0.34989      0.99968     1.62624    0.02419     2.65011
      O   15   -0.33350      0.99988     3.32718    0.00644     4.33350
      N   16   -0.23944      0.99965     2.72495    0.01483     3.73944
      N   17   -0.31716      0.99976     2.80512    0.01228     3.81716
      H   18    0.09304      0.00000     0.40594    0.00102     0.40696
      H   19    0.08901      0.00000     0.40942    0.00157     0.41099
      H   20    0.10050      0.00000     0.39828    0.00122     0.39950
      H   21    0.11403      0.00000     0.38484    0.00113     0.38597
      H   22    0.11553      0.00000     0.38301    0.00146     0.38447
      H   23    0.09555      0.00000     0.40322    0.00123     0.40445
      H   24    0.10316      0.00000     0.39542    0.00142     0.39684
      H   25    0.09898      0.00000     0.39990    0.00112     0.40102
      H   26    0.10454      0.00000     0.39444    0.00102     0.39546
      H   27    0.12733      0.00000     0.37126    0.00141     0.37267
      H   28    0.17790      0.00000     0.31954    0.00256     0.32210
      H   29    0.18894      0.00000     0.30738    0.00368     0.31106
      H   30    0.16568      0.00000     0.33263    0.00170     0.33432
 =======================================================================
   * Total *    0.00000     20.99364    45.77149    0.23487    67.00000

 Normal termination of Gaussian 16 at Mon Dec 14 18:39:15 2020.
