 Gaussian 16, Revision A.03,

 -----------------------------------------------------------
 # opt freq B3LYP/6-31G(d) empiricaldispersion=gd3bj scf=xqc
 -----------------------------------------------------------

 ------------------------------
 CID_129877019_JID_331_neutraal
 ------------------------------
 Symbolic Z-matrix:
 Charge =  0 Multiplicity = 1

 SCF Done:  E(RB3LYP) =  -530.511798486     A.U. after   15 cycles
 SCF Done:  E(RB3LYP) =  -530.520115005     A.U. after   13 cycles
 SCF Done:  E(RB3LYP) =  -530.521152490     A.U. after   12 cycles
 SCF Done:  E(RB3LYP) =  -530.521460041     A.U. after   12 cycles
 SCF Done:  E(RB3LYP) =  -530.521572711     A.U. after   11 cycles
 SCF Done:  E(RB3LYP) =  -530.521646403     A.U. after   11 cycles
 SCF Done:  E(RB3LYP) =  -530.521691404     A.U. after   11 cycles
 SCF Done:  E(RB3LYP) =  -530.521705112     A.U. after   10 cycles
 SCF Done:  E(RB3LYP) =  -530.521708196     A.U. after    9 cycles
 SCF Done:  E(RB3LYP) =  -530.521708663     A.U. after    8 cycles
 Optimization completed.
    -- Stationary point found.
 Normal termination of Gaussian 16 at Tue Dec  8 10:22:10 2020.

 --------------------------------------------------------------------
 #N Geom=AllCheck Guess=TCheck SCRF=Check GenChk RB3LYP/6-31G(d) Freq
 --------------------------------------------------------------------

 Structure from the checkpoint file:  "JID_331.chk"
 ------------------------------
 CID_129877019_JID_331_neutraal
 ------------------------------
 Charge =  0 Multiplicity = 1

 SCF Done:  E(RB3LYP) =  -530.521708663     A.U. after    1 cycles

  Exact polarizability:  90.824   4.917  77.018   2.905  -2.933  48.508
 Approx polarizability: 119.339  16.392 121.653   6.244  -4.706  72.805

                      1                      2                      3
                      A                      A                      A
 Frequencies --     50.3047                76.0542               112.6869
 Red. masses --      4.1185                 3.7711                 2.4010
 Frc consts  --      0.0061                 0.0129                 0.0180
 IR Inten    --      1.0499                 0.2782                 1.5324

                      4                      5                      6
                      A                      A                      A
 Frequencies --    155.2837               209.7928               255.5882
 Red. masses --      7.5825                 1.8654                 2.1048
 Frc consts  --      0.1077                 0.0484                 0.0810
 IR Inten    --      4.2311                 1.9546                 3.1444

                      7                      8                      9
                      A                      A                      A
 Frequencies --    271.0001               355.5469               407.3664
 Red. masses --      2.3323                 6.8339                 5.3606
 Frc consts  --      0.1009                 0.5090                 0.5241
 IR Inten    --     12.3561                15.0709                 2.8156

                     10                     11                     12
                      A                      A                      A
 Frequencies --    482.8629               544.5109               579.7044
 Red. masses --      3.5732                 1.5696                 4.3172
 Frc consts  --      0.4909                 0.2742                 0.8548
 IR Inten    --     10.4567                27.1020                 6.8908

                     13                     14                     15
                      A                      A                      A
 Frequencies --    603.7625               625.5964               682.6062
 Red. masses --      1.8401                 4.5876                 6.8478
 Frc consts  --      0.3952                 1.0579                 1.8799
 IR Inten    --     94.0041                18.7060                14.9134

                     16                     17                     18
                      A                      A                      A
 Frequencies --    760.6382               791.7189               829.6880
 Red. masses --      9.0696                 2.3782                 1.4596
 Frc consts  --      3.0917                 0.8783                 0.5920
 IR Inten    --     19.3107                31.6844                11.3130

                     19                     20                     21
                      A                      A                      A
 Frequencies --    884.9548               905.6357              1025.0590
 Red. masses --      3.7657                 2.4292                 2.0606
 Frc consts  --      1.7376                 1.1739                 1.2757
 IR Inten    --     17.3798                 3.4763                 9.0613

                     22                     23                     24
                      A                      A                      A
 Frequencies --   1052.5488              1105.3080              1124.9295
 Red. masses --      3.0159                 3.8254                 2.1815
 Frc consts  --      1.9685                 2.7535                 1.6265
 IR Inten    --     25.9779               107.6901                89.5389

                     25                     26                     27
                      A                      A                      A
 Frequencies --   1181.9351              1199.4908              1204.8259
 Red. masses --      1.7954                 2.4084                 1.6035
 Frc consts  --      1.4778                 2.0416                 1.3714
 IR Inten    --      9.8730                14.8503                12.8439

                     28                     29                     30
                      A                      A                      A
 Frequencies --   1228.8078              1325.0092              1332.3911
 Red. masses --      3.3569                 1.5211                 1.8012
 Frc consts  --      2.9864                 1.5734                 1.8840
 IR Inten    --      8.7289                43.6195                76.8161

                     31                     32                     33
                      A                      A                      A
 Frequencies --   1356.2485              1393.3301              1404.7825
 Red. masses --      2.0172                 2.8274                 1.2495
 Frc consts  --      2.1861                 3.2341                 1.4528
 IR Inten    --     66.3659                97.6243                10.0929

                     34                     35                     36
                      A                      A                      A
 Frequencies --   1437.2334              1513.6328              1515.0160
 Red. masses --      1.3043                 1.0753                 1.0595
 Frc consts  --      1.5874                 1.4515                 1.4327
 IR Inten    --     21.6165                16.1099                 2.4158

                     37                     38                     39
                      A                      A                      A
 Frequencies --   1523.2782              1538.0402              1861.8089
 Red. masses --      1.0748                 1.0637                 9.9629
 Frc consts  --      1.4694                 1.4825                20.3473
 IR Inten    --      0.8318                 3.2911               777.8780

                     40                     41                     42
                      A                      A                      A
 Frequencies --   1897.1891              3057.6521              3063.7190
 Red. masses --     12.8025                 1.0352                 1.0637
 Frc consts  --     27.1498                 5.7024                 5.8827
 IR Inten    --    105.7655                12.2620                12.0133

                     43                     44                     45
                      A                      A                      A
 Frequencies --   3077.8115              3120.4404              3126.7044
 Red. masses --      1.0600                 1.1050                 1.1013
 Frc consts  --      5.9161                 6.3392                 6.3436
 IR Inten    --     23.4968                 0.5463                 9.5232

                     46                     47                     48
                      A                      A                      A
 Frequencies --   3128.0649              3143.3439              3636.2397
 Red. masses --      1.1012                 1.1067                 1.0797
 Frc consts  --      6.3485                 6.4426                 8.4114
 IR Inten    --     28.5709                41.3246                73.5613

 - Thermochemistry -
 -------------------
 Temperature   298.150 Kelvin.  Pressure   1.00000 Atm.
 Atom     1 has atomic number  6 and mass  12.00000

 Molecular mass:   144.05349 amu.
 Principal axes and moments of inertia in atomic units:
                           1         2         3
     Eigenvalues --   749.842461933.407812481.82881
           X            0.99938  -0.03311  -0.01171
           Y            0.03316   0.99944   0.00430
           Z            0.01156  -0.00468   0.99992
 This molecule is an asymmetric top.
 Rotational symmetry number  1.
 Warning -- assumption of classical behavior for rotation
           may cause significant error
 Rotational temperatures (Kelvin)      0.11551     0.04480     0.03490
 Rotational constants (GHZ):           2.40683     0.93345     0.72718
 Zero-point vibrational energy     371800.2 (Joules/Mol)
                                   88.86239 (Kcal/Mol)
 Warning -- explicit consideration of  13 degrees of freedom as
           vibrations may cause significant error
 Vibrational temperatures:     72.38   109.43   162.13   223.42   301.85
          (Kelvin)            367.73   389.91   511.55   586.11   694.73
                              783.43   834.07   868.68   900.09   982.12
                             1094.39  1139.11  1193.74  1273.25  1303.01
                             1474.83  1514.38  1590.29  1618.52  1700.54
                             1725.80  1733.48  1767.98  1906.39  1917.01
                             1951.34  2004.69  2021.17  2067.86  2177.78
                             2179.77  2191.66  2212.90  2678.73  2729.63
                             4399.28  4408.01  4428.28  4489.62  4498.63
                             4500.59  4522.57  5231.74

 Zero-point correction=                           0.141611 (Hartree/Particle)
 Thermal correction to Energy=                    0.151168
 Thermal correction to Enthalpy=                  0.152112
 Thermal correction to Gibbs Free Energy=         0.106044
 Sum of electronic and zero-point Energies=           -530.380097
 Sum of electronic and thermal Energies=              -530.370541
 Sum of electronic and thermal Enthalpies=            -530.369597
 Sum of electronic and thermal Free Energies=         -530.415664

                     E (Thermal)             CV                S
                      KCal/Mol        Cal/Mol-Kelvin    Cal/Mol-Kelvin
 Total                   94.859             34.474             96.958
 Electronic               0.000              0.000              0.000
 Translational            0.889              2.981             40.806
 Rotational               0.889              2.981             29.666
 Vibrational             93.082             28.513             26.486
 Vibration     1          0.595              1.977              4.805
 Vibration     2          0.599              1.965              3.990
 Vibration     3          0.607              1.939              3.222
 Vibration     4          0.620              1.897              2.606
 Vibration     5          0.642              1.826              2.045
 Vibration     6          0.666              1.753              1.692
 Vibration     7          0.675              1.727              1.590
 Vibration     8          0.731              1.564              1.142
 Vibration     9          0.772              1.454              0.936
 Vibration    10          0.839              1.288              0.702
 Vibration    11          0.900              1.152              0.556
 Vibration    12          0.936              1.075              0.486
 Vibration    13          0.962              1.024              0.443

                           ! Non-Optimized Parameters !
 Normal termination of Gaussian 16 at Tue Dec  8 10:25:05 2020.

 ----------------------------------------------------------------------
 # B3LYP/6-311++G(d,p) empiricaldispersion=gd3bj scf=xqc pop=npa geom=c
 heck
 ----------------------------------------------------------------------

 --------------------------------------
 CID_129877019_JID_331_Energie_neutraal
 --------------------------------------
 Structure from the checkpoint file:  "JID_331.chk"
 Charge =  0 Multiplicity = 1

 SCF Done:  E(RB3LYP) =  -530.684067048     A.U. after   14 cycles
 Normal termination of Gaussian 16 at Tue Dec  8 10:26:03 2020.

 ----------------------------------------------------------------------
 # B3LYP/6-311++G(d,p) empiricaldispersion=gd3bj scf=xqc pop=npa geom=c
 heck
 ----------------------------------------------------------------------

 ------------------------------------
 CID_129877019_JID_331_Energie_kation
 ------------------------------------
 Structure from the checkpoint file:  "JID_331.chk"
 Charge =  1 Multiplicity = 2

 SCF Done:  E(UB3LYP) =  -530.331408961     A.U. after   24 cycles
 Normal termination of Gaussian 16 at Tue Dec  8 10:28:49 2020.
 Gaussian 16:  ES64L-G16RevA.03 25-Dec-2016

 ----------------------------------------------------------------------
 # B3LYP/6-311++G(d,p) empiricaldispersion=gd3bj scf=xqc pop=npa geom=c
 heck
 ----------------------------------------------------------------------

 -----------------------------------
 CID_129877019_JID_331_Energie_anion
 -----------------------------------
 Structure from the checkpoint file:  "JID_331.chk"
 Charge = -1 Multiplicity = 2

                         Standard orientation:
 ---------------------------------------------------------------------
 Center     Atomic      Atomic             Coordinates (Angstroms)
 Number     Number       Type             X           Y           Z
 ---------------------------------------------------------------------
      1          6           0        2.861813   -1.133219   -0.668187
      2          6           0        2.572736    0.149600    0.093223
      3          8           0        1.372207    0.067042    0.887604
      4          7           0        0.247458   -0.032312    0.055868
      5          6           0       -0.647864   -1.138964    0.369484
      6          6           0       -2.019710   -0.591339   -0.032980
      7          8           0       -3.062337   -1.196552   -0.126386
      8          7           0       -1.811568    0.757327   -0.265812
      9          6           0       -0.475374    1.159002   -0.096775
     10          8           0       -0.044252    2.286386   -0.125292
     11          1           0        2.943670   -1.982690    0.018091
     12          1           0        3.804453   -1.041159   -1.219130
     13          1           0        2.066845   -1.340549   -1.391617
     14          1           0        3.343874    0.356473    0.841185
     15          1           0        2.495419    1.014097   -0.574036
     16          1           0       -0.405224   -2.047172   -0.188458
     17          1           0       -0.633681   -1.363471    1.443603
     18          1           0       -2.541126    1.403880   -0.536019
 ---------------------------------------------------------------------

 SCF Done:  E(UB3LYP) =  -530.671551642     A.U. after   33 cycles
 SCF Done:  E(UB3LYP) =  -530.671551642     a.u. after    1 cycles

 The electronic state is 2-A.
 Alpha  occ. eigenvalues --  -19.06365 -19.00553 -18.99928 -14.28326 -14.26029
 Alpha  occ. eigenvalues --  -10.20055 -10.18485 -10.11722 -10.11369 -10.05364
 Alpha  occ. eigenvalues --   -1.00585  -0.95876  -0.94391  -0.86443  -0.76899
 Alpha  occ. eigenvalues --   -0.65124  -0.62281  -0.55085  -0.52162  -0.48803
 Alpha  occ. eigenvalues --   -0.42689  -0.41413  -0.39925  -0.36110  -0.35447
 Alpha  occ. eigenvalues --   -0.35197  -0.32735  -0.32556  -0.31667  -0.29658
 Alpha  occ. eigenvalues --   -0.28302  -0.27120  -0.24591  -0.20631  -0.19277
 Alpha  occ. eigenvalues --   -0.18105  -0.16808  -0.15144   0.04877
 Alpha virt. eigenvalues --    0.07109   0.07770   0.08690   0.09300   0.10600
 Alpha virt. eigenvalues --    0.10967   0.12436   0.12899   0.13229   0.14550
 Alpha virt. eigenvalues --    0.15116   0.15807   0.16168   0.17141   0.17999

  Beta  occ. eigenvalues --  -19.06353 -19.00458 -18.99846 -14.28337 -14.26034
  Beta  occ. eigenvalues --  -10.19957 -10.18362 -10.11692 -10.11348 -10.05309
  Beta  occ. eigenvalues --   -1.00532  -0.95722  -0.94239  -0.86357  -0.76877
  Beta  occ. eigenvalues --   -0.65049  -0.62123  -0.54988  -0.52001  -0.48696
  Beta  occ. eigenvalues --   -0.42596  -0.41251  -0.39863  -0.35962  -0.35289
  Beta  occ. eigenvalues --   -0.35066  -0.32628  -0.32447  -0.31416  -0.29408
  Beta  occ. eigenvalues --   -0.28146  -0.26962  -0.24527  -0.20571  -0.19026
  Beta  occ. eigenvalues --   -0.18006  -0.16727  -0.15089
  Beta virt. eigenvalues --    0.07588   0.08407   0.08787   0.09478   0.10142
  Beta virt. eigenvalues --    0.11144   0.11799   0.12791   0.13357   0.13465
  Beta virt. eigenvalues --    0.14592   0.15335   0.16093   0.16211   0.17170

 Mulliken charges and spin densities:
               1          2
     1  C    1.150294  -1.623459
     2  C   -0.087796  -0.071050
     3  O    0.044898   0.007341
     4  N   -0.367231   0.111160
     5  C    1.224590  -1.493452
     6  C   -0.022533   0.206118
     7  O   -0.383526   0.045775
     8  N   -0.262777  -0.026706
     9  C    0.330828   0.017327
    10  O   -0.376839   0.018854
    11  H   -0.290067   0.447773
    12  H   -0.662463   0.796453
    13  H   -0.341634   0.502813
    14  H   -0.280457   0.434573
    15  H    0.146726   0.020338
    16  H    0.023418   0.175469
    17  H   -0.639555   0.868613
    18  H   -0.205878   0.562059
 Sum of Mulliken charges =  -1.00000   1.00000

 Dipole moment (field-independent basis, Debye):
    X=             -2.3964    Y=              1.8285    Z=             -0.1789  Tot=              3.0197
 Quadrupole moment (field-independent basis, Debye-Ang):
   XX=           -119.7187   YY=            -94.3943   ZZ=            -84.9703
   XY=              4.0760   XZ=              3.4654   YZ=              1.5870

 Summary of Natural Population Analysis:

                                       Natural Population
                Natural  -----------------------------------------------
    Atom  No    Charge         Core      Valence    Rydberg      Total
 -----------------------------------------------------------------------
      C    1   -0.30353      0.99967     2.29863    0.00523     3.30353
      C    2   -0.00760      0.99959     1.99477    0.01324     3.00760
      O    3   -0.21139      0.99990     3.20025    0.01125     4.21139
      N    4   -0.12093      0.99962     2.60601    0.01531     3.62093
      C    5   -0.12759      0.99959     2.11846    0.00955     3.12759
      C    6    0.36165      0.99970     1.61677    0.02188     2.63835
      O    7   -0.29393      0.99987     3.28762    0.00644     4.29393
      N    8   -0.33368      0.99965     2.82542    0.00860     3.83368
      C    9    0.41997      0.99968     1.55706    0.02328     2.58003
      O   10   -0.30013      0.99987     3.29406    0.00621     4.30013
      H   11    0.10127      0.00000     0.39648    0.00225     0.39873
      H   12    0.10442      0.00000     0.39299    0.00260     0.39558
      H   13    0.10204      0.00000     0.39614    0.00182     0.39796
      H   14    0.08996      0.00000     0.40855    0.00150     0.41004
      H   15    0.08822      0.00000     0.41037    0.00141     0.41178
      H   16    0.10871      0.00000     0.38964    0.00166     0.39129
      H   17    0.11552      0.00000     0.37951    0.00497     0.38448
      H   18    0.20704      0.00000     0.28813    0.00482     0.29296
 =======================================================================
   * Total *    0.00000      9.99713    27.86085    0.14202    38.00000

 Normal termination of Gaussian 16 at Tue Dec  8 10:33:07 2020.
