 Gaussian 16, Revision A.03,

 -----------------------------------------------------------
 # opt freq B3LYP/6-31G(d) empiricaldispersion=gd3bj scf=xqc
 -----------------------------------------------------------

 -------------------------------
 CID_87575614_JID_10090_neutraal
 -------------------------------
 Symbolic Z-matrix:
 Charge =  0 Multiplicity = 1

 SCF Done:  E(RB3LYP) =  -1150.38157786     A.U. after   15 cycles
 SCF Done:  E(RB3LYP) =  -1150.38452995     A.U. after   13 cycles
 SCF Done:  E(RB3LYP) =  -1150.38602149     A.U. after   15 cycles
 SCF Done:  E(RB3LYP) =  -1150.38644222     A.U. after   14 cycles
 SCF Done:  E(RB3LYP) =  -1150.38675268     A.U. after   11 cycles
 SCF Done:  E(RB3LYP) =  -1150.38680308     A.U. after   11 cycles
 SCF Done:  E(RB3LYP) =  -1150.38683118     A.U. after   11 cycles
 SCF Done:  E(RB3LYP) =  -1150.38685231     A.U. after   11 cycles
 SCF Done:  E(RB3LYP) =  -1150.38686335     A.U. after   11 cycles
 SCF Done:  E(RB3LYP) =  -1150.38687063     A.U. after   11 cycles
 SCF Done:  E(RB3LYP) =  -1150.38687121     A.U. after    9 cycles
 SCF Done:  E(RB3LYP) =  -1150.38687124     A.U. after    7 cycles
 Optimization completed.
    -- Stationary point found.
 Normal termination of Gaussian 16 at Sun Dec 13 20:42:35 2020.

 --------------------------------------------------------------------
 #N Geom=AllCheck Guess=TCheck SCRF=Check GenChk RB3LYP/6-31G(d) Freq
 --------------------------------------------------------------------

 Structure from the checkpoint file:  "JID_10090.chk"
 -------------------------------
 CID_87575614_JID_10090_neutraal
 -------------------------------
 Charge =  0 Multiplicity = 1

 SCF Done:  E(RB3LYP) =  -1150.38687124     A.U. after    1 cycles

  Exact polarizability: 358.452 -27.627 177.190 -16.467 -19.935 126.040
 Approx polarizability: 468.635 -44.686 302.826 -31.376 -48.087 211.043

                      1                      2                      3
                      A                      A                      A
 Frequencies --     15.7839                23.7066                32.2037
 Red. masses --      4.7535                 4.7750                 5.0910
 Frc consts  --      0.0007                 0.0016                 0.0031
 IR Inten    --      0.3273                 0.7024                 0.8878

                      4                      5                      6
                      A                      A                      A
 Frequencies --     47.8115                62.4679                74.2878
 Red. masses --      5.9843                 5.9578                 4.7476
 Frc consts  --      0.0081                 0.0137                 0.0154
 IR Inten    --      0.6438                 0.3786                 0.6869

                      7                      8                      9
                      A                      A                      A
 Frequencies --     81.9997               112.8927               141.4812
 Red. masses --      4.5788                 3.9633                 5.0270
 Frc consts  --      0.0181                 0.0298                 0.0593
 IR Inten    --      0.5688                 4.1048                 3.5384

                     10                     11                     12
                      A                      A                      A
 Frequencies --    168.1654               188.5425               213.1750
 Red. masses --      4.1308                 4.4591                 1.4687
 Frc consts  --      0.0688                 0.0934                 0.0393
 IR Inten    --      2.3750                 2.1217                14.4086

                     13                     14                     15
                      A                      A                      A
 Frequencies --    242.1967               268.0265               285.0778
 Red. masses --      4.6545                 2.6147                 2.6463
 Frc consts  --      0.1609                 0.1107                 0.1267
 IR Inten    --      0.9165                 2.9052                 2.1367

                     16                     17                     18
                      A                      A                      A
 Frequencies --    313.8237               344.8771               378.0372
 Red. masses --      3.4484                 2.4004                 2.3589
 Frc consts  --      0.2001                 0.1682                 0.1986
 IR Inten    --      1.0595                 0.4857                 0.3735

                     19                     20                     21
                      A                      A                      A
 Frequencies --    409.7719               413.8528               422.2829
 Red. masses --      2.7906                 3.0385                 3.0858
 Frc consts  --      0.2761                 0.3066                 0.3242
 IR Inten    --      0.5166                 0.2390                 0.7595

                     22                     23                     24
                      A                      A                      A
 Frequencies --    442.1009               486.9542               497.6901
 Red. masses --      3.0001                 5.4026                 3.3875
 Frc consts  --      0.3455                 0.7548                 0.4944
 IR Inten    --      0.8457                 0.7064                 2.3242

                     25                     26                     27
                      A                      A                      A
 Frequencies --    525.6658               561.1904               572.9330
 Red. masses --      3.6258                 5.7006                 3.6998
 Frc consts  --      0.5903                 1.0578                 0.7155
 IR Inten    --      2.3905                 3.1372                13.6289

                     28                     29                     30
                      A                      A                      A
 Frequencies --    588.1250               641.9082               653.8300
 Red. masses --      2.6429                 3.3820                 5.5341
 Frc consts  --      0.5386                 0.8210                 1.3939
 IR Inten    --      4.3479                 0.9215                 1.1068

                     31                     32                     33
                      A                      A                      A
 Frequencies --    656.3158               666.2476               713.3463
 Red. masses --      4.9371                 6.9012                 1.2666
 Frc consts  --      1.2530                 1.8049                 0.3798
 IR Inten    --      3.2175                 0.6172                17.3965

                     34                     35                     36
                      A                      A                      A
 Frequencies --    733.6691               752.6015               767.0832
 Red. masses --      3.5381                 2.7677                 2.6112
 Frc consts  --      1.1221                 0.9236                 0.9053
 IR Inten    --      1.5182                 1.3314                 1.5963

                     37                     38                     39
                      A                      A                      A
 Frequencies --    794.5031               818.7505               839.7070
 Red. masses --      3.0181                 2.8168                 2.1939
 Frc consts  --      1.1225                 1.1125                 0.9114
 IR Inten    --      8.2388                 7.6295                 3.4298

                     40                     41                     42
                      A                      A                      A
 Frequencies --    843.8611               855.5951               857.7086
 Red. masses --      1.6712                 1.2542                 1.2545
 Frc consts  --      0.7012                 0.5410                 0.5438
 IR Inten    --     56.6386                 0.3886                 0.0663

                     43                     44                     45
                      A                      A                      A
 Frequencies --    870.9750               907.7587               935.3208
 Red. masses --      1.7435                 2.0103                 1.7037
 Frc consts  --      0.7793                 0.9760                 0.8782
 IR Inten    --      8.8950                 3.5447                 3.6789

                     46                     47                     48
                      A                      A                      A
 Frequencies --    968.0393               971.2345               974.6525
 Red. masses --      1.3391                 1.2911                 1.3354
 Frc consts  --      0.7394                 0.7176                 0.7474
 IR Inten    --      1.8663                 0.2327                 0.0747

                     49                     50                     51
                      A                      A                      A
 Frequencies --    980.5854               993.9355              1012.6714
 Red. masses --      1.3077                 1.7184                 1.6276
 Frc consts  --      0.7409                 1.0002                 0.9834
 IR Inten    --      0.0209                 1.1952                 2.9642

                     52                     53                     54
                      A                      A                      A
 Frequencies --   1026.7772              1042.4393              1047.9037
 Red. masses --      5.9614                 2.5532                 1.9344
 Frc consts  --      3.7030                 1.6347                 1.2515
 IR Inten    --     11.5789                 0.2380                 0.2410

                     55                     56                     57
                      A                      A                      A
 Frequencies --   1062.2179              1092.6528              1125.1245
 Red. masses --      2.3163                 2.0276                 2.6328
 Frc consts  --      1.5398                 1.4262                 1.9636
 IR Inten    --      0.1062                 8.8096                 1.0997

                     58                     59                     60
                      A                      A                      A
 Frequencies --   1147.0734              1150.5706              1174.4487
 Red. masses --      1.3430                 1.3812                 1.1278
 Frc consts  --      1.0411                 1.0773                 0.9165
 IR Inten    --      2.7927                 3.0224                 3.9452

                     61                     62                     63
                      A                      A                      A
 Frequencies --   1192.5205              1215.1301              1223.8360
 Red. masses --      1.1827                 1.3363                 1.1985
 Frc consts  --      0.9909                 1.1625                 1.0576
 IR Inten    --      1.6551                 3.2083                 7.1330

                     64                     65                     66
                      A                      A                      A
 Frequencies --   1237.2759              1239.9561              1247.1218
 Red. masses --      1.5307                 1.9108                 2.1772
 Frc consts  --      1.3806                 1.7309                 1.9951
 IR Inten    --      4.9136                 0.8126                 0.9038

                     67                     68                     69
                      A                      A                      A
 Frequencies --   1287.5515              1318.8842              1324.5361
 Red. masses --      1.2378                 2.9309                 3.4513
 Frc consts  --      1.2090                 3.0038                 3.5675
 IR Inten    --      0.8752                 0.9957                 4.1603

                     70                     71                     72
                      A                      A                      A
 Frequencies --   1332.2478              1341.9753              1347.9793
 Red. masses --      1.2636                 2.0615                 1.1860
 Frc consts  --      1.3214                 2.1874                 1.2697
 IR Inten    --     22.9561                 1.3406                 8.2225

                     73                     74                     75
                      A                      A                      A
 Frequencies --   1355.4140              1357.3049              1386.9528
 Red. masses --      1.9570                 1.7778                 1.5202
 Frc consts  --      2.1183                 1.9297                 1.7230
 IR Inten    --      0.6106                 1.8860                 0.7103

                     76                     77                     78
                      A                      A                      A
 Frequencies --   1389.2541              1415.8780              1420.9767
 Red. masses --      1.4069                 1.4440                 1.4266
 Frc consts  --      1.5998                 1.7055                 1.6971
 IR Inten    --     17.8917                 1.5525                 4.1666

                     79                     80                     81
                      A                      A                      A
 Frequencies --   1448.5534              1470.5374              1498.2931
 Red. masses --      2.7438                 2.8229                 1.0836
 Frc consts  --      3.3921                 3.5966                 1.4332
 IR Inten    --     11.8078                 1.3478                 4.6842

                     82                     83                     84
                      A                      A                      A
 Frequencies --   1508.7912              1522.5339              1525.2442
 Red. masses --      1.0945                 1.0773                 1.0902
 Frc consts  --      1.4680                 1.4714                 1.4943
 IR Inten    --      8.4008                 5.9062                12.1185

                     85                     86                     87
                      A                      A                      A
 Frequencies --   1531.1488              1548.9994              1574.1460
 Red. masses --      1.1042                 2.2705                 2.7047
 Frc consts  --      1.5252                 3.2098                 3.9488
 IR Inten    --      0.6723                42.6460                 0.1318

                     88                     89                     90
                      A                      A                      A
 Frequencies --   1600.5218              1628.9614              1666.8750
 Red. masses --      5.8884                 6.5825                 5.6061
 Frc consts  --      8.8873                10.2911                 9.1773
 IR Inten    --      0.7906                 0.1665                63.9788

                     91                     92                     93
                      A                      A                      A
 Frequencies --   1676.1609              2348.8648              2681.5246
 Red. masses --      5.8313                12.6792                 1.0385
 Frc consts  --      9.6527                41.2152                 4.3996
 IR Inten    --      0.8670                62.8381                21.2842

                     94                     95                     96
                      A                      A                      A
 Frequencies --   3035.8122              3039.6009              3047.5357
 Red. masses --      1.0624                 1.0644                 1.0619
 Frc consts  --      5.7688                 5.7942                 5.8106
 IR Inten    --     27.1107                31.5713                32.9242

                     97                     98                     99
                      A                      A                      A
 Frequencies --   3053.2851              3070.0093              3078.9341
 Red. masses --      1.0652                 1.0989                 1.0675
 Frc consts  --      5.8509                 6.1023                 5.9624
 IR Inten    --     11.4085                22.4775                 6.6402

                    100                    101                    102
                      A                      A                      A
 Frequencies --   3086.6468              3091.8710              3093.3777
 Red. masses --      1.0929                 1.1006                 1.0981
 Frc consts  --      6.1350                 6.1993                 6.1908
 IR Inten    --     27.6246                81.8718                50.9343

                    103                    104                    105
                      A                      A                      A
 Frequencies --   3127.3205              3179.8510              3182.7067
 Red. masses --      1.1062                 1.0877                 1.0874
 Frc consts  --      6.3743                 6.4797                 6.4898
 IR Inten    --     20.3568                18.0187                23.9683

                    106                    107                    108
                      A                      A                      A
 Frequencies --   3200.8731              3202.6593              3207.5106
 Red. masses --      1.0923                 1.0918                 1.0885
 Frc consts  --      6.5936                 6.5979                 6.5977
 IR Inten    --     14.7615                 3.9035                 7.9782

                    109                    110                    111
                      A                      A                      A
 Frequencies --   3207.5627              3222.5563              3224.1371
 Red. masses --      1.0899                 1.0944                 1.0955
 Frc consts  --      6.6067                 6.6961                 6.7092
 IR Inten    --      4.8940                12.0684                 0.4255

 - Thermochemistry -
 -------------------
 Temperature   298.150 Kelvin.  Pressure   1.00000 Atm.
 Atom     1 has atomic number  6 and mass  12.00000

 Molecular mass:   281.12382 amu.
 Principal axes and moments of inertia in atomic units:
                           1         2         3
     Eigenvalues --  1724.45036********************
           X            1.00000   0.00032  -0.00050
           Y           -0.00034   0.99921  -0.03981
           Z            0.00049   0.03981   0.99921
 This molecule is an asymmetric top.
 Rotational symmetry number  1.
 Warning -- assumption of classical behavior for rotation
           may cause significant error
 Rotational temperatures (Kelvin)      0.05023     0.00422     0.00404
 Rotational constants (GHZ):           1.04656     0.08789     0.08425
 Zero-point vibrational energy     850621.6 (Joules/Mol)
                                  203.30345 (Kcal/Mol)
 Warning -- explicit consideration of  28 degrees of freedom as
           vibrations may cause significant error
 Vibrational temperatures:     22.71    34.11    46.33    68.79    89.88
          (Kelvin)            106.88   117.98   162.43   203.56   241.95
                              271.27   306.71   348.47   385.63   410.16
                              451.52   496.20   543.91   589.57   595.44
                              607.57   636.08   700.62   716.07   756.32
                              807.43   824.32   846.18   923.56   940.72
                              944.29   958.58  1026.35  1055.59  1082.83
                             1103.66  1143.11  1178.00  1208.15  1214.13
                             1231.01  1234.05  1253.14  1306.06  1345.72
                             1392.79  1397.39  1402.31  1410.84  1430.05
                             1457.01  1477.30  1499.84  1507.70  1528.29
                             1572.08  1618.80  1650.38  1655.41  1689.77
                             1715.77  1748.30  1760.83  1780.16  1784.02
                             1794.33  1852.50  1897.58  1905.71  1916.81
                             1930.80  1939.44  1950.14  1952.86  1995.52
                             1998.83  2037.13  2044.47  2084.15  2115.78
                             2155.71  2170.81  2190.59  2194.49  2202.98
                             2228.66  2264.84  2302.79  2343.71  2398.26
                             2411.62  3379.49  3858.12  4367.86  4373.31
                             4384.72  4393.00  4417.06  4429.90  4441.00
                             4448.51  4450.68  4499.52  4575.10  4579.21
                             4605.34  4607.91  4614.89  4614.97  4636.54
                             4638.81

 Zero-point correction=                           0.323985 (Hartree/Particle)
 Thermal correction to Energy=                    0.342851
 Thermal correction to Enthalpy=                  0.343795
 Thermal correction to Gibbs Free Energy=         0.273468
 Sum of electronic and zero-point Energies=          -1150.062887
 Sum of electronic and thermal Energies=             -1150.044020
 Sum of electronic and thermal Enthalpies=           -1150.043076
 Sum of electronic and thermal Free Energies=        -1150.113403

                     E (Thermal)             CV                S
                      KCal/Mol        Cal/Mol-Kelvin    Cal/Mol-Kelvin
 Total                  215.142             71.977            148.016
 Electronic               0.000              0.000              0.000
 Translational            0.889              2.981             42.799
 Rotational               0.889              2.981             34.983
 Vibrational            213.365             66.015             70.234
 Vibration     1          0.593              1.986              7.104
 Vibration     2          0.593              1.985              6.297
 Vibration     3          0.594              1.983              5.689
 Vibration     4          0.595              1.978              4.906
 Vibration     5          0.597              1.972              4.378
 Vibration     6          0.599              1.966              4.036
 Vibration     7          0.600              1.961              3.842
 Vibration     8          0.607              1.939              3.219
 Vibration     9          0.615              1.912              2.784
 Vibration    10          0.625              1.882              2.456
 Vibration    11          0.633              1.856              2.242
 Vibration    12          0.644              1.821              2.016
 Vibration    13          0.658              1.776              1.787
 Vibration    14          0.673              1.732              1.609
 Vibration    15          0.683              1.701              1.503
 Vibration    16          0.702              1.647              1.342
 Vibration    17          0.723              1.586              1.189
 Vibration    18          0.748              1.517              1.047
 Vibration    19          0.774              1.449              0.927
 Vibration    20          0.777              1.440              0.913
 Vibration    21          0.785              1.422              0.884
 Vibration    22          0.802              1.378              0.820
 Vibration    23          0.843              1.279              0.692
 Vibration    24          0.853              1.255              0.664
 Vibration    25          0.881              1.193              0.597
 Vibration    26          0.917              1.115              0.521
 Vibration    27          0.929              1.090              0.499
 Vibration    28          0.945              1.057              0.471

 Optimization completed.
    -- Stationary point found.
 Normal termination of Gaussian 16 at Sun Dec 13 20:59:56 2020.

 ----------------------------------------------------------------------
 # B3LYP/6-311++G(d,p) empiricaldispersion=gd3bj scf=xqc pop=npa geom=c
 heck
 ----------------------------------------------------------------------

 ---------------------------------------
 CID_87575614_JID_10090_Energie_neutraal
 ---------------------------------------
 Structure from the checkpoint file:  "JID_10090.chk"
 Charge =  0 Multiplicity = 1

 SCF Done:  E(RB3LYP) =  -1150.60833569     A.U. after   16 cycles
 Normal termination of Gaussian 16 at Sun Dec 13 21:07:50 2020.

 ----------------------------------------------------------------------
 # B3LYP/6-311++G(d,p) empiricaldispersion=gd3bj scf=xqc pop=npa geom=c
 heck
 ----------------------------------------------------------------------

 -------------------------------------
 CID_87575614_JID_10090_Energie_kation
 -------------------------------------
 Structure from the checkpoint file:  "JID_10090.chk"
 Charge =  1 Multiplicity = 2

 SCF Done:  E(UB3LYP) =  -1150.31411409     A.U. after   31 cycles
 Normal termination of Gaussian 16 at Sun Dec 13 21:28:43 2020.
 Gaussian 16:  ES64L-G16RevA.03 25-Dec-2016

 ----------------------------------------------------------------------
 # B3LYP/6-311++G(d,p) empiricaldispersion=gd3bj scf=xqc pop=npa geom=c
 heck
 ----------------------------------------------------------------------

 ------------------------------------
 CID_87575614_JID_10090_Energie_anion
 ------------------------------------
 Structure from the checkpoint file:  "JID_10090.chk"
 Charge = -1 Multiplicity = 2

                         Standard orientation:
 ---------------------------------------------------------------------
 Center     Atomic      Atomic             Coordinates (Angstroms)
 Number     Number       Type             X           Y           Z
 ---------------------------------------------------------------------
      1          6           0       -0.467500    1.911971   -0.319486
      2          6           0        0.872505    1.574328   -0.471804
      3          6           0        1.442220    0.528694    0.273386
      4          6           0        0.619487   -0.158289    1.177739
      5          6           0       -0.721405    0.186610    1.327384
      6          6           0       -1.291678    1.223649    0.581406
      7          6           0       -2.755307    1.576539    0.709550
      8          6           0       -3.576020    1.210304   -0.544827
      9          6           0       -3.530828   -0.275209   -0.928751
     10          6           0       -4.047872   -1.245033    0.142339
     11          6           0       -5.460973   -0.960081    0.656924
     12         16           0       -6.794302   -1.073764   -0.611159
     13          6           0        2.867034    0.165757    0.111386
     14          6           0        3.841512    1.151602   -0.120961
     15          6           0        5.180213    0.816845   -0.275146
     16          6           0        5.580162   -0.526855   -0.196748
     17          6           0        4.618288   -1.522968    0.036220
     18          6           0        3.282482   -1.174935    0.185617
     19          6           0        6.958714   -0.878744   -0.353305
     20          7           0        8.079221   -1.164747   -0.480511
     21          1           0       -0.884488    2.720822   -0.914616
     22          1           0        1.480560    2.108837   -1.195659
     23          1           0        1.040244   -0.949438    1.791226
     24          1           0       -1.333365   -0.351836    2.046527
     25          1           0       -3.174971    1.074971    1.589093
     26          1           0       -2.860312    2.654173    0.889650
     27          1           0       -4.614059    1.531084   -0.384841
     28          1           0       -3.206018    1.799629   -1.393371
     29          1           0       -4.109273   -0.418907   -1.849520
     30          1           0       -2.497619   -0.549985   -1.172113
     31          1           0       -4.015546   -2.264415   -0.259064
     32          1           0       -3.373263   -1.230865    1.009322
     33          1           0       -5.745408   -1.707204    1.404077
     34          1           0       -5.524261    0.016833    1.145042
     35          1           0       -6.433587    0.008339   -1.332761
     36          1           0        3.546706    2.195470   -0.154536
     37          1           0        5.924294    1.587652   -0.445970
     38          1           0        4.925550   -2.562168    0.087537
     39          1           0        2.542889   -1.954643    0.336566
 ---------------------------------------------------------------------

 SCF Done:  E(UB3LYP) =  -1150.63212973     A.U. after   24 cycles

 The electronic state is 2-A.
 Alpha  occ. eigenvalues --  -88.77534 -14.17141 -10.13550 -10.09910 -10.08697
 Alpha  occ. eigenvalues --  -10.08650 -10.08175 -10.07370 -10.06469 -10.06380
 Alpha  occ. eigenvalues --  -10.06315 -10.06234 -10.05908 -10.05836 -10.05764
 Alpha  occ. eigenvalues --  -10.05755 -10.05670 -10.05082 -10.05070 -10.04860
 Alpha  occ. eigenvalues --   -7.86216  -5.82587  -5.82249  -5.81600  -0.77527
 Alpha  occ. eigenvalues --   -0.75753  -0.74662  -0.73533  -0.70416  -0.67119
 Alpha  occ. eigenvalues --   -0.64611  -0.63825  -0.62897  -0.61709  -0.58600
 Alpha  occ. eigenvalues --   -0.54385  -0.51425  -0.50840  -0.48318  -0.48025
 Alpha  occ. eigenvalues --   -0.46088  -0.42761  -0.41297  -0.40088  -0.39247
 Alpha  occ. eigenvalues --   -0.36886  -0.36082  -0.35189  -0.33946  -0.33443
 Alpha  occ. eigenvalues --   -0.33103  -0.32510  -0.31442  -0.31158  -0.30660
 Alpha  occ. eigenvalues --   -0.30498  -0.28840  -0.27385  -0.27275  -0.26733
 Alpha  occ. eigenvalues --   -0.25675  -0.25056  -0.24867  -0.24435  -0.23815
 Alpha  occ. eigenvalues --   -0.23480  -0.22371  -0.22260  -0.21739  -0.20097
 Alpha  occ. eigenvalues --   -0.17474  -0.15885  -0.14899  -0.14363  -0.11247
 Alpha  occ. eigenvalues --    0.02533
 Alpha virt. eigenvalues --    0.04726   0.05919   0.06864   0.07626   0.08181
 Alpha virt. eigenvalues --    0.08802   0.08995   0.09206   0.09626   0.09811
 Alpha virt. eigenvalues --    0.09947   0.10249   0.10426   0.10886   0.11103

  Beta  occ. eigenvalues --  -88.77530 -14.16903 -10.13546 -10.09910 -10.08672
  Beta  occ. eigenvalues --  -10.08646 -10.08192 -10.07388 -10.06421 -10.06344
  Beta  occ. eigenvalues --  -10.06193 -10.06015 -10.05829 -10.05752 -10.05706
  Beta  occ. eigenvalues --  -10.05694 -10.05562 -10.05059 -10.05046 -10.04558
  Beta  occ. eigenvalues --   -7.86212  -5.82578  -5.82246  -5.81597  -0.77164
  Beta  occ. eigenvalues --   -0.75540  -0.74548  -0.73247  -0.70300  -0.66808
  Beta  occ. eigenvalues --   -0.64371  -0.63646  -0.62641  -0.61480  -0.58492
  Beta  occ. eigenvalues --   -0.54211  -0.50998  -0.50754  -0.48210  -0.47894
  Beta  occ. eigenvalues --   -0.45912  -0.42600  -0.41272  -0.39961  -0.39172
  Beta  occ. eigenvalues --   -0.36780  -0.35915  -0.35113  -0.33848  -0.33363
  Beta  occ. eigenvalues --   -0.32968  -0.32387  -0.31392  -0.31027  -0.30564
  Beta  occ. eigenvalues --   -0.30423  -0.28769  -0.27286  -0.26746  -0.26188
  Beta  occ. eigenvalues --   -0.25412  -0.24975  -0.24733  -0.24127  -0.23695
  Beta  occ. eigenvalues --   -0.23183  -0.22239  -0.22068  -0.20866  -0.19967
  Beta  occ. eigenvalues --   -0.17464  -0.14649  -0.14440  -0.13586  -0.09982
  Beta virt. eigenvalues --    0.04706   0.05867   0.06697   0.07466   0.07609
  Beta virt. eigenvalues --    0.08129   0.08845   0.08936   0.09256   0.09575
  Beta virt. eigenvalues --    0.09852   0.10066   0.10402   0.10511   0.10823

 Mulliken charges and spin densities:
               1          2
     1  C   -0.594760  -0.017527
     2  C   -0.496951   0.061831
     3  C    0.735359  -0.001009
     4  C   -0.624353   0.086968
     5  C   -0.590593  -0.034546
     6  C    1.178740   0.158628
     7  C   -0.530878   0.033222
     8  C   -0.014634  -0.195398
     9  C   -0.618089   0.019556
    10  C   -0.022803   0.034271
    11  C   -0.317504  -0.072925
    12  S   -0.160148  -0.020085
    13  C    1.061653   0.146461
    14  C   -0.461827   0.045737
    15  C   -0.611726   0.075211
    16  C    2.092072   0.191046
    17  C   -0.684989   0.077019
    18  C   -0.438926   0.041740
    19  C   -1.844576  -0.080404
    20  N   -0.293752   0.127572
    21  H    0.105700   0.016631
    22  H    0.133960  -0.004506
    23  H    0.129084   0.001666
    24  H    0.082715   0.010578
    25  H    0.141803   0.018395
    26  H    0.093400   0.075512
    27  H    0.022002   0.106789
    28  H    0.152459  -0.012141
    29  H    0.151674   0.008272
    30  H    0.138681  -0.000836
    31  H    0.128870   0.000612
    32  H    0.150736  -0.005977
    33  H    0.188783   0.036559
    34  H    0.122173   0.036994
    35  H   -0.009965   0.036251
    36  H    0.102446   0.002735
    37  H    0.150463  -0.003135
    38  H    0.154880  -0.003219
    39  H    0.098817   0.001453
 Sum of Mulliken charges =  -1.00000   1.00000

 Dipole moment (field-independent basis, Debye):
    X=            -14.4681    Y=              1.4027    Z=              0.7828  Tot=             14.5570
 Quadrupole moment (field-independent basis, Debye-Ang):
   XX=           -320.1420   YY=           -139.7984   ZZ=           -138.6365
   XY=             15.4882   XZ=              3.1273   YZ=             -7.3298

 Summary of Natural Population Analysis:

                                       Natural Population
                Natural  -----------------------------------------------
    Atom  No    Charge         Core      Valence    Rydberg      Total
 -----------------------------------------------------------------------
      C    1   -0.13394      0.99958     2.11898    0.01538     3.13394
      C    2   -0.07470      0.99953     2.06715    0.00801     3.07470
      C    3   -0.01426      0.99949     2.00449    0.01028     3.01426
      C    4   -0.07157      0.99953     2.06400    0.00804     3.07157
      C    5   -0.13620      0.99958     2.12091    0.01571     3.13620
      C    6    0.07166      0.99950     1.91899    0.00985     2.92834
      C    7   -0.21275      0.99964     2.19853    0.01458     3.21275
      C    8   -0.18836      0.99963     2.17824    0.01049     3.18836
      C    9   -0.19916      0.99962     2.18959    0.00995     3.19916
      C   10   -0.19810      0.99962     2.19051    0.00797     3.19810
      C   11   -0.24319      0.99958     2.23467    0.00894     3.24319
      S   12   -0.03271      4.99967     3.01752    0.01552     8.03271
      C   13    0.03073      0.99949     1.95948    0.01029     2.96927
      C   14   -0.09703      0.99954     2.08942    0.00807     3.09703
      C   15   -0.08581      0.99960     2.07182    0.01439     3.08581
      C   16   -0.00330      0.99942     1.99300    0.01088     3.00330
      C   17   -0.08621      0.99960     2.07222    0.01440     3.08621
      C   18   -0.09682      0.99954     2.08904    0.00825     3.09682
      C   19    0.13477      0.99971     1.84609    0.01944     2.86523
      N   20   -0.17288      0.99979     2.66227    0.01083     3.67288
      H   21    0.09197      0.00000     0.40646    0.00158     0.40803
      H   22    0.09671      0.00000     0.40199    0.00130     0.40329
      H   23    0.09659      0.00000     0.40211    0.00131     0.40341
      H   24    0.09055      0.00000     0.40762    0.00183     0.40945
      H   25    0.09330      0.00000     0.40508    0.00162     0.40670
      H   26    0.10238      0.00000     0.39654    0.00108     0.39762
      H   27    0.09017      0.00000     0.40837    0.00145     0.40983
      H   28    0.09838      0.00000     0.40049    0.00113     0.40162
      H   29    0.09568      0.00000     0.40325    0.00107     0.40432
      H   30    0.10948      0.00000     0.38946    0.00107     0.39052
      H   31    0.10011      0.00000     0.39886    0.00103     0.39989
      H   32    0.10298      0.00000     0.39560    0.00141     0.39702
      H   33    0.10345      0.00000     0.39515    0.00140     0.39655
      H   34    0.10213      0.00000     0.39627    0.00160     0.39787
      H   35    0.05815      0.00000     0.43892    0.00293     0.44185
      H   36    0.09597      0.00000     0.40277    0.00127     0.40403
      H   37    0.09659      0.00000     0.40208    0.00133     0.40341
      H   38    0.09665      0.00000     0.40202    0.00133     0.40335
      H   39    0.09603      0.00000     0.40271    0.00126     0.40397
 =======================================================================
   * Total *    0.00742     23.99167    50.74267    0.25824    74.99258

 Normal termination of Gaussian 16 at Sun Dec 13 21:44:58 2020.
