 Gaussian 16, Revision A.03,

 -----------------------------------------------------------
 # opt freq B3LYP/6-31G(d) empiricaldispersion=gd3bj scf=xqc
 -----------------------------------------------------------

 -------------------------------
 CID_131179080_JID_2430_neutraal
 -------------------------------
 Symbolic Z-matrix:
 Charge =  0 Multiplicity = 1

 SCF Done:  E(RB3LYP) =  -538.542966820     A.U. after   14 cycles
 SCF Done:  E(RB3LYP) =  -538.553601665     A.U. after   12 cycles
 SCF Done:  E(RB3LYP) =  -538.553703249     A.U. after   11 cycles
 SCF Done:  E(RB3LYP) =  -538.551417115     A.U. after   12 cycles
 SCF Done:  E(RB3LYP) =  -538.554693105     A.U. after   11 cycles
 SCF Done:  E(RB3LYP) =  -538.554588101     A.U. after   11 cycles
 SCF Done:  E(RB3LYP) =  -538.554880318     A.U. after   10 cycles
 SCF Done:  E(RB3LYP) =  -538.554910244     A.U. after   10 cycles
 SCF Done:  E(RB3LYP) =  -538.554931777     A.U. after   10 cycles
 SCF Done:  E(RB3LYP) =  -538.554943867     A.U. after   10 cycles
 SCF Done:  E(RB3LYP) =  -538.554946725     A.U. after    9 cycles
 SCF Done:  E(RB3LYP) =  -538.554947540     A.U. after    8 cycles
 SCF Done:  E(RB3LYP) =  -538.554948659     A.U. after    8 cycles
 SCF Done:  E(RB3LYP) =  -538.554949319     A.U. after    8 cycles
 SCF Done:  E(RB3LYP) =  -538.554949498     A.U. after    7 cycles
 Optimization completed.
    -- Stationary point found.
 Normal termination of Gaussian 16 at Wed Dec  9 17:23:19 2020.

 --------------------------------------------------------------------
 #N Geom=AllCheck Guess=TCheck SCRF=Check GenChk RB3LYP/6-31G(d) Freq
 --------------------------------------------------------------------

 Structure from the checkpoint file:  "JID_2430.chk"
 -------------------------------
 CID_131179080_JID_2430_neutraal
 -------------------------------
 Charge =  0 Multiplicity = 1

 SCF Done:  E(RB3LYP) =  -538.554949498     A.U. after    1 cycles

  Exact polarizability: 125.327  -1.824  99.130   3.705   1.856  99.254
 Approx polarizability: 158.568   0.491 140.087   9.492  11.593 153.429

                      1                      2                      3
                      A                      A                      A
 Frequencies --     46.1815                57.2966                71.1795
 Red. masses --      3.6013                 4.0817                 3.4843
 Frc consts  --      0.0045                 0.0079                 0.0104
 IR Inten    --      0.0352                 0.6989                 0.5705

                      4                      5                      6
                      A                      A                      A
 Frequencies --     99.7306               108.5331               172.2335
 Red. masses --      2.4802                 3.0882                 2.7497
 Frc consts  --      0.0145                 0.0214                 0.0481
 IR Inten    --      0.5326                 1.1496                 2.4832

                      7                      8                      9
                      A                      A                      A
 Frequencies --    209.6902               229.3633               238.0349
 Red. masses --      1.4011                 1.9287                 2.2228
 Frc consts  --      0.0363                 0.0598                 0.0742
 IR Inten    --      0.0202                 1.0277                 0.5648

                     10                     11                     12
                      A                      A                      A
 Frequencies --    256.3923               280.2961               316.8057
 Red. masses --      1.3749                 2.2016                 1.1125
 Frc consts  --      0.0533                 0.1019                 0.0658
 IR Inten    --      0.4203                 1.6219                46.0179

                     13                     14                     15
                      A                      A                      A
 Frequencies --    340.4028               364.5634               396.9526
 Red. masses --      2.9029                 2.5075                 1.8768
 Frc consts  --      0.1982                 0.1964                 0.1742
 IR Inten    --      4.1684                 3.2356                 4.2756

                     16                     17                     18
                      A                      A                      A
 Frequencies --    423.8173               507.3613               536.8366
 Red. masses --      2.3880                 3.7164                 3.2450
 Frc consts  --      0.2527                 0.5636                 0.5510
 IR Inten    --     13.3948                 2.8117                14.3672

                     19                     20                     21
                      A                      A                      A
 Frequencies --    599.1762               611.6911               662.3036
 Red. masses --      2.1241                 2.2126                 1.6160
 Frc consts  --      0.4493                 0.4878                 0.4176
 IR Inten    --     39.3478                34.8366                25.3132

                     22                     23                     24
                      A                      A                      A
 Frequencies --    713.5265               757.9515               797.7043
 Red. masses --      2.0580                 4.6222                 1.3028
 Frc consts  --      0.6173                 1.5645                 0.4884
 IR Inten    --     25.8229                27.7526                 0.9159

                     25                     26                     27
                      A                      A                      A
 Frequencies --    813.9158               836.1249               865.2997
 Red. masses --      2.6764                 1.8356                 1.4697
 Frc consts  --      1.0446                 0.7561                 0.6484
 IR Inten    --     74.2861                33.6267               135.6574

                     28                     29                     30
                      A                      A                      A
 Frequencies --    887.1836               927.7559               950.3151
 Red. masses --      2.2302                 1.8688                 1.8294
 Frc consts  --      1.0342                 0.9477                 0.9734
 IR Inten    --      1.1666                 2.5748                 0.8067

                     31                     32                     33
                      A                      A                      A
 Frequencies --    962.7555               968.8214               987.3042
 Red. masses --      2.3691                 1.6550                 2.8323
 Frc consts  --      1.2938                 0.9153                 1.6267
 IR Inten    --      1.7505                 1.2017                 0.3565

                     34                     35                     36
                      A                      A                      A
 Frequencies --   1013.6267              1040.1527              1046.0686
 Red. masses --      1.4494                 1.4489                 1.6911
 Frc consts  --      0.8774                 0.9236                 1.0903
 IR Inten    --      1.4945                 6.0893                 3.7208

                     37                     38                     39
                      A                      A                      A
 Frequencies --   1083.8111              1147.4009              1166.5277
 Red. masses --      1.1409                 2.1296                 2.2595
 Frc consts  --      0.7896                 1.6519                 1.8116
 IR Inten    --      3.7718                79.7015                 6.0272

                     40                     41                     42
                      A                      A                      A
 Frequencies --   1179.0530              1190.7904              1219.6727
 Red. masses --      2.6272                 2.6082                 2.1134
 Frc consts  --      2.1519                 2.1790                 1.8523
 IR Inten    --      7.0054                 3.6610                 2.8065

                     43                     44                     45
                      A                      A                      A
 Frequencies --   1235.9905              1266.0073              1273.4122
 Red. masses --      1.3876                 1.4013                 1.2668
 Frc consts  --      1.2489                 1.3233                 1.2103
 IR Inten    --      0.0943                56.0518                 0.7251

                     46                     47                     48
                      A                      A                      A
 Frequencies --   1286.5776              1292.7508              1298.6896
 Red. masses --      1.6778                 1.3197                 1.3975
 Frc consts  --      1.6363                 1.2994                 1.3887
 IR Inten    --     12.6688                12.7253                 1.3611

                     49                     50                     51
                      A                      A                      A
 Frequencies --   1311.6754              1353.2054              1379.3795
 Red. masses --      1.6882                 1.4638                 1.9472
 Frc consts  --      1.7113                 1.5793                 2.1829
 IR Inten    --      1.0972                 1.8987               141.1495

                     52                     53                     54
                      A                      A                      A
 Frequencies --   1416.3064              1420.9238              1438.5548
 Red. masses --      1.2805                 1.4667                 1.2245
 Frc consts  --      1.5134                 1.7447                 1.4930
 IR Inten    --      5.5627                10.6712                 9.5335

                     55                     56                     57
                      A                      A                      A
 Frequencies --   1449.1641              1500.3606              1502.6890
 Red. masses --      1.4536                 1.3336                 1.3599
 Frc consts  --      1.7985                 1.7687                 1.8093
 IR Inten    --     15.3596                45.3139                17.0318

                     58                     59                     60
                      A                      A                      A
 Frequencies --   1511.0066              1519.8092              1525.5170
 Red. masses --      1.0969                 1.0612                 1.0557
 Frc consts  --      1.4755                 1.4443                 1.4476
 IR Inten    --      9.7481                12.1584                 3.2461

                     61                     62                     63
                      A                      A                      A
 Frequencies --   1527.6669              1530.4067              1534.2909
 Red. masses --      1.0783                 1.0598                 1.0673
 Frc consts  --      1.4827                 1.4624                 1.4803
 IR Inten    --      2.6727                 4.0958                 9.0373

                     64                     65                     66
                      A                      A                      A
 Frequencies --   1538.8206              1690.4191              1765.8091
 Red. masses --      1.1108                 1.0963                 8.0897
 Frc consts  --      1.5498                 1.8458                14.8617
 IR Inten    --      6.5812                25.4005               314.4168

                     67                     68                     69
                      A                      A                      A
 Frequencies --   2990.0243              3037.4894              3049.6075
 Red. masses --      1.0748                 1.0853                 1.0362
 Frc consts  --      5.6614                 5.8997                 5.6779
 IR Inten    --     53.9109                45.6157                21.1808

                     70                     71                     72
                      A                      A                      A
 Frequencies --   3056.2208              3067.9203              3077.6215
 Red. masses --      1.0365                 1.0622                 1.0617
 Frc consts  --      5.7041                 5.8905                 5.9249
 IR Inten    --     16.1848                30.1392                40.0616

                     73                     74                     75
                      A                      A                      A
 Frequencies --   3078.8701              3113.9007              3120.7958
 Red. masses --      1.0650                 1.1024                 1.1024
 Frc consts  --      5.9482                 6.2979                 6.3258
 IR Inten    --     29.6705                19.4778                12.4844

                     76                     77                     78
                      A                      A                      A
 Frequencies --   3122.3607              3127.2090              3136.4416
 Red. masses --      1.1034                 1.1002                 1.1047
 Frc consts  --      6.3378                 6.3393                 6.4030
 IR Inten    --     23.6049                34.9145                69.8971

                     79                     80                     81
                      A                      A                      A
 Frequencies --   3142.1598              3152.8756              3162.1195
 Red. masses --      1.1020                 1.0887                 1.1010
 Frc consts  --      6.4106                 6.3761                 6.4860
 IR Inten    --     15.8708                10.2049                10.1021

                     82                     83                     84
                      A                      A                      A
 Frequencies --   3462.0279              3554.7039              3577.9258
 Red. masses --      1.0482                 1.0938                 1.0741
 Frc consts  --      7.4023                 8.1429                 8.1016
 IR Inten    --      1.5187                 0.2971                13.6586

 - Thermochemistry -
 -------------------
 Temperature   298.150 Kelvin.  Pressure   1.00000 Atm.
 Atom     1 has atomic number  6 and mass  12.00000

 Molecular mass:   170.14191 amu.
 Principal axes and moments of inertia in atomic units:
                           1         2         3
     Eigenvalues --  1169.107723303.151713521.96781
           X            0.99995  -0.00369  -0.00906
           Y            0.00254   0.99231  -0.12373
           Z            0.00944   0.12370   0.99227
 This molecule is an asymmetric top.
 Rotational symmetry number  1.
 Warning -- assumption of classical behavior for rotation
           may cause significant error
 Rotational temperatures (Kelvin)      0.07409     0.02622     0.02459
 Rotational constants (GHZ):           1.54369     0.54637     0.51242
 Zero-point vibrational energy     709889.8 (Joules/Mol)
                                  169.66774 (Kcal/Mol)
 Warning -- explicit consideration of  20 degrees of freedom as
           vibrations may cause significant error
 Vibrational temperatures:     66.44    82.44   102.41   143.49   156.15
          (Kelvin)            247.81   301.70   330.00   342.48   368.89
                              403.28   455.81   489.76   524.53   571.13
                              609.78   729.98   772.39   862.08   880.09
                              952.91  1026.61  1090.52  1147.72  1171.04
                             1203.00  1244.97  1276.46  1334.83  1367.29
                             1385.19  1393.92  1420.51  1458.38  1496.55
                             1505.06  1559.36  1650.85  1678.37  1696.39
                             1713.28  1754.84  1778.31  1821.50  1832.16
                             1851.10  1859.98  1868.52  1887.21  1946.96
                             1984.62  2037.75  2044.39  2069.76  2085.02
                             2158.68  2162.03  2174.00  2186.67  2194.88
                             2197.97  2201.91  2207.50  2214.02  2432.14
                             2540.61  4301.98  4370.27  4387.71  4397.22
                             4414.05  4428.01  4429.81  4480.21  4490.13
                             4492.38  4499.36  4512.64  4520.87  4536.28
                             4549.58  4981.09  5114.43  5147.84

 Zero-point correction=                           0.270383 (Hartree/Particle)
 Thermal correction to Energy=                    0.283935
 Thermal correction to Enthalpy=                  0.284879
 Thermal correction to Gibbs Free Energy=         0.230268
 Sum of electronic and zero-point Energies=           -538.284567
 Sum of electronic and thermal Energies=              -538.271014
 Sum of electronic and thermal Enthalpies=            -538.270070
 Sum of electronic and thermal Free Energies=         -538.324681

                     E (Thermal)             CV                S
                      KCal/Mol        Cal/Mol-Kelvin    Cal/Mol-Kelvin
 Total                  178.172             50.965            114.939
 Electronic               0.000              0.000              0.000
 Translational            0.889              2.981             41.302
 Rotational               0.889              2.981             30.987
 Vibrational            176.395             45.003             42.650
 Vibration     1          0.595              1.979              4.975
 Vibration     2          0.596              1.975              4.548
 Vibration     3          0.598              1.968              4.120
 Vibration     4          0.604              1.949              3.460
 Vibration     5          0.606              1.942              3.295
 Vibration     6          0.626              1.877              2.411
 Vibration     7          0.642              1.826              2.046
 Vibration     8          0.652              1.796              1.884
 Vibration     9          0.656              1.782              1.818
 Vibration    10          0.666              1.752              1.686
 Vibration    11          0.680              1.710              1.532
 Vibration    12          0.704              1.642              1.327
 Vibration    13          0.720              1.595              1.210
 Vibration    14          0.738              1.545              1.103
 Vibration    15          0.763              1.477              0.974
 Vibration    16          0.786              1.418              0.879
 Vibration    17          0.863              1.234              0.640
 Vibration    18          0.892              1.169              0.572
 Vibration    19          0.957              1.034              0.451
 Vibration    20          0.971              1.007              0.430

                           ! Non-Optimized Parameters !
 Normal termination of Gaussian 16 at Wed Dec  9 17:30:47 2020.

 ----------------------------------------------------------------------
 # B3LYP/6-311++G(d,p) empiricaldispersion=gd3bj scf=xqc pop=npa geom=c
 heck
 ----------------------------------------------------------------------

 ---------------------------------------
 CID_131179080_JID_2430_Energie_neutraal
 ---------------------------------------
 Structure from the checkpoint file:  "JID_2430.chk"
 Charge =  0 Multiplicity = 1

 SCF Done:  E(RB3LYP) =  -538.719367641     A.U. after   13 cycles
 Normal termination of Gaussian 16 at Wed Dec  9 17:33:23 2020.

 ----------------------------------------------------------------------
 # B3LYP/6-311++G(d,p) empiricaldispersion=gd3bj scf=xqc pop=npa geom=c
 heck
 ----------------------------------------------------------------------

 -------------------------------------
 CID_131179080_JID_2430_Energie_kation
 -------------------------------------
 Structure from the checkpoint file:  "JID_2430.chk"
 Charge =  1 Multiplicity = 2

 SCF Done:  E(UB3LYP) =  -538.400790880     A.U. after   27 cycles
 Normal termination of Gaussian 16 at Wed Dec  9 17:41:30 2020.
 Gaussian 16:  ES64L-G16RevA.03 25-Dec-2016

 ----------------------------------------------------------------------
 # B3LYP/6-311++G(d,p) empiricaldispersion=gd3bj scf=xqc pop=npa geom=c
 heck
 ----------------------------------------------------------------------

 ------------------------------------
 CID_131179080_JID_2430_Energie_anion
 ------------------------------------
 Structure from the checkpoint file:  "JID_2430.chk"
 Charge = -1 Multiplicity = 2

                         Standard orientation:
 ---------------------------------------------------------------------
 Center     Atomic      Atomic             Coordinates (Angstroms)
 Number     Number       Type             X           Y           Z
 ---------------------------------------------------------------------
      1          6           0        2.489567    1.630113   -0.375394
      2          6           0        2.749518    0.367395    0.445216
      3          6           0        1.436116   -0.334554    0.862535
      4          7           0        0.716336   -0.859707   -0.283439
      5          6           0       -0.623837   -0.892804   -0.581651
      6          8           0       -1.002877   -1.487034   -1.586020
      7          6           0       -1.598393   -0.188061    0.370314
      8          6           0       -2.956957    0.074264   -0.339041
      9          6           0       -2.515338    1.530773   -0.622140
     10          6           0       -1.387485    1.366510    0.426180
     11          6           0       -1.698141   -0.950920    1.695037
     12          7           0        3.689107   -0.489843   -0.285586
     13          1           0        1.924609    1.392177   -1.284313
     14          1           0        3.438007    2.089588   -0.667046
     15          1           0        1.908770    2.359026    0.199282
     16          1           0        3.249397    0.654895    1.380452
     17          1           0        1.678249   -1.146179    1.567948
     18          1           0        0.799450    0.372371    1.395269
     19          1           0        1.257146   -1.425287   -0.927320
     20          1           0       -3.165674   -0.567571   -1.195608
     21          1           0       -3.787233    0.022847    0.372854
     22          1           0       -3.247102    2.324026   -0.444712
     23          1           0       -2.115207    1.643356   -1.634311
     24          1           0       -1.663257    1.764922    1.408806
     25          1           0       -0.403501    1.756368    0.154278
     26          1           0       -2.412435   -0.451280    2.358841
     27          1           0       -2.060897   -1.969792    1.515529
     28          1           0       -0.743562   -1.024481    2.225018
     29          1           0        3.813051   -1.385109    0.184906
     30          1           0        3.344807   -0.683045   -1.224865
 ---------------------------------------------------------------------

 SCF Done:  E(UB3LYP) =  -538.707672755     A.U. after   30 cycles

 The electronic state is 2-A.
 Alpha  occ. eigenvalues --  -18.98565 -14.23249 -14.19430 -10.17027 -10.10281
 Alpha  occ. eigenvalues --  -10.10244 -10.09356 -10.07426 -10.07270 -10.06644
 Alpha  occ. eigenvalues --  -10.06637 -10.06040  -0.93735  -0.82569  -0.78319
 Alpha  occ. eigenvalues --   -0.75699  -0.65250  -0.63971  -0.59694  -0.56781
 Alpha  occ. eigenvalues --   -0.54657  -0.50221  -0.49003  -0.44137  -0.40379
 Alpha  occ. eigenvalues --   -0.39147  -0.38250  -0.37546  -0.36426  -0.34860
 Alpha  occ. eigenvalues --   -0.33307  -0.32362  -0.31815  -0.30190  -0.29930
 Alpha  occ. eigenvalues --   -0.29404  -0.27341  -0.27167  -0.25703  -0.24975
 Alpha  occ. eigenvalues --   -0.24638  -0.23264  -0.21044  -0.20631  -0.15941
 Alpha  occ. eigenvalues --   -0.15573  -0.14106   0.04429
 Alpha virt. eigenvalues --    0.06526   0.07458   0.07791   0.08869   0.09224
 Alpha virt. eigenvalues --    0.09611   0.10449   0.10808   0.11529   0.11775
 Alpha virt. eigenvalues --    0.12101   0.12451   0.12634   0.13293   0.14458

  Beta  occ. eigenvalues --  -18.98553 -14.23240 -14.19384 -10.17020 -10.10262
  Beta  occ. eigenvalues --  -10.10211 -10.09353 -10.07405 -10.07262 -10.06638
  Beta  occ. eigenvalues --  -10.06608 -10.06012  -0.93716  -0.82535  -0.78248
  Beta  occ. eigenvalues --   -0.75683  -0.65177  -0.63938  -0.59635  -0.56745
  Beta  occ. eigenvalues --   -0.54608  -0.50180  -0.48938  -0.44095  -0.40300
  Beta  occ. eigenvalues --   -0.39111  -0.38214  -0.37504  -0.36360  -0.34820
  Beta  occ. eigenvalues --   -0.33267  -0.32333  -0.31785  -0.30157  -0.29896
  Beta  occ. eigenvalues --   -0.29376  -0.27296  -0.27130  -0.25654  -0.24919
  Beta  occ. eigenvalues --   -0.24618  -0.23243  -0.21023  -0.20608  -0.15902
  Beta  occ. eigenvalues --   -0.15554  -0.14061
  Beta virt. eigenvalues --    0.06798   0.07430   0.07986   0.08489   0.09367
  Beta virt. eigenvalues --    0.09683   0.09899   0.10655   0.11157   0.11975
  Beta virt. eigenvalues --    0.12130   0.12513   0.12700   0.13000   0.13627

 Mulliken charges and spin densities:
               1          2
     1  C    0.399596  -1.005908
     2  C    1.461940  -1.747296
     3  C   -0.328961   0.099912
     4  N   -0.260269   0.098444
     5  C    0.055046  -0.359265
     6  O   -0.317505   0.008161
     7  C   -0.780134   1.645941
     8  C   -0.378736  -0.146886
     9  C   -0.398784   0.033574
    10  C    0.656819  -0.976927
    11  C    0.936567  -1.527733
    12  N   -0.441920   0.105071
    13  H   -0.043892   0.206174
    14  H    0.012510   0.161459
    15  H   -0.273432   0.416884
    16  H   -0.427659   0.655655
    17  H   -0.819978   1.035137
    18  H    0.131457   0.040587
    19  H    0.349402  -0.043820
    20  H    0.178313   0.019862
    21  H    0.058666   0.063176
    22  H   -0.066784   0.219441
    23  H    0.101448   0.032216
    24  H   -0.468893   0.648052
    25  H    0.408016  -0.340530
    26  H   -0.271463   0.419812
    27  H    0.002062   0.170200
    28  H   -0.269460   0.395768
    29  H   -0.257524   0.507480
    30  H    0.053552   0.165359
 Sum of Mulliken charges =  -1.00000   1.00000

 Dipole moment (field-independent basis, Debye):
    X=             -4.3983    Y=              1.5122    Z=             -3.9976  Tot=              6.1329
 Quadrupole moment (field-independent basis, Debye-Ang):
   XX=           -141.7522   YY=           -115.7281   ZZ=           -119.3755
   XY=              3.7673   XZ=             -4.9118   YZ=             -2.4755

 Summary of Natural Population Analysis:

                                       Natural Population
                Natural  -----------------------------------------------
    Atom  No    Charge         Core      Valence    Rydberg      Total
 -----------------------------------------------------------------------
      C    1   -0.28978      0.99964     2.28480    0.00534     3.28978
      C    2   -0.01794      0.99962     2.00495    0.01337     3.01794
      C    3   -0.09624      0.99958     2.08363    0.01303     3.09624
      N    4   -0.32157      0.99966     2.81042    0.01149     3.82157
      C    5    0.35168      0.99959     1.62416    0.02457     2.64832
      O    6   -0.32905      0.99988     3.32390    0.00527     4.32905
      C    7   -0.07667      0.99954     2.06430    0.01283     3.07667
      C    8   -0.18291      0.99962     2.17436    0.00893     3.18291
      C    9   -0.19198      0.99965     2.18435    0.00798     3.19198
      C   10   -0.18661      0.99961     2.17799    0.00902     3.18661
      C   11   -0.28127      0.99962     2.27499    0.00666     3.28127
      N   12   -0.42281      0.99977     2.91205    0.01098     3.92281
      H   13    0.09734      0.00000     0.40147    0.00120     0.40266
      H   14    0.10433      0.00000     0.39458    0.00109     0.39567
      H   15    0.10142      0.00000     0.39735    0.00123     0.39858
      H   16    0.09481      0.00000     0.40297    0.00222     0.40519
      H   17    0.09685      0.00000     0.39911    0.00404     0.40315
      H   18    0.10358      0.00000     0.39371    0.00271     0.39642
      H   19    0.19106      0.00000     0.30595    0.00299     0.30894
      H   20    0.11083      0.00000     0.38819    0.00098     0.38917
      H   21    0.09470      0.00000     0.40428    0.00102     0.40530
      H   22    0.09449      0.00000     0.40457    0.00094     0.40551
      H   23    0.09686      0.00000     0.40213    0.00101     0.40314
      H   24    0.10023      0.00000     0.39819    0.00158     0.39977
      H   25    0.10141      0.00000     0.39688    0.00171     0.39859
      H   26    0.10077      0.00000     0.39780    0.00142     0.39923
      H   27    0.10221      0.00000     0.39675    0.00104     0.39779
      H   28    0.10493      0.00000     0.39372    0.00136     0.39507
      H   29    0.18045      0.00000     0.31574    0.00381     0.31955
      H   30    0.16887      0.00000     0.32889    0.00224     0.33113
 =======================================================================
   * Total *    0.00000     11.99576    34.84219    0.16205    47.00000

 Normal termination of Gaussian 16 at Wed Dec  9 17:50:25 2020.
