 Gaussian 16, Revision A.03,

 -----------------------------------------------------------
 # opt freq B3LYP/6-31G(d) empiricaldispersion=gd3bj scf=xqc
 -----------------------------------------------------------

 ------------------------------
 CID_87439080_JID_5409_neutraal
 ------------------------------
 Symbolic Z-matrix:
 Charge =  0 Multiplicity = 1

 SCF Done:  E(RB3LYP) =  -1662.65922953     A.U. after   14 cycles
 SCF Done:  E(RB3LYP) =  -1662.67467475     A.U. after   13 cycles
 SCF Done:  E(RB3LYP) =  -1662.67039153     A.U. after   13 cycles
 SCF Done:  E(RB3LYP) =  -1662.66128223     A.U. after   13 cycles
 SCF Done:  E(RB3LYP) =  -1661.88204931     A.U. after   24 cycles
 SCF Done:  E(RB3LYP) =  -1662.64148135     A.U. after   14 cycles
 SCF Done:  E(RB3LYP) =  -1662.67028396     A.U. after   13 cycles
 SCF Done:  E(RB3LYP) =  -1662.67294378     A.U. after   12 cycles
 SCF Done:  E(RB3LYP) =  -1662.67505137     A.U. after    9 cycles
 SCF Done:  E(RB3LYP) =  -1662.67711059     A.U. after   12 cycles
 SCF Done:  E(RB3LYP) =  -1662.67848815     A.U. after    9 cycles
 SCF Done:  E(RB3LYP) =  -1662.67848849     A.U. after    8 cycles
 SCF Done:  E(RB3LYP) =  -1662.67848989     A.U. after    9 cycles
 SCF Done:  E(RB3LYP) =  -1662.67848997     A.U. after    7 cycles
 SCF Done:  E(RB3LYP) =  -1662.67848991     A.U. after    6 cycles
 Optimization completed.
    -- Stationary point found.
 Normal termination of Gaussian 16 at Thu Dec 10 16:19:56 2020.

 --------------------------------------------------------------------
 #N Geom=AllCheck Guess=TCheck SCRF=Check GenChk RB3LYP/6-31G(d) Freq
 --------------------------------------------------------------------

 Structure from the checkpoint file:  "JID_5409.chk"
 ------------------------------
 CID_87439080_JID_5409_neutraal
 ------------------------------
 Charge =  0 Multiplicity = 1

 SCF Done:  E(RB3LYP) =  -1662.67848991     A.U. after    1 cycles

  Exact polarizability: 216.207 -28.598 183.821  -3.697  -6.784 136.921
 Approx polarizability: 317.555 -50.735 259.027 -11.844 -13.342 225.451

                      1                      2                      3
                      A                      A                      A
 Frequencies --     29.5898                32.9039                42.2920
 Red. masses --      4.9300                 7.9387                 3.6724
 Frc consts  --      0.0025                 0.0051                 0.0039
 IR Inten    --      1.0153                 0.3053                 1.0133

                      4                      5                      6
                      A                      A                      A
 Frequencies --     53.1558                76.8735                87.5756
 Red. masses --      5.0874                 4.5910                 3.2753
 Frc consts  --      0.0085                 0.0160                 0.0148
 IR Inten    --      0.2158                 2.1709                 0.9616

                      7                      8                      9
                      A                      A                      A
 Frequencies --    102.3002               105.0695               117.5993
 Red. masses --      4.2299                 3.5133                 2.9993
 Frc consts  --      0.0261                 0.0229                 0.0244
 IR Inten    --      0.8996                 1.4370                 0.1839

                     10                     11                     12
                      A                      A                      A
 Frequencies --    143.4344               195.1628               220.6815
 Red. masses --      3.4094                 3.1752                 2.1175
 Frc consts  --      0.0413                 0.0713                 0.0608
 IR Inten    --      6.7223                 0.1692                 1.5512

                     13                     14                     15
                      A                      A                      A
 Frequencies --    252.7870               273.0259               292.0659
 Red. masses --      2.6641                 3.2900                 4.1245
 Frc consts  --      0.1003                 0.1445                 0.2073
 IR Inten    --      0.7014                 0.1520                 0.2338

                     16                     17                     18
                      A                      A                      A
 Frequencies --    335.7357               380.2636               423.1576
 Red. masses --      3.1773                 3.8036                 3.9124
 Frc consts  --      0.2110                 0.3241                 0.4128
 IR Inten    --      4.9205                 1.2126                 3.7564

                     19                     20                     21
                      A                      A                      A
 Frequencies --    441.5650               453.3141               467.1606
 Red. masses --      2.6168                 2.8787                 4.3610
 Frc consts  --      0.3006                 0.3485                 0.5608
 IR Inten    --      0.4207                 2.1337                 3.4357

                     22                     23                     24
                      A                      A                      A
 Frequencies --    543.2212               552.0622               653.0883
 Red. masses --      4.9957                 4.1557                 4.3264
 Frc consts  --      0.8686                 0.7462                 1.0872
 IR Inten    --      3.1694                 7.5411                16.8391

                     25                     26                     27
                      A                      A                      A
 Frequencies --    679.9463               687.6890               712.1978
 Red. masses --      4.7683                 4.7143                 3.6013
 Frc consts  --      1.2989                 1.3136                 1.0762
 IR Inten    --      9.7308                 1.7304                 2.6567

                     28                     29                     30
                      A                      A                      A
 Frequencies --    723.1799               745.0416               826.4706
 Red. masses --      2.3300                 3.2269                 1.6275
 Frc consts  --      0.7180                 1.0554                 0.6550
 IR Inten    --      7.2705                10.8211                 0.9505

                     31                     32                     33
                      A                      A                      A
 Frequencies --    846.3079               851.8569               858.0816
 Red. masses --      1.5245                 1.5192                 1.7626
 Frc consts  --      0.6433                 0.6495                 0.7646
 IR Inten    --      3.8816                 2.4862                 1.7964

                     34                     35                     36
                      A                      A                      A
 Frequencies --    885.5521               924.8290               931.0452
 Red. masses --      1.8712                 1.8891                 1.7666
 Frc consts  --      0.8646                 0.9520                 0.9023
 IR Inten    --      1.3792                 5.9901                 2.1430

                     37                     38                     39
                      A                      A                      A
 Frequencies --    959.2432               979.1637               981.4904
 Red. masses --      1.8238                 2.2442                 2.3286
 Frc consts  --      0.9887                 1.2677                 1.3216
 IR Inten    --     13.6308                 0.0888                 0.2132

                     40                     41                     42
                      A                      A                      A
 Frequencies --   1005.0837              1005.9126              1012.2947
 Red. masses --      1.5143                 1.5615                 1.1667
 Frc consts  --      0.9013                 0.9309                 0.7044
 IR Inten    --      3.2352                 1.8907                53.8074

                     43                     44                     45
                      A                      A                      A
 Frequencies --   1020.7371              1076.5585              1081.9145
 Red. masses --      1.1393                 2.1011                 2.1353
 Frc consts  --      0.6994                 1.4347                 1.4726
 IR Inten    --      5.6261                 4.1771                 3.7509

                     46                     47                     48
                      A                      A                      A
 Frequencies --   1119.4818              1122.9937              1144.1565
 Red. masses --      1.5787                 1.6882                 2.2400
 Frc consts  --      1.1657                 1.2544                 1.7277
 IR Inten    --      1.2192                 3.0715                 5.7962

                     49                     50                     51
                      A                      A                      A
 Frequencies --   1150.2435              1181.3078              1189.9749
 Red. masses --      2.1394                 1.1595                 1.1356
 Frc consts  --      1.6677                 0.9534                 0.9474
 IR Inten    --      7.4995                 1.0089                22.5908

                     52                     53                     54
                      A                      A                      A
 Frequencies --   1217.6870              1220.7046              1241.6071
 Red. masses --      1.4439                 1.3964                 1.2991
 Frc consts  --      1.2614                 1.2259                 1.1800
 IR Inten    --      0.2648                 1.1033                 2.0381

                     55                     56                     57
                      A                      A                      A
 Frequencies --   1251.7034              1263.5505              1269.2432
 Red. masses --      1.3209                 1.2943                 1.2672
 Frc consts  --      1.2193                 1.2176                 1.2028
 IR Inten    --      4.8379                 9.5514                20.8406

                     58                     59                     60
                      A                      A                      A
 Frequencies --   1270.5341              1278.4919              1300.0682
 Red. masses --      1.2607                 1.2635                 1.2742
 Frc consts  --      1.1990                 1.2168                 1.2689
 IR Inten    --      4.9206                 2.0345                 2.7378

                     61                     62                     63
                      A                      A                      A
 Frequencies --   1304.4006              1334.4805              1336.9116
 Red. masses --      1.2682                 1.3362                 1.3196
 Frc consts  --      1.2713                 1.4020                 1.3897
 IR Inten    --      7.9284                 0.1525                 0.6936

                     64                     65                     66
                      A                      A                      A
 Frequencies --   1345.7738              1353.0446              1402.6504
 Red. masses --      1.2655                 1.2509                 1.4139
 Frc consts  --      1.3504                 1.3492                 1.6389
 IR Inten    --      0.9835                 1.7067                 1.5878

                     67                     68                     69
                      A                      A                      A
 Frequencies --   1404.8965              1487.9121              1493.3201
 Red. masses --      1.4153                 1.1040                 1.1114
 Frc consts  --      1.6459                 1.4400                 1.4603
 IR Inten    --     21.6996                 0.4648                14.3692

                     70                     71                     72
                      A                      A                      A
 Frequencies --   1511.4842              1514.8537              1530.5868
 Red. masses --      1.0818                 1.0799                 1.1114
 Frc consts  --      1.4561                 1.4601                 1.5340
 IR Inten    --      2.5886                 1.1189                 1.4900

                     73                     74                     75
                      A                      A                      A
 Frequencies --   1533.0620              1735.2522              1736.6578
 Red. masses --      1.1113                 5.8782                 5.8997
 Frc consts  --      1.5389                10.4284                10.4835
 IR Inten    --      2.6504                 0.8038                 1.3938

                     76                     77                     78
                      A                      A                      A
 Frequencies --   3057.5545              3063.5273              3065.0650
 Red. masses --      1.0606                 1.0610                 1.0598
 Frc consts  --      5.8420                 5.8666                 5.8663
 IR Inten    --     28.9368                 7.8903                17.5168

                     79                     80                     81
                      A                      A                      A
 Frequencies --   3067.0473              3082.5145              3086.9052
 Red. masses --      1.0587                 1.0866                 1.0595
 Frc consts  --      5.8675                 6.0830                 5.9483
 IR Inten    --     40.2115                14.1331                47.1793

                     82                     83                     84
                      A                      A                      A
 Frequencies --   3088.2936              3091.3879              3115.0898
 Red. masses --      1.0871                 1.0597                 1.1038
 Frc consts  --      6.1091                 5.9667                 6.3107
 IR Inten    --      6.7884                44.7753                14.4910

                     85                     86                     87
                      A                      A                      A
 Frequencies --   3116.8758              3119.5101              3119.8469
 Red. masses --      1.1048                 1.1038                 1.1032
 Frc consts  --      6.3237                 6.3289                 6.3264
 IR Inten    --     31.5678                 3.8107                 4.2519

                     88                     89                     90
                      A                      A                      A
 Frequencies --   3147.3922              3151.5108              3158.2744
 Red. masses --      1.1096                 1.1100                 1.0917
 Frc consts  --      6.4763                 6.4955                 6.4158
 IR Inten    --     16.6250                16.3094                 8.2106

                     91                     92                     93
                      A                      A                      A
 Frequencies --   3160.3149              3165.5354              3169.5005
 Red. masses --      1.0926                 1.0858                 1.0870
 Frc consts  --      6.4292                 6.4106                 6.4339
 IR Inten    --      0.7643                37.2636                 7.0148

 - Thermochemistry -
 -------------------
 Temperature   298.150 Kelvin.  Pressure   1.00000 Atm.
 Atom     1 has atomic number  6 and mass  12.00000

 Molecular mass:   258.05707 amu.
 Principal axes and moments of inertia in atomic units:
                           1         2         3
     Eigenvalues --  4792.458165398.365949032.69570
           X            0.99993  -0.00478   0.01081
           Y            0.00483   0.99998  -0.00480
           Z           -0.01078   0.00485   0.99993
 This molecule is an asymmetric top.
 Rotational symmetry number  1.
 Warning -- assumption of classical behavior for rotation
           may cause significant error
 Rotational temperatures (Kelvin)      0.01807     0.01604     0.00959
 Rotational constants (GHZ):           0.37658     0.33431     0.19980
 Zero-point vibrational energy     725785.5 (Joules/Mol)
                                  173.46690 (Kcal/Mol)
 Warning -- explicit consideration of  23 degrees of freedom as
           vibrations may cause significant error
 Vibrational temperatures:     42.57    47.34    60.85    76.48   110.60
          (Kelvin)            126.00   147.19   151.17   169.20   206.37
                              280.80   317.51   363.70   392.82   420.22
                              483.05   547.11   608.83   635.31   652.22
                              672.14   781.57   794.29   939.65   978.29
                              989.43  1024.69  1040.49  1071.95  1189.11
                             1217.65  1225.63  1234.59  1274.11  1330.62
                             1339.57  1380.14  1408.80  1412.15  1446.09
                             1447.28  1456.47  1468.61  1548.93  1556.63
                             1610.68  1615.74  1646.19  1654.94  1699.64
                             1712.11  1751.98  1756.32  1786.40  1800.92
                             1817.97  1826.16  1828.02  1839.46  1870.51
                             1876.74  1920.02  1923.52  1936.27  1946.73
                             2018.10  2021.33  2140.77  2148.55  2174.69
                             2179.54  2202.17  2205.73  2496.64  2498.66
                             4399.14  4407.73  4409.94  4412.80  4435.05
                             4441.37  4443.37  4447.82  4481.92  4484.49
                             4488.28  4488.76  4528.40  4534.32  4544.05
                             4546.99  4554.50  4560.20

 Zero-point correction=                           0.276437 (Hartree/Particle)
 Thermal correction to Energy=                    0.293426
 Thermal correction to Enthalpy=                  0.294370
 Thermal correction to Gibbs Free Energy=         0.228749
 Sum of electronic and zero-point Energies=          -1662.402053
 Sum of electronic and thermal Energies=             -1662.385064
 Sum of electronic and thermal Enthalpies=           -1662.384119
 Sum of electronic and thermal Free Energies=        -1662.449741

                     E (Thermal)             CV                S
                      KCal/Mol        Cal/Mol-Kelvin    Cal/Mol-Kelvin
 Total                  184.128             61.617            138.112
 Electronic               0.000              0.000              0.000
 Translational            0.889              2.981             42.544
 Rotational               0.889              2.981             33.813
 Vibrational            182.350             55.655             61.756
 Vibration     1          0.593              1.984              5.857
 Vibration     2          0.594              1.983              5.646
 Vibration     3          0.595              1.980              5.149
 Vibration     4          0.596              1.976              4.696
 Vibration     5          0.599              1.965              3.969
 Vibration     6          0.601              1.958              3.714
 Vibration     7          0.604              1.947              3.410
 Vibration     8          0.605              1.945              3.358
 Vibration     9          0.608              1.935              3.139
 Vibration    10          0.616              1.910              2.758
 Vibration    11          0.636              1.847              2.178
 Vibration    12          0.647              1.810              1.953
 Vibration    13          0.664              1.758              1.711
 Vibration    14          0.676              1.723              1.577
 Vibration    15          0.687              1.689              1.462
 Vibration    16          0.717              1.604              1.232
 Vibration    17          0.750              1.512              1.038
 Vibration    18          0.785              1.420              0.881
 Vibration    19          0.801              1.379              0.822
 Vibration    20          0.812              1.354              0.786
 Vibration    21          0.824              1.323              0.746
 Vibration    22          0.898              1.155              0.558
 Vibration    23          0.907              1.135              0.540

                           ! Non-Optimized Parameters !
 Normal termination of Gaussian 16 at Thu Dec 10 16:32:37 2020.

 ----------------------------------------------------------------------
 # B3LYP/6-311++G(d,p) empiricaldispersion=gd3bj scf=xqc pop=npa geom=c
 heck
 ----------------------------------------------------------------------

 --------------------------------------
 CID_87439080_JID_5409_Energie_neutraal
 --------------------------------------
 Structure from the checkpoint file:  "JID_5409.chk"
 Charge =  0 Multiplicity = 1

 SCF Done:  E(RB3LYP) =  -1662.88487328     A.U. after   15 cycles
 Normal termination of Gaussian 16 at Thu Dec 10 16:38:40 2020.

 ----------------------------------------------------------------------
 # B3LYP/6-311++G(d,p) empiricaldispersion=gd3bj scf=xqc pop=npa geom=c
 heck
 ----------------------------------------------------------------------

 ------------------------------------
 CID_87439080_JID_5409_Energie_kation
 ------------------------------------
 Structure from the checkpoint file:  "JID_5409.chk"
 Charge =  1 Multiplicity = 2

 SCF Done:  E(UB3LYP) =  -1662.60350506     A.U. after   28 cycles
 Normal termination of Gaussian 16 at Thu Dec 10 16:53:57 2020.
 Gaussian 16:  ES64L-G16RevA.03 25-Dec-2016

 ----------------------------------------------------------------------
 # B3LYP/6-311++G(d,p) empiricaldispersion=gd3bj scf=xqc pop=npa geom=c
 heck
 ----------------------------------------------------------------------

 -----------------------------------
 CID_87439080_JID_5409_Energie_anion
 -----------------------------------
 Structure from the checkpoint file:  "JID_5409.chk"
 Charge = -1 Multiplicity = 2

                         Standard orientation:
 ---------------------------------------------------------------------
 Center     Atomic      Atomic             Coordinates (Angstroms)
 Number     Number       Type             X           Y           Z
 ---------------------------------------------------------------------
      1          6           0        2.327742    0.446059    1.195826
      2          6           0        1.755686    1.686172    0.461651
      3         16           0        3.353013    1.835770   -0.528304
      4          6           0        3.810278    0.678137    0.850650
      5          6           0        0.518974    1.485691   -0.332248
      6          6           0       -0.525010    2.322145   -0.343428
      7          6           0       -1.768593    2.071512   -1.133942
      8         16           0       -3.296490    2.048009   -0.096290
      9          6           0       -2.863482    0.734496    1.125176
     10          6           0       -2.565570   -0.582377    0.484590
     11          6           0       -1.393971   -1.215185    0.612414
     12          6           0       -1.050595   -2.501817   -0.038716
     13         16           0        0.444616   -2.446962   -1.191575
     14          6           0        0.697793   -4.014601   -0.226656
     15          6           0       -0.347129   -3.583703    0.818666
     16          1           0        1.961641   -0.465567    0.713010
     17          1           0        2.088764    0.398127    2.264887
     18          1           0        1.664883    2.555548    1.120182
     19          1           0        4.370731    1.198164    1.632386
     20          1           0        4.369917   -0.200554    0.523689
     21          1           0        0.494536    0.582176   -0.940140
     22          1           0       -0.507047    3.229288    0.260678
     23          1           0       -1.961316    2.879676   -1.849366
     24          1           0       -1.692751    1.134628   -1.692970
     25          1           0       -2.020497    1.070480    1.735674
     26          1           0       -3.749833    0.678588    1.767714
     27          1           0       -3.352490   -1.010294   -0.136220
     28          1           0       -0.605938   -0.764726    1.214894
     29          1           0       -1.905177   -2.904975   -0.590175
     30          1           0        1.717871   -4.153011    0.136725
     31          1           0        0.398528   -4.886834   -0.813752
     32          1           0        0.141171   -3.113824    1.678414
     33          1           0       -1.007952   -4.375143    1.189191
 ---------------------------------------------------------------------

 SCF Done:  E(UB3LYP) =  -1662.87669443     A.U. after   33 cycles
 SCF Done:  E(UB3LYP) =  -1662.87669443     a.u. after    2 cycles

 The electronic state is 2-A.
 Alpha  occ. eigenvalues --  -88.75116 -88.72495 -88.71997 -10.11606 -10.11276
 Alpha  occ. eigenvalues --  -10.10299 -10.10025 -10.08893 -10.08438 -10.08347
 Alpha  occ. eigenvalues --  -10.08029 -10.07969 -10.07915 -10.07596 -10.07454
 Alpha  occ. eigenvalues --   -7.83718  -7.81069  -7.80548  -5.80109  -5.79757
 Alpha  occ. eigenvalues --   -5.79090  -5.77412  -5.77181  -5.76887  -5.76663
 Alpha  occ. eigenvalues --   -5.76436  -5.75931  -0.75344  -0.74962  -0.73295
 Alpha  occ. eigenvalues --   -0.70178  -0.66472  -0.62509  -0.57853  -0.56716
 Alpha  occ. eigenvalues --   -0.56582  -0.55193  -0.50971  -0.47394  -0.46616
 Alpha  occ. eigenvalues --   -0.45039  -0.44934  -0.38997  -0.38718  -0.36603
 Alpha  occ. eigenvalues --   -0.36346  -0.35045  -0.34568  -0.33995  -0.33136
 Alpha  occ. eigenvalues --   -0.30799  -0.30345  -0.29714  -0.28954  -0.28285
 Alpha  occ. eigenvalues --   -0.26965  -0.26617  -0.25524  -0.25236  -0.24016
 Alpha  occ. eigenvalues --   -0.22797  -0.21952  -0.19755  -0.19552  -0.15994
 Alpha  occ. eigenvalues --   -0.15596  -0.13866  -0.11750  -0.11274   0.04426
 Alpha virt. eigenvalues --    0.06102   0.06661   0.07039   0.07267   0.07799
 Alpha virt. eigenvalues --    0.08037   0.08782   0.09566   0.10004   0.10328
 Alpha virt. eigenvalues --    0.10424   0.10780   0.11573   0.12031   0.12276

  Beta  occ. eigenvalues --  -88.75106 -88.72465 -88.71951 -10.11603 -10.11267
  Beta  occ. eigenvalues --  -10.10255 -10.09940 -10.08822 -10.08323 -10.08316
  Beta  occ. eigenvalues --  -10.07994 -10.07962 -10.07882 -10.07592 -10.07421
  Beta  occ. eigenvalues --   -7.83709  -7.81041  -7.80506  -5.80077  -5.79753
  Beta  occ. eigenvalues --   -5.79084  -5.77320  -5.77166  -5.76740  -5.76643
  Beta  occ. eigenvalues --   -5.76417  -5.75905  -0.75231  -0.74831  -0.73223
  Beta  occ. eigenvalues --   -0.70099  -0.66387  -0.62419  -0.57722  -0.56572
  Beta  occ. eigenvalues --   -0.56405  -0.55080  -0.50882  -0.47298  -0.46546
  Beta  occ. eigenvalues --   -0.44927  -0.44842  -0.38940  -0.38673  -0.36458
  Beta  occ. eigenvalues --   -0.36227  -0.34971  -0.34501  -0.33916  -0.33056
  Beta  occ. eigenvalues --   -0.30737  -0.30294  -0.29578  -0.28734  -0.28118
  Beta  occ. eigenvalues --   -0.26909  -0.26573  -0.25470  -0.25198  -0.23906
  Beta  occ. eigenvalues --   -0.22583  -0.21816  -0.19585  -0.19311  -0.15803
  Beta  occ. eigenvalues --   -0.15429  -0.13774  -0.11652  -0.11152
  Beta virt. eigenvalues --    0.06377   0.07067   0.07103   0.07364   0.07516
  Beta virt. eigenvalues --    0.07869   0.08385   0.09072   0.09659   0.10136
  Beta virt. eigenvalues --    0.10641   0.10740   0.11053   0.11772   0.12315

 Mulliken charges and spin densities:
               1          2
     1  C   -1.037979   0.596255
     2  C    0.536833   0.089703
     3  S   -0.242678   0.163891
     4  C    0.459272  -1.147673
     5  C   -0.427769  -0.013476
     6  C   -0.326933   0.048349
     7  C   -0.265836  -0.023451
     8  S   -0.056425   0.053335
     9  C   -0.182265  -0.012438
    10  C   -0.420059   0.121466
    11  C   -0.371739   0.034862
    12  C    0.236953  -0.076633
    13  S   -0.144189   0.310259
    14  C    0.715117  -1.366320
    15  C   -0.592949   0.185014
    16  H    0.806591  -0.702192
    17  H   -0.058357   0.191121
    18  H    0.301020   0.000486
    19  H   -0.134785   0.318516
    20  H   -0.452995   0.673505
    21  H    0.085424  -0.015461
    22  H    0.127230   0.003892
    23  H    0.201363   0.016852
    24  H    0.166903   0.036592
    25  H    0.192363   0.000340
    26  H    0.207950   0.012013
    27  H    0.133280  -0.002487
    28  H    0.104544  -0.004514
    29  H    0.273951   0.015035
    30  H   -0.579722   0.792775
    31  H   -0.253284   0.428839
    32  H    0.029388   0.111621
    33  H   -0.030217   0.159924
 Sum of Mulliken charges =  -1.00000   1.00000

 Dipole moment (field-independent basis, Debye):
    X=             -8.3008    Y=              5.2669    Z=              1.8629  Tot=             10.0057
 Quadrupole moment (field-independent basis, Debye-Ang):
   XX=           -184.2156   YY=           -182.3205   ZZ=           -136.4678
   XY=             11.9157   XZ=             -0.8277   YZ=             -1.3158

 Summary of Natural Population Analysis:

                                       Natural Population
                Natural  -----------------------------------------------
    Atom  No    Charge         Core      Valence    Rydberg      Total
 -----------------------------------------------------------------------
      C    1   -0.20120      0.99961     2.19043    0.01115     3.20120
      C    2   -0.15207      0.99956     2.13877    0.01374     3.15207
      S    3    0.07921      4.99966     2.90448    0.01665     7.92079
      C    4   -0.22877      0.99963     2.21892    0.01022     3.22877
      C    5   -0.08984      0.99948     2.07795    0.01241     3.08984
      C    6   -0.09764      0.99951     2.08843    0.00970     3.09764
      C    7   -0.25927      0.99957     2.24950    0.01020     3.25927
      S    8    0.07756      4.99965     2.90315    0.01964     7.92244
      C    9   -0.25892      0.99957     2.25053    0.00882     3.25892
      C   10   -0.09681      0.99951     2.08803    0.00927     3.09681
      C   11   -0.08896      0.99949     2.07681    0.01266     3.08896
      C   12   -0.15120      0.99956     2.13808    0.01356     3.15120
      S   13    0.09032      4.99966     2.89223    0.01779     7.90968
      C   14   -0.22759      0.99963     2.21705    0.01090     3.22759
      C   15   -0.19285      0.99962     2.18250    0.01074     3.19285
      H   16    0.11233      0.00000     0.38576    0.00191     0.38767
      H   17    0.09492      0.00000     0.40386    0.00123     0.40508
      H   18    0.09344      0.00000     0.40476    0.00181     0.40656
      H   19    0.09355      0.00000     0.40485    0.00160     0.40645
      H   20    0.10341      0.00000     0.39438    0.00221     0.39659
      H   21    0.10392      0.00000     0.39474    0.00134     0.39608
      H   22    0.09275      0.00000     0.40619    0.00106     0.40725
      H   23    0.10699      0.00000     0.39161    0.00139     0.39301
      H   24    0.10729      0.00000     0.39112    0.00159     0.39271
      H   25    0.10544      0.00000     0.39326    0.00130     0.39456
      H   26    0.10600      0.00000     0.39288    0.00111     0.39400
      H   27    0.09384      0.00000     0.40512    0.00105     0.40616
      H   28    0.09547      0.00000     0.40261    0.00193     0.40453
      H   29    0.09348      0.00000     0.40461    0.00190     0.40652
      H   30    0.10337      0.00000     0.39324    0.00339     0.39663
      H   31    0.09497      0.00000     0.40320    0.00183     0.40503
      H   32    0.10005      0.00000     0.39860    0.00134     0.39995
      H   33    0.09682      0.00000     0.40210    0.00109     0.40318
 =======================================================================
   * Total *   -0.00000     26.99372    41.78976    0.21652    69.00000

 Normal termination of Gaussian 16 at Thu Dec 10 17:39:08 2020.
