 Gaussian 16, Revision A.03,

 -----------------------------------------------------------
 # opt freq B3LYP/6-31G(d) empiricaldispersion=gd3bj scf=xqc
 -----------------------------------------------------------

 --------------------------------
 CID_117165690_JID_10803_neutraal
 --------------------------------
 Symbolic Z-matrix:
 Charge =  0 Multiplicity = 1

 SCF Done:  E(RB3LYP) =  -1257.87369621     A.U. after   15 cycles
 SCF Done:  E(RB3LYP) =  -1257.87959713     A.U. after   12 cycles
 SCF Done:  E(RB3LYP) =  -1257.88006049     A.U. after   12 cycles
 SCF Done:  E(RB3LYP) =  -1257.88015992     A.U. after   11 cycles
 SCF Done:  E(RB3LYP) =  -1257.88029517     A.U. after   11 cycles
 SCF Done:  E(RB3LYP) =  -1257.88030715     A.U. after   10 cycles
 SCF Done:  E(RB3LYP) =  -1257.88031641     A.U. after   10 cycles
 SCF Done:  E(RB3LYP) =  -1257.88032248     A.U. after   10 cycles
 SCF Done:  E(RB3LYP) =  -1257.88033253     A.U. after   10 cycles
 SCF Done:  E(RB3LYP) =  -1257.88036997     A.U. after   12 cycles
 SCF Done:  E(RB3LYP) =  -1257.88049573     A.U. after   10 cycles
 SCF Done:  E(RB3LYP) =  -1257.88049677     A.U. after    9 cycles
 SCF Done:  E(RB3LYP) =  -1257.88049783     A.U. after    8 cycles
 SCF Done:  E(RB3LYP) =  -1257.88049842     A.U. after    8 cycles
 SCF Done:  E(RB3LYP) =  -1257.88049857     A.U. after    7 cycles
 SCF Done:  E(RB3LYP) =  -1257.88049861     A.U. after    6 cycles
 Optimization completed.
    -- Stationary point found.
 Normal termination of Gaussian 16 at Sun Dec 13 13:37:52 2020.

 --------------------------------------------------------------------
 #N Geom=AllCheck Guess=TCheck SCRF=Check GenChk RB3LYP/6-31G(d) Freq
 --------------------------------------------------------------------

 Structure from the checkpoint file:  "JID_10803.chk"
 --------------------------------
 CID_117165690_JID_10803_neutraal
 --------------------------------
 Charge =  0 Multiplicity = 1

 SCF Done:  E(RB3LYP) =  -1257.88049861     A.U. after    1 cycles

  Exact polarizability: 217.322  21.399 205.831   5.260 -10.428 127.889
 Approx polarizability: 312.915  28.177 330.124   8.021 -29.538 197.962

                      1                      2                      3
                      A                      A                      A
 Frequencies --     24.1222                37.6619                60.7152
 Red. masses --      3.4149                 5.0298                 4.7120
 Frc consts  --      0.0012                 0.0042                 0.0102
 IR Inten    --      0.9893                 1.3442                 0.3880

                      4                      5                      6
                      A                      A                      A
 Frequencies --     62.7140                78.2408               133.5529
 Red. masses --      5.7713                 3.3347                 3.6044
 Frc consts  --      0.0134                 0.0120                 0.0379
 IR Inten    --      0.7448                 0.2814                 3.0166

                      7                      8                      9
                      A                      A                      A
 Frequencies --    141.5657               160.6237               176.3982
 Red. masses --      2.1852                 3.1506                 3.7199
 Frc consts  --      0.0258                 0.0479                 0.0682
 IR Inten    --      0.3716                 1.3285                 2.0902

                     10                     11                     12
                      A                      A                      A
 Frequencies --    190.0898               213.6420               247.6437
 Red. masses --      4.3437                 2.9281                 2.3311
 Frc consts  --      0.0925                 0.0787                 0.0842
 IR Inten    --      5.4931                 5.4086                 2.2492

                     13                     14                     15
                      A                      A                      A
 Frequencies --    262.1697               266.9809               300.8501
 Red. masses --      2.2932                 3.3103                 2.5763
 Frc consts  --      0.0929                 0.1390                 0.1374
 IR Inten    --      1.9513                 0.3308                 1.5688

                     16                     17                     18
                      A                      A                      A
 Frequencies --    321.5075               326.6835               377.0165
 Red. masses --      4.9177                 2.3597                 3.3545
 Frc consts  --      0.2995                 0.1484                 0.2809
 IR Inten    --      0.7469                 4.3194                 2.2052

                     19                     20                     21
                      A                      A                      A
 Frequencies --    392.4015               422.9751               430.4427
 Red. masses --      4.7897                 2.6177                 3.3370
 Frc consts  --      0.4345                 0.2759                 0.3643
 IR Inten    --      8.7402                 2.4521                10.9885

                     22                     23                     24
                      A                      A                      A
 Frequencies --    439.9539               448.2902               473.8853
 Red. masses --      3.3101                 4.0893                 3.1272
 Frc consts  --      0.3775                 0.4842                 0.4138
 IR Inten    --     10.7780                 1.0320                19.0291

                     25                     26                     27
                      A                      A                      A
 Frequencies --    510.3983               521.7491               605.2534
 Red. masses --      4.7693                 5.0659                 4.1047
 Frc consts  --      0.7320                 0.8125                 0.8859
 IR Inten    --     12.1713                25.7233                 1.3939

                     28                     29                     30
                      A                      A                      A
 Frequencies --    628.4840               648.3163               663.4799
 Red. masses --      4.0365                 6.3786                 4.9698
 Frc consts  --      0.9394                 1.5796                 1.2890
 IR Inten    --      2.2433                 5.1765                 7.1354

                     31                     32                     33
                      A                      A                      A
 Frequencies --    673.8129               684.9437               739.6285
 Red. masses --      3.5189                 3.4715                 3.0879
 Frc consts  --      0.9413                 0.9596                 0.9953
 IR Inten    --      5.0483                 6.4709                 8.4102

                     34                     35                     36
                      A                      A                      A
 Frequencies --    786.9338               801.7074               815.9355
 Red. masses --      2.4811                 1.5746                 1.9938
 Frc consts  --      0.9053                 0.5963                 0.7821
 IR Inten    --     19.6872                11.3117                17.3755

                     37                     38                     39
                      A                      A                      A
 Frequencies --    840.4854               848.7362               862.9609
 Red. masses --      2.8468                 3.5842                 1.4218
 Frc consts  --      1.1849                 1.5212                 0.6238
 IR Inten    --     27.7594                13.0021                 8.0994

                     40                     41                     42
                      A                      A                      A
 Frequencies --    879.7137               883.2223               905.2051
 Red. masses --      2.7143                 2.1552                 3.4830
 Frc consts  --      1.2376                 0.9906                 1.6815
 IR Inten    --      0.8125                20.6284                 3.5432

                     43                     44                     45
                      A                      A                      A
 Frequencies --    916.5594               945.0623               947.6375
 Red. masses --      1.7347                 2.5917                 1.3852
 Frc consts  --      0.8586                 1.3638                 0.7329
 IR Inten    --      4.2392                 8.6190                 0.2045

                     46                     47                     48
                      A                      A                      A
 Frequencies --    966.4742               973.9042               977.0751
 Red. masses --      2.2576                 2.5834                 1.3057
 Frc consts  --      1.2424                 1.4437                 0.7344
 IR Inten    --     18.0772                14.8953                 0.9525

                     49                     50                     51
                      A                      A                      A
 Frequencies --   1054.2311              1063.9038              1068.7536
 Red. masses --      1.9597                 2.1178                 1.9641
 Frc consts  --      1.2832                 1.4124                 1.3218
 IR Inten    --      1.1142                 0.6028                 2.3244

                     52                     53                     54
                      A                      A                      A
 Frequencies --   1079.5470              1107.7141              1108.7770
 Red. masses --      2.1484                 1.2199                 1.7463
 Frc consts  --      1.4752                 0.8819                 1.2649
 IR Inten    --     62.1992                 3.6179                 9.1930

                     55                     56                     57
                      A                      A                      A
 Frequencies --   1124.4136              1128.2223              1132.4171
 Red. masses --      2.4981                 2.2956                 2.3838
 Frc consts  --      1.8608                 1.7216                 1.8011
 IR Inten    --     36.7899                51.3467                24.0302

                     58                     59                     60
                      A                      A                      A
 Frequencies --   1139.5065              1185.4714              1220.2363
 Red. masses --      1.6473                 3.0468                 1.7439
 Frc consts  --      1.2602                 2.5228                 1.5299
 IR Inten    --      6.5082                 6.4569                13.7804

                     61                     62                     63
                      A                      A                      A
 Frequencies --   1227.5343              1247.9483              1270.4094
 Red. masses --      1.3968                 1.8034                 1.4781
 Frc consts  --      1.2401                 1.6548                 1.4055
 IR Inten    --     14.0573                14.6431                 4.0252

                     64                     65                     66
                      A                      A                      A
 Frequencies --   1280.3661              1299.3065              1306.1308
 Red. masses --      1.6297                 1.5845                 1.5820
 Frc consts  --      1.5741                 1.5760                 1.5902
 IR Inten    --     10.8411                38.3263                41.3860

                     67                     68                     69
                      A                      A                      A
 Frequencies --   1314.7506              1321.4681              1328.9366
 Red. masses --      2.0945                 2.2871                 1.8561
 Frc consts  --      2.1331                 2.3531                 1.9313
 IR Inten    --    116.2967                15.8440                44.9508

                     70                     71                     72
                      A                      A                      A
 Frequencies --   1347.5446              1369.4580              1381.0357
 Red. masses --      1.7003                 2.6188                 1.4440
 Frc consts  --      1.8191                 2.8937                 1.6226
 IR Inten    --     40.1163                 2.2267                19.2614

                     73                     74                     75
                      A                      A                      A
 Frequencies --   1393.3557              1397.5435              1403.8182
 Red. masses --      1.7542                 1.5641                 1.4297
 Frc consts  --      2.0066                 1.7999                 1.6601
 IR Inten    --      1.7224                 6.4291                18.5242

                     76                     77                     78
                      A                      A                      A
 Frequencies --   1416.0556              1427.3275              1441.3724
 Red. masses --      1.3773                 1.9938                 1.3165
 Frc consts  --      1.6272                 2.3932                 1.6115
 IR Inten    --      2.8640                38.3464                 6.7179

                     79                     80                     81
                      A                      A                      A
 Frequencies --   1454.3899              1468.9916              1481.0204
 Red. masses --      2.4511                 1.8416                 1.1381
 Frc consts  --      3.0548                 2.3415                 1.4708
 IR Inten    --    104.6258                88.9382                17.1184

                     82                     83                     84
                      A                      A                      A
 Frequencies --   1488.2683              1508.0431              1513.2022
 Red. masses --      1.1021                 1.1627                 1.0850
 Frc consts  --      1.4382                 1.5579                 1.4637
 IR Inten    --      5.8074                 0.8786                 4.1949

                     85                     86                     87
                      A                      A                      A
 Frequencies --   1514.5666              1521.2498              1528.9933
 Red. masses --      1.0836                 1.1094                 1.0818
 Frc consts  --      1.4645                 1.5127                 1.4901
 IR Inten    --     10.0553                 4.4045                 3.7197

                     88                     89                     90
                      A                      A                      A
 Frequencies --   1530.0161              1540.9779              1557.9972
 Red. masses --      2.6266                 1.0629                 5.5085
 Frc consts  --      3.6227                 1.4870                 7.8781
 IR Inten    --      1.3268                 7.7524                45.0573

                     91                     92                     93
                      A                      A                      A
 Frequencies --   1640.3905              1659.1264              3029.1614
 Red. masses --      7.6282                 7.3364                 1.0675
 Frc consts  --     12.0939                11.8985                 5.7712
 IR Inten    --      7.9840                43.2600                23.8712

                     94                     95                     96
                      A                      A                      A
 Frequencies --   3044.8598              3053.4083              3060.2283
 Red. masses --      1.0412                 1.0676                 1.0665
 Frc consts  --      5.6875                 5.8647                 5.8844
 IR Inten    --     24.8920                18.8326                45.6257

                     97                     98                     99
                      A                      A                      A
 Frequencies --   3069.5405              3083.0576              3083.7084
 Red. masses --      1.0615                 1.0618                 1.0899
 Frc consts  --      5.8928                 5.9466                 6.1065
 IR Inten    --     18.5504                 4.0807                19.0841

                    100                    101                    102
                      A                      A                      A
 Frequencies --   3095.0059              3103.9624              3104.7905
 Red. masses --      1.0819                 1.0936                 1.0642
 Frc consts  --      6.1060                 6.2079                 6.0442
 IR Inten    --     12.7086                11.9466                 1.4446

                    103                    104                    105
                      A                      A                      A
 Frequencies --   3109.5517              3117.6332              3122.6161
 Red. masses --      1.0988                 1.1014                 1.0981
 Frc consts  --      6.2599                 6.3073                 6.3086
 IR Inten    --      9.0686                12.2803                37.1194

                    106                    107                    108
                      A                      A                      A
 Frequencies --   3137.2608              3145.1601              3167.1411
 Red. masses --      1.1021                 1.1065                 1.1065
 Frc consts  --      6.3908                 6.4491                 6.5391
 IR Inten    --     38.3388                 3.5748                 1.6821

                    109                    110                    111
                      A                      A                      A
 Frequencies --   3187.4161              3208.4322              3222.5621
 Red. masses --      1.0887                 1.0901                 1.0964
 Frc consts  --      6.5168                 6.6117                 6.7087
 IR Inten    --     14.0680                13.5474                19.6242

 - Thermochemistry -
 -------------------
 Temperature   298.150 Kelvin.  Pressure   1.00000 Atm.
 Atom     1 has atomic number  6 and mass  12.00000

 Molecular mass:   293.11980 amu.
 Principal axes and moments of inertia in atomic units:
                           1         2         3
     Eigenvalues --  4109.916248222.36412**********
           X            0.99993  -0.00590   0.00990
           Y            0.00586   0.99998   0.00392
           Z           -0.00992  -0.00386   0.99994
 This molecule is an asymmetric top.
 Rotational symmetry number  1.
 Warning -- assumption of classical behavior for rotation
           may cause significant error
 Rotational temperatures (Kelvin)      0.02107     0.01053     0.00809
 Rotational constants (GHZ):           0.43912     0.21949     0.16861
 Zero-point vibrational energy     856275.5 (Joules/Mol)
                                  204.65477 (Kcal/Mol)
 Warning -- explicit consideration of  27 degrees of freedom as
           vibrations may cause significant error
 Vibrational temperatures:     34.71    54.19    87.36    90.23   112.57
          (Kelvin)            192.15   203.68   231.10   253.80   273.50
                              307.38   356.30   377.20   384.13   432.86
                              462.58   470.02   542.44   564.58   608.57
                              619.31   633.00   644.99   681.82   734.35
                              750.68   870.82   904.25   932.78   954.60
                              969.47   985.48  1064.16  1132.22  1153.48
                             1173.95  1209.27  1221.14  1241.61  1265.71
                             1270.76  1302.39  1318.72  1359.73  1363.44
                             1390.54  1401.23  1405.79  1516.80  1530.72
                             1537.70  1553.23  1593.75  1595.28  1617.78
                             1623.26  1629.30  1639.50  1705.63  1755.65
                             1766.15  1795.52  1827.84  1842.16  1869.41
                             1879.23  1891.63  1901.30  1912.04  1938.82
                             1970.34  1987.00  2004.73  2010.75  2019.78
                             2037.39  2053.61  2073.81  2092.54  2113.55
                             2130.86  2141.29  2169.74  2177.16  2179.12
                             2188.74  2199.88  2201.35  2217.12  2241.61
                             2360.16  2387.11  4358.29  4380.87  4393.17
                             4402.99  4416.38  4435.83  4436.77  4453.02
                             4465.91  4467.10  4473.95  4485.58  4492.75
                             4513.82  4525.18  4556.81  4585.98  4616.22
                             4636.55

 Zero-point correction=                           0.326138 (Hartree/Particle)
 Thermal correction to Energy=                    0.344127
 Thermal correction to Enthalpy=                  0.345071
 Thermal correction to Gibbs Free Energy=         0.279137
 Sum of electronic and zero-point Energies=          -1257.554360
 Sum of electronic and thermal Energies=             -1257.536372
 Sum of electronic and thermal Enthalpies=           -1257.535428
 Sum of electronic and thermal Free Energies=        -1257.601361

                     E (Thermal)             CV                S
                      KCal/Mol        Cal/Mol-Kelvin    Cal/Mol-Kelvin
 Total                  215.943             70.222            138.769
 Electronic               0.000              0.000              0.000
 Translational            0.889              2.981             42.924
 Rotational               0.889              2.981             34.247
 Vibrational            214.165             64.261             61.599
 Vibration     1          0.593              1.985              6.262
 Vibration     2          0.594              1.982              5.378
 Vibration     3          0.597              1.973              4.434
 Vibration     4          0.597              1.972              4.370
 Vibration     5          0.600              1.964              3.935
 Vibration     6          0.613              1.920              2.894
 Vibration     7          0.615              1.912              2.783
 Vibration     8          0.622              1.891              2.542
 Vibration     9          0.628              1.871              2.366
 Vibration    10          0.633              1.854              2.227
 Vibration    11          0.644              1.820              2.012
 Vibration    12          0.661              1.767              1.747
 Vibration    13          0.669              1.742              1.647
 Vibration    14          0.672              1.734              1.616
 Vibration    15          0.693              1.672              1.412
 Vibration    16          0.707              1.632              1.302
 Vibration    17          0.710              1.622              1.276
 Vibration    18          0.748              1.519              1.051
 Vibration    19          0.760              1.486              0.991
 Vibration    20          0.785              1.420              0.882
 Vibration    21          0.792              1.404              0.857
 Vibration    22          0.800              1.383              0.827
 Vibration    23          0.807              1.365              0.801
 Vibration    24          0.831              1.308              0.727
 Vibration    25          0.866              1.227              0.633
 Vibration    26          0.877              1.202              0.606
 Vibration    27          0.964              1.021              0.441

 Optimization completed.
    -- Stationary point found.
 Normal termination of Gaussian 16 at Sun Dec 13 13:59:53 2020.

 ----------------------------------------------------------------------
 # B3LYP/6-311++G(d,p) empiricaldispersion=gd3bj scf=xqc pop=npa geom=c
 heck
 ----------------------------------------------------------------------

 ----------------------------------------
 CID_117165690_JID_10803_Energie_neutraal
 ----------------------------------------
 Structure from the checkpoint file:  "JID_10803.chk"
 Charge =  0 Multiplicity = 1

 SCF Done:  E(RB3LYP) =  -1258.13509184     A.U. after   16 cycles
 Normal termination of Gaussian 16 at Sun Dec 13 14:10:55 2020.

 ----------------------------------------------------------------------
 # B3LYP/6-311++G(d,p) empiricaldispersion=gd3bj scf=xqc pop=npa geom=c
 heck
 ----------------------------------------------------------------------

 --------------------------------------
 CID_117165690_JID_10803_Energie_kation
 --------------------------------------
 Structure from the checkpoint file:  "JID_10803.chk"
 Charge =  1 Multiplicity = 2

 SCF Done:  E(UB3LYP) =  -1257.82391740     A.U. after   29 cycles
 Normal termination of Gaussian 16 at Sun Dec 13 14:39:10 2020.
 Gaussian 16:  ES64L-G16RevA.03 25-Dec-2016

 ----------------------------------------------------------------------
 # B3LYP/6-311++G(d,p) empiricaldispersion=gd3bj scf=xqc pop=npa geom=c
 heck
 ----------------------------------------------------------------------

 -------------------------------------
 CID_117165690_JID_10803_Energie_anion
 -------------------------------------
 Structure from the checkpoint file:  "JID_10803.chk"
 Charge = -1 Multiplicity = 2

                         Standard orientation:
 ---------------------------------------------------------------------
 Center     Atomic      Atomic             Coordinates (Angstroms)
 Number     Number       Type             X           Y           Z
 ---------------------------------------------------------------------
      1          6           0       -2.192650    3.745329    0.969772
      2          6           0       -1.729339    3.573440   -0.478039
      3          6           0       -0.768155    2.389816   -0.663372
      4          6           0       -1.430822    1.060653   -0.440467
      5          7           0       -2.723194    0.862665   -0.602288
      6          6           0       -2.932229   -0.480667   -0.342176
      7          6           0       -1.707711   -1.103466   -0.012912
      8          7           0       -0.747834   -0.101112   -0.086081
      9          6           0        0.655206   -0.344760    0.242036
     10          6           0        1.044622    0.261148    1.601669
     11          6           0        2.461143   -0.136925    2.043147
     12          6           0        3.545571    0.326388    1.066613
     13         16           0        3.289834   -0.417918   -0.567904
     14          8           0        4.170421    0.235769   -1.546217
     15          8           0        3.294641   -1.880767   -0.397976
     16          6           0        1.579209    0.091322   -0.902854
     17          7           0       -1.504450   -2.374296    0.307619
     18          6           0       -2.620934   -3.118849    0.297224
     19          6           0       -3.898895   -2.623315   -0.015741
     20          6           0       -4.076671   -1.278253   -0.343523
     21          1           0       -2.750247    2.865504    1.304362
     22          1           0       -2.847783    4.617177    1.070102
     23          1           0       -1.339739    3.890005    1.645486
     24          1           0       -2.596385    3.425506   -1.128593
     25          1           0       -1.216589    4.481545   -0.817720
     26          1           0       -0.354223    2.408616   -1.681852
     27          1           0        0.084257    2.503578    0.015857
     28          1           0        0.725161   -1.434100    0.321785
     29          1           0        0.318566   -0.085096    2.343936
     30          1           0        0.965054    1.354951    1.562939
     31          1           0        2.527114   -1.224886    2.151606
     32          1           0        2.671846    0.299455    3.025694
     33          1           0        4.547217    0.009273    1.371135
     34          1           0        3.548886    1.411766    0.922418
     35          1           0        1.602012    1.172524   -1.052571
     36          1           0        1.305699   -0.393915   -1.843968
     37          1           0       -2.492890   -4.167966    0.552205
     38          1           0       -4.746069   -3.301372    0.001869
     39          1           0       -5.051466   -0.867862   -0.587703
 ---------------------------------------------------------------------

 SCF Done:  E(UB3LYP) =  -1258.13698912     A.U. after   31 cycles

 The electronic state is 2-A.
 Alpha  occ. eigenvalues --  -88.95675 -19.02895 -19.02695 -14.26452 -14.19401
 Alpha  occ. eigenvalues --  -14.18885 -10.14282 -10.13088 -10.12666 -10.12599
 Alpha  occ. eigenvalues --  -10.12270 -10.10270 -10.09491 -10.08955 -10.08711
 Alpha  occ. eigenvalues --  -10.08512 -10.07498 -10.06783 -10.06627 -10.06427
 Alpha  occ. eigenvalues --   -8.02201  -5.98461  -5.98350  -5.98302  -1.02004
 Alpha  occ. eigenvalues --   -0.92218  -0.91727  -0.82749  -0.80379  -0.75115
 Alpha  occ. eigenvalues --   -0.70938  -0.69641  -0.67958  -0.66622  -0.64331
 Alpha  occ. eigenvalues --   -0.60202  -0.57707  -0.54791  -0.53370  -0.51799
 Alpha  occ. eigenvalues --   -0.49787  -0.48594  -0.46210  -0.43351  -0.42466
 Alpha  occ. eigenvalues --   -0.41167  -0.40415  -0.39284  -0.38227  -0.37913
 Alpha  occ. eigenvalues --   -0.37290  -0.36516  -0.35454  -0.34607  -0.33983
 Alpha  occ. eigenvalues --   -0.33555  -0.33088  -0.31706  -0.30414  -0.29850
 Alpha  occ. eigenvalues --   -0.29477  -0.28072  -0.27765  -0.27463  -0.26822
 Alpha  occ. eigenvalues --   -0.26335  -0.24973  -0.24475  -0.24320  -0.24236
 Alpha  occ. eigenvalues --   -0.23524  -0.21973  -0.20954  -0.20259  -0.19119
 Alpha  occ. eigenvalues --   -0.14966  -0.14371  -0.12901   0.03534
 Alpha virt. eigenvalues --    0.05160   0.06590   0.07433   0.07740   0.08316
 Alpha virt. eigenvalues --    0.08775   0.09296   0.09383   0.10372   0.10717
 Alpha virt. eigenvalues --    0.11001   0.11255   0.11393   0.11929   0.12092

  Beta  occ. eigenvalues --  -88.95676 -19.02894 -19.02690 -14.26456 -14.19177
  Beta  occ. eigenvalues --  -14.18890 -10.14283 -10.12885 -10.12656 -10.12573
  Beta  occ. eigenvalues --  -10.12287 -10.10248 -10.09475 -10.08842 -10.08713
  Beta  occ. eigenvalues --  -10.08484 -10.07484 -10.06825 -10.06415 -10.06392
  Beta  occ. eigenvalues --   -8.02201  -5.98460  -5.98350  -5.98303  -1.01998
  Beta  occ. eigenvalues --   -0.92108  -0.91719  -0.82428  -0.80323  -0.75075
  Beta  occ. eigenvalues --   -0.70825  -0.69561  -0.67742  -0.66568  -0.64170
  Beta  occ. eigenvalues --   -0.60091  -0.57646  -0.54753  -0.53189  -0.51655
  Beta  occ. eigenvalues --   -0.49686  -0.48497  -0.46120  -0.43243  -0.42391
  Beta  occ. eigenvalues --   -0.41130  -0.40359  -0.39223  -0.38117  -0.37820
  Beta  occ. eigenvalues --   -0.37232  -0.36394  -0.35376  -0.34549  -0.33904
  Beta  occ. eigenvalues --   -0.33520  -0.32927  -0.31631  -0.30319  -0.29764
  Beta  occ. eigenvalues --   -0.29357  -0.27949  -0.27681  -0.27393  -0.26713
  Beta  occ. eigenvalues --   -0.26121  -0.24928  -0.24454  -0.24274  -0.23839
  Beta  occ. eigenvalues --   -0.23491  -0.21932  -0.20541  -0.20144  -0.19019
  Beta  occ. eigenvalues --   -0.14801  -0.13788  -0.12147
  Beta virt. eigenvalues --    0.06079   0.06987   0.07413   0.07570   0.08002
  Beta virt. eigenvalues --    0.08698   0.08998   0.09293   0.09489   0.10516
  Beta virt. eigenvalues --    0.10792   0.11158   0.11293   0.11514   0.12018

 Mulliken charges and spin densities:
               1          2
     1  C   -0.101285  -0.446853
     2  C   -0.382810  -0.098407
     3  C   -0.645361   0.285683
     4  C    0.127721  -0.183927
     5  N    0.006594   0.000567
     6  C    0.455021  -0.053509
     7  C    0.132687  -0.199495
     8  N    0.618210  -0.004439
     9  C   -1.461053  -0.199226
    10  C    0.394639   0.084383
    11  C   -0.368463  -0.123697
    12  C   -0.088645  -0.706823
    13  S    0.812887  -0.322811
    14  O   -0.117430   0.019100
    15  O   -0.200781   0.007351
    16  C   -0.535849  -0.119170
    17  N   -0.068248   0.112997
    18  C   -0.126489   0.107752
    19  C   -0.198942  -0.035460
    20  C   -0.233980   0.219166
    21  H    0.124990   0.050662
    22  H    0.069187   0.057695
    23  H   -0.093263   0.218602
    24  H    0.170726  -0.003914
    25  H   -0.161418   0.313684
    26  H   -0.064483   0.270110
    27  H    0.107476   0.005770
    28  H    0.259753   0.031591
    29  H    0.089107   0.107324
    30  H    0.164797   0.015387
    31  H    0.237991  -0.049376
    32  H   -0.681625   0.895661
    33  H    0.103297   0.160054
    34  H   -0.233943   0.471174
    35  H    0.196113   0.094585
    36  H    0.264262   0.032117
    37  H    0.148660  -0.003988
    38  H    0.132937   0.002637
    39  H    0.147016  -0.012957
 Sum of Mulliken charges =  -1.00000   1.00000

 Dipole moment (field-independent basis, Debye):
    X=             -2.2594    Y=             -1.0771    Z=             -0.3572  Tot=              2.5284
 Quadrupole moment (field-independent basis, Debye-Ang):
   XX=           -196.4671   YY=           -176.2746   ZZ=           -160.6065
   XY=             -0.7549   XZ=              0.2603   YZ=             -4.6499

 Summary of Natural Population Analysis:

                                       Natural Population
                Natural  -----------------------------------------------
    Atom  No    Charge         Core      Valence    Rydberg      Total
 -----------------------------------------------------------------------
      C    1   -0.28854      0.99966     2.28358    0.00529     3.28854
      C    2   -0.18737      0.99964     2.17881    0.00892     3.18737
      C    3   -0.21686      0.99959     2.20847    0.00880     3.21686
      C    4    0.25507      0.99961     1.72854    0.01677     2.74493
      N    5   -0.26972      0.99968     2.76124    0.00880     3.76972
      C    6    0.04213      0.99944     1.94592    0.01251     2.95787
      C    7    0.18157      0.99946     1.80527    0.01370     2.81843
      N    8   -0.22806      0.99958     2.71838    0.01010     3.72806
      C    9   -0.02297      0.99956     2.00945    0.01395     3.02297
      C   10   -0.19327      0.99960     2.18446    0.00922     3.19327
      C   11   -0.20274      0.99962     2.19332    0.00980     3.20274
      C   12   -0.28939      0.99959     2.27804    0.01176     3.28939
      S   13    1.02183      4.99925     1.88396    0.09496     6.97817
      O   14   -0.46705      0.99991     3.46154    0.00560     4.46705
      O   15   -0.46976      0.99991     3.46462    0.00522     4.46976
      C   16   -0.29415      0.99956     2.28249    0.01210     3.29415
      N   17   -0.22386      0.99967     2.71452    0.00967     3.72386
      C   18    0.03626      0.99962     1.94983    0.01429     2.96374
      C   19   -0.14775      0.99958     2.13991    0.00826     3.14775
      C   20   -0.04555      0.99953     2.03728    0.00874     3.04555
      H   21    0.10520      0.00000     0.39377    0.00104     0.39480
      H   22    0.09514      0.00000     0.40421    0.00065     0.40486
      H   23    0.09426      0.00000     0.40479    0.00095     0.40574
      H   24    0.10415      0.00000     0.39439    0.00145     0.39585
      H   25    0.09394      0.00000     0.40504    0.00102     0.40606
      H   26    0.11109      0.00000     0.38750    0.00141     0.38891
      H   27    0.09973      0.00000     0.39841    0.00186     0.40027
      H   28    0.12589      0.00000     0.37153    0.00259     0.37411
      H   29    0.11106      0.00000     0.38784    0.00109     0.38894
      H   30    0.09929      0.00000     0.39884    0.00187     0.40071
      H   31    0.10709      0.00000     0.39166    0.00125     0.39291
      H   32    0.11202      0.00000     0.38571    0.00227     0.38798
      H   33    0.11926      0.00000     0.37966    0.00109     0.38074
      H   34    0.11581      0.00000     0.38240    0.00179     0.38419
      H   35    0.11730      0.00000     0.38115    0.00155     0.38270
      H   36    0.12311      0.00000     0.37588    0.00102     0.37689
      H   37    0.08300      0.00000     0.41588    0.00112     0.41700
      H   38    0.09643      0.00000     0.40264    0.00094     0.40357
      H   39    0.09641      0.00000     0.40210    0.00149     0.40359
 =======================================================================
   * Total *    0.00000     23.99207    53.69303    0.31490    78.00000

 Normal termination of Gaussian 16 at Sun Dec 13 15:08:39 2020.
