 Gaussian 16, Revision A.03,

 -----------------------------------------------------------
 # opt freq B3LYP/6-31G(d) empiricaldispersion=gd3bj scf=xqc
 -----------------------------------------------------------

 ------------------------------
 CID_59089596_JID_1136_neutraal
 ------------------------------
 Symbolic Z-matrix:
 Charge =  0 Multiplicity = 1

 SCF Done:  E(RB3LYP) =  -464.739014748     A.U. after   14 cycles
 SCF Done:  E(RB3LYP) =  -464.741032478     A.U. after   12 cycles
 SCF Done:  E(RB3LYP) =  -464.739876724     A.U. after   12 cycles
 SCF Done:  E(RB3LYP) =  -464.741386359     A.U. after   11 cycles
 SCF Done:  E(RB3LYP) =  -464.741447161     A.U. after   10 cycles
 SCF Done:  E(RB3LYP) =  -464.741529332     A.U. after   12 cycles
 SCF Done:  E(RB3LYP) =  -464.741564459     A.U. after   10 cycles
 SCF Done:  E(RB3LYP) =  -464.741575400     A.U. after    9 cycles
 SCF Done:  E(RB3LYP) =  -464.741576908     A.U. after    9 cycles
 SCF Done:  E(RB3LYP) =  -464.741578390     A.U. after    9 cycles
 SCF Done:  E(RB3LYP) =  -464.741578631     A.U. after    8 cycles
 Optimization completed.
    -- Stationary point found.
 Normal termination of Gaussian 16 at Tue Dec  8 19:14:19 2020.

 --------------------------------------------------------------------
 #N Geom=AllCheck Guess=TCheck SCRF=Check GenChk RB3LYP/6-31G(d) Freq
 --------------------------------------------------------------------

 Structure from the checkpoint file:  "JID_1136.chk"
 ------------------------------
 CID_59089596_JID_1136_neutraal
 ------------------------------
 Charge =  0 Multiplicity = 1

 SCF Done:  E(RB3LYP) =  -464.741578631     A.U. after    1 cycles

  Exact polarizability: 164.852  -0.000 103.461   0.001  -2.783  66.218
 Approx polarizability: 215.378  -0.000 157.159   0.002  -6.263 100.679

                      1                      2                      3
                      A                      A                      A
 Frequencies --     31.7164                52.9914               116.4835
 Red. masses --      4.4337                 2.1787                 1.0358
 Frc consts  --      0.0026                 0.0036                 0.0083
 IR Inten    --      2.7382                 0.1317                 1.0968

                      4                      5                      6
                      A                      A                      A
 Frequencies --    117.9737               180.1444               187.5033
 Red. masses --      1.0481                 3.0861                 3.5733
 Frc consts  --      0.0086                 0.0590                 0.0740
 IR Inten    --      0.0912                 0.5297                 0.2614

                      7                      8                      9
                      A                      A                      A
 Frequencies --    217.1195               262.4494               274.3129
 Red. masses --      2.7336                 3.1676                 1.9613
 Frc consts  --      0.0759                 0.1286                 0.0870
 IR Inten    --      0.0102                 1.3148                 0.2685

                     10                     11                     12
                      A                      A                      A
 Frequencies --    359.5167               363.8719               396.2914
 Red. masses --      4.2083                 3.9670                 1.9843
 Frc consts  --      0.3205                 0.3095                 0.1836
 IR Inten    --      0.6235                 3.5638                 0.0482

                     13                     14                     15
                      A                      A                      A
 Frequencies --    454.2831               466.9870               519.7040
 Red. masses --      4.0987                 4.1422                 4.3656
 Frc consts  --      0.4984                 0.5322                 0.6947
 IR Inten    --      8.8103                 0.7566                 0.0826

                     16                     17                     18
                      A                      A                      A
 Frequencies --    595.9307               622.2086               686.2818
 Red. masses --      2.3877                 3.1893                 3.3443
 Frc consts  --      0.4996                 0.7275                 0.9280
 IR Inten    --      1.6415                 0.0750                 3.0310

                     19                     20                     21
                      A                      A                      A
 Frequencies --    753.2984               857.2253               894.5259
 Red. masses --      2.8578                 1.7837                 2.1076
 Frc consts  --      0.9555                 0.7722                 0.9936
 IR Inten    --     24.8151                 5.1230                72.0064

                     22                     23                     24
                      A                      A                      A
 Frequencies --    903.1693               906.2219               921.6071
 Red. masses --      1.2572                 2.2308                 2.2738
 Frc consts  --      0.6042                 1.0794                 1.1379
 IR Inten    --     28.2622                 1.2887                 3.1744

                     25                     26                     27
                      A                      A                      A
 Frequencies --    931.7282               991.0092              1020.9085
 Red. masses --      1.4081                 1.6097                 1.8125
 Frc consts  --      0.7202                 0.9314                 1.1130
 IR Inten    --      7.0243                17.9543                 8.1463

                     28                     29                     30
                      A                      A                      A
 Frequencies --   1082.9179              1083.1204              1088.9256
 Red. masses --      1.5865                 1.5612                 2.0537
 Frc consts  --      1.0962                 1.0791                 1.4348
 IR Inten    --      1.4312                 0.9670                 1.1783

                     31                     32                     33
                      A                      A                      A
 Frequencies --   1093.2255              1106.9401              1162.8803
 Red. masses --      1.8265                 2.6518                 2.4820
 Frc consts  --      1.2861                 1.9144                 1.9775
 IR Inten    --      2.6045                 0.3844                54.6940

                     34                     35                     36
                      A                      A                      A
 Frequencies --   1181.8406              1205.3746              1221.6289
 Red. masses --      1.2307                 1.7260                 2.3154
 Frc consts  --      1.0128                 1.4775                 2.0359
 IR Inten    --     28.8335                72.3105                 0.6380

                     37                     38                     39
                      A                      A                      A
 Frequencies --   1307.9367              1309.3633              1352.9847
 Red. masses --      1.2005                 2.1302                 1.3847
 Frc consts  --      1.2100                 2.1518                 1.4935
 IR Inten    --      6.1856               132.1532                11.5209

                     40                     41                     42
                      A                      A                      A
 Frequencies --   1368.1347              1391.0245              1410.8616
 Red. masses --      1.3827                 1.4437                 1.7582
 Frc consts  --      1.5248                 1.6459                 2.0620
 IR Inten    --      6.9248                 0.2022                 0.9120

                     43                     44                     45
                      A                      A                      A
 Frequencies --   1413.0984              1438.1739              1440.4095
 Red. masses --      1.5290                 1.2488                 1.2564
 Frc consts  --      1.7988                 1.5218                 1.5358
 IR Inten    --      3.5652                 2.3825                 0.1470

                     46                     47                     48
                      A                      A                      A
 Frequencies --   1505.1153              1510.2748              1511.5537
 Red. masses --      1.0844                 1.0502                 1.0665
 Frc consts  --      1.4473                 1.4113                 1.4357
 IR Inten    --      3.2658                 5.8293                17.3298

                     49                     50                     51
                      A                      A                      A
 Frequencies --   1512.4153              1512.9604              1517.6862
 Red. masses --      1.0718                 1.0849                 1.0781
 Frc consts  --      1.4444                 1.4632                 1.4631
 IR Inten    --     12.3448                 6.2554                 7.8043

                     52                     53                     54
                      A                      A                      A
 Frequencies --   1526.2090              1672.8118              1705.0980
 Red. masses --      1.0993                 8.3086                 6.3262
 Frc consts  --      1.5087                13.6985                10.8365
 IR Inten    --      0.3171                70.1221               201.8436

                     55                     56                     57
                      A                      A                      A
 Frequencies --   1768.3260              3006.5148              3008.5177
 Red. masses --      9.1699                 1.0719                 1.0718
 Frc consts  --     16.8944                 5.7085                 5.7157
 IR Inten    --     36.0867                 3.2983                42.2494

                     58                     59                     60
                      A                      A                      A
 Frequencies --   3034.9212              3035.1385              3043.8959
 Red. masses --      1.0408                 1.0408                 1.0611
 Frc consts  --      5.6480                 5.6491                 5.7922
 IR Inten    --     47.7826                 0.7534                31.5576

                     61                     62                     63
                      A                      A                      A
 Frequencies --   3077.2480              3077.2876              3088.0107
 Red. masses --      1.0983                 1.0983                 1.0905
 Frc consts  --      6.1276                 6.1278                 6.1265
 IR Inten    --      1.7374                33.6127                45.6276

                     64                     65                     66
                      A                      A                      A
 Frequencies --   3088.6878              3090.7602              3137.6856
 Red. masses --      1.0997                 1.0942                 1.0966
 Frc consts  --      6.1810                 6.1585                 6.3608
 IR Inten    --     48.8214                24.7856                 3.6927

                     67                     68                     69
                      A                      A                      A
 Frequencies --   3137.9511              3181.5594              3182.2216
 Red. masses --      1.0966                 1.0876                 1.0878
 Frc consts  --      6.3621                 6.4862                 6.4903
 IR Inten    --     39.4106                 1.2922                 7.6792

 - Thermochemistry -
 -------------------
 Temperature   298.150 Kelvin.  Pressure   1.00000 Atm.
 Atom     1 has atomic number  6 and mass  12.00000

 Molecular mass:   150.10447 amu.
 Principal axes and moments of inertia in atomic units:
                           1         2         3
     Eigenvalues --   863.547512552.841223327.87877
           X            1.00000  -0.00000   0.00000
           Y            0.00000   1.00000  -0.00160
           Z           -0.00000   0.00160   1.00000
 This molecule is an asymmetric top.
 Rotational symmetry number  1.
 Warning -- assumption of classical behavior for rotation
           may cause significant error
 Rotational temperatures (Kelvin)      0.10030     0.03393     0.02603
 Rotational constants (GHZ):           2.08992     0.70695     0.54231
 Zero-point vibrational energy     572276.5 (Joules/Mol)
                                  136.77736 (Kcal/Mol)
 Warning -- explicit consideration of  16 degrees of freedom as
           vibrations may cause significant error
 Vibrational temperatures:     45.63    76.24   167.59   169.74   259.19
          (Kelvin)            269.78   312.39   377.61   394.68   517.26
                              523.53   570.17   653.61   671.89   747.74
                              857.41   895.22   987.41  1083.83  1233.36
                             1287.02  1299.46  1303.85  1325.99  1340.55
                             1425.84  1468.86  1558.08  1558.37  1566.72
                             1572.91  1592.64  1673.13  1700.41  1734.27
                             1757.65  1881.83  1883.88  1946.64  1968.44
                             2001.37  2029.92  2033.13  2069.21  2072.43
                             2165.53  2172.95  2174.79  2176.03  2176.81
                             2183.61  2195.87  2406.80  2453.26  2544.23
                             4325.70  4328.59  4366.57  4366.89  4379.49
                             4427.47  4427.53  4442.96  4443.93  4446.91
                             4514.43  4514.81  4577.55  4578.51

 Zero-point correction=                           0.217969 (Hartree/Particle)
 Thermal correction to Energy=                    0.229494
 Thermal correction to Enthalpy=                  0.230439
 Thermal correction to Gibbs Free Energy=         0.179903
 Sum of electronic and zero-point Energies=           -464.523610
 Sum of electronic and thermal Energies=              -464.512084
 Sum of electronic and thermal Enthalpies=            -464.511140
 Sum of electronic and thermal Free Energies=         -464.561675

                     E (Thermal)             CV                S
                      KCal/Mol        Cal/Mol-Kelvin    Cal/Mol-Kelvin
 Total                  144.010             42.506            106.360
 Electronic               0.000              0.000              0.000
 Translational            0.889              2.981             40.929
 Rotational               0.889              2.981             30.374
 Vibrational            142.232             36.544             35.058
 Vibration     1          0.594              1.983              5.719
 Vibration     2          0.596              1.976              4.703
 Vibration     3          0.608              1.936              3.158
 Vibration     4          0.608              1.934              3.133
 Vibration     5          0.629              1.867              2.327
 Vibration     6          0.632              1.857              2.252
 Vibration     7          0.646              1.815              1.983
 Vibration     8          0.670              1.742              1.645
 Vibration     9          0.677              1.721              1.569
 Vibration    10          0.734              1.556              1.124
 Vibration    11          0.737              1.547              1.106
 Vibration    12          0.763              1.478              0.976
 Vibration    13          0.813              1.351              0.783
 Vibration    14          0.824              1.323              0.746
 Vibration    15          0.875              1.206              0.611
 Vibration    16          0.954              1.040              0.457

 Optimization completed.
    -- Stationary point found.
 Normal termination of Gaussian 16 at Tue Dec  8 19:19:30 2020.

 ----------------------------------------------------------------------
 # B3LYP/6-311++G(d,p) empiricaldispersion=gd3bj scf=xqc pop=npa geom=c
 heck
 ----------------------------------------------------------------------

 --------------------------------------
 CID_59089596_JID_1136_Energie_neutraal
 --------------------------------------
 Structure from the checkpoint file:  "JID_1136.chk"
 Charge =  0 Multiplicity = 1

 SCF Done:  E(RB3LYP) =  -464.867666389     A.U. after   14 cycles
 Normal termination of Gaussian 16 at Tue Dec  8 19:21:44 2020.

 ----------------------------------------------------------------------
 # B3LYP/6-311++G(d,p) empiricaldispersion=gd3bj scf=xqc pop=npa geom=c
 heck
 ----------------------------------------------------------------------

 ------------------------------------
 CID_59089596_JID_1136_Energie_kation
 ------------------------------------
 Structure from the checkpoint file:  "JID_1136.chk"
 Charge =  1 Multiplicity = 2

 SCF Done:  E(UB3LYP) =  -464.550641306     A.U. after   26 cycles
 Normal termination of Gaussian 16 at Tue Dec  8 19:27:34 2020.
 Gaussian 16:  ES64L-G16RevA.03 25-Dec-2016

 ----------------------------------------------------------------------
 # B3LYP/6-311++G(d,p) empiricaldispersion=gd3bj scf=xqc pop=npa geom=c
 heck
 ----------------------------------------------------------------------

 -----------------------------------
 CID_59089596_JID_1136_Energie_anion
 -----------------------------------
 Structure from the checkpoint file:  "JID_1136.chk"
 Charge = -1 Multiplicity = 2

                         Standard orientation:
 ---------------------------------------------------------------------
 Center     Atomic      Atomic             Coordinates (Angstroms)
 Number     Number       Type             X           Y           Z
 ---------------------------------------------------------------------
      1          6           0        3.833152   -0.311293    0.008661
      2          6           0        2.423740   -0.808189    0.034940
      3          6           0        1.292864   -0.086220   -0.066291
      4          6           0       -0.000014   -0.853821   -0.022495
      5          8           0       -0.000053   -2.080259    0.058966
      6          6           0       -1.292863   -0.086183   -0.066228
      7          6           0       -2.423745   -0.808164    0.034886
      8          6           0       -3.833159   -0.311267    0.008615
      9          6           0       -1.253423    1.419690   -0.213663
     10          6           0        0.000073    2.021858    0.425212
     11          6           0        1.253429    1.419630   -0.213885
     12          1           0        3.911105    0.777404   -0.045835
     13          1           0        4.365741   -0.729908   -0.856605
     14          1           0        4.378832   -0.653376    0.898158
     15          1           0        2.292003   -1.883713    0.138117
     16          1           0       -2.292011   -1.883699    0.137957
     17          1           0       -4.365769   -0.729923   -0.856618
     18          1           0       -4.378820   -0.653309    0.898139
     19          1           0       -3.911114    0.777426   -0.045927
     20          1           0       -2.152103    1.869482    0.220563
     21          1           0       -1.261535    1.688611   -1.281624
     22          1           0        0.000169    1.818050    1.504220
     23          1           0        0.000085    3.110894    0.301007
     24          1           0        2.152215    1.869456    0.220085
     25          1           0        1.261298    1.688435   -1.281877
 ---------------------------------------------------------------------

 SCF Done:  E(UB3LYP) =  -464.876160585     A.U. after   22 cycles

 The electronic state is 2-A.
 Alpha  occ. eigenvalues --  -18.88443 -10.03566 -10.03478 -10.03176 -10.03175
 Alpha  occ. eigenvalues --  -10.03043 -10.03041  -9.99956  -9.99955  -9.99125
 Alpha  occ. eigenvalues --   -9.99125  -0.82590  -0.68264  -0.64304  -0.62031
 Alpha  occ. eigenvalues --   -0.57237  -0.55286  -0.50924  -0.45368  -0.44133
 Alpha  occ. eigenvalues --   -0.36364  -0.34975  -0.32200  -0.31859  -0.29300
 Alpha  occ. eigenvalues --   -0.28580  -0.27874  -0.27830  -0.26398  -0.25689
 Alpha  occ. eigenvalues --   -0.24262  -0.22822  -0.22062  -0.22056  -0.19509
 Alpha  occ. eigenvalues --   -0.19371  -0.18127  -0.16401  -0.09035  -0.08260
 Alpha  occ. eigenvalues --   -0.05492   0.05304
 Alpha virt. eigenvalues --    0.08610   0.09189   0.09826   0.11198   0.11894
 Alpha virt. eigenvalues --    0.12409   0.12673   0.12941   0.13628   0.14228
 Alpha virt. eigenvalues --    0.14755   0.14817   0.16842   0.16978   0.17234

  Beta  occ. eigenvalues --  -18.87985 -10.03478 -10.03217 -10.03208 -10.03208
  Beta  occ. eigenvalues --  -10.03043 -10.03041 -10.00033 -10.00032  -9.98719
  Beta  occ. eigenvalues --   -9.98718  -0.81728  -0.68121  -0.63951  -0.61645
  Beta  occ. eigenvalues --   -0.57173  -0.54994  -0.50721  -0.45124  -0.43334
  Beta  occ. eigenvalues --   -0.35930  -0.34821  -0.31998  -0.31645  -0.29086
  Beta  occ. eigenvalues --   -0.28417  -0.27621  -0.27509  -0.26347  -0.25410
  Beta  occ. eigenvalues --   -0.24076  -0.22399  -0.21939  -0.21599  -0.19278
  Beta  occ. eigenvalues --   -0.17893  -0.17762  -0.16162  -0.07694  -0.06361
  Beta  occ. eigenvalues --   -0.05092
  Beta virt. eigenvalues --    0.08532   0.09124   0.09780   0.11038   0.11791
  Beta virt. eigenvalues --    0.11950   0.12355   0.12637   0.13000   0.13707
  Beta virt. eigenvalues --    0.14159   0.14711   0.14864   0.16773   0.17145

 Mulliken charges and spin densities:
               1          2
     1  C   -0.550409  -0.020090
     2  C   -0.278543   0.347461
     3  C    1.220638  -0.064590
     4  C   -1.299731   0.202785
     5  O   -0.398258   0.188925
     6  C    1.220812  -0.064589
     7  C   -0.278599   0.347462
     8  C   -0.550360  -0.020094
     9  C   -0.614718  -0.025958
    10  C   -0.366809  -0.001905
    11  C   -0.614693  -0.025954
    12  H    0.114628   0.003925
    13  H    0.111826   0.013240
    14  H    0.103826   0.016603
    15  H    0.179055  -0.022659
    16  H    0.179059  -0.022661
    17  H    0.111826   0.013233
    18  H    0.103824   0.016615
    19  H    0.114639   0.003927
    20  H    0.068113  -0.002130
    21  H    0.099595   0.025751
    22  H    0.130405  -0.016630
    23  H    0.026174   0.083727
    24  H    0.068095  -0.002128
    25  H    0.099607   0.025734
 Sum of Mulliken charges =  -1.00000   1.00000

 Dipole moment (field-independent basis, Debye):
    X=              0.0003    Y=              4.7236    Z=              0.0308  Tot=              4.7237
 Quadrupole moment (field-independent basis, Debye-Ang):
   XX=            -93.4705   YY=            -90.2270   ZZ=            -76.2358
   XY=             -0.0000   XZ=              0.0001   YZ=              0.8179

 Summary of Natural Population Analysis:

                                       Natural Population
                Natural  -----------------------------------------------
    Atom  No    Charge         Core      Valence    Rydberg      Total
 -----------------------------------------------------------------------
      C    1   -0.30340      0.99966     2.29954    0.00420     3.30340
      C    2    0.00910      0.99949     1.98199    0.00943     2.99090
      C    3   -0.08454      0.99945     2.07507    0.01003     3.08454
      C    4    0.30306      0.99955     1.67707    0.02032     2.69694
      O    5   -0.27668      0.99988     3.27065    0.00615     4.27668
      C    6   -0.08455      0.99945     2.07508    0.01003     3.08455
      C    7    0.00911      0.99949     1.98198    0.00943     2.99089
      C    8   -0.30340      0.99966     2.29954    0.00420     3.30340
      C    9   -0.19506      0.99961     2.18807    0.00739     3.19506
      C   10   -0.18337      0.99964     2.17432    0.00941     3.18337
      C   11   -0.19506      0.99961     2.18807    0.00739     3.19506
      H   12    0.09065      0.00000     0.40820    0.00116     0.40935
      H   13    0.09781      0.00000     0.40104    0.00115     0.40219
      H   14    0.09583      0.00000     0.40300    0.00117     0.40417
      H   15    0.09858      0.00000     0.39978    0.00163     0.40142
      H   16    0.09859      0.00000     0.39978    0.00163     0.40141
      H   17    0.09781      0.00000     0.40104    0.00115     0.40219
      H   18    0.09583      0.00000     0.40300    0.00117     0.40417
      H   19    0.09065      0.00000     0.40820    0.00116     0.40935
      H   20    0.09020      0.00000     0.40754    0.00226     0.40980
      H   21    0.09020      0.00000     0.40792    0.00188     0.40980
      H   22    0.09306      0.00000     0.40582    0.00112     0.40694
      H   23    0.08520      0.00000     0.41246    0.00234     0.41480
      H   24    0.09020      0.00000     0.40754    0.00226     0.40980
      H   25    0.09020      0.00000     0.40792    0.00188     0.40980
 =======================================================================
   * Total *   -0.00000     10.99548    29.88460    0.11992    41.00000

 Normal termination of Gaussian 16 at Tue Dec  8 19:32:43 2020.
