 Gaussian 16, Revision A.03,

 -----------------------------------------------------------
 # opt freq B3LYP/6-31G(d) empiricaldispersion=gd3bj scf=xqc
 -----------------------------------------------------------

 --------------------------------
 CID_126215073_JID_10017_neutraal
 --------------------------------
 Symbolic Z-matrix:
 Charge =  0 Multiplicity = 1

 SCF Done:  E(RB3LYP) =  -1260.54243635     A.U. after   15 cycles
 SCF Done:  E(RB3LYP) =  -1260.54935158     A.U. after   12 cycles
 SCF Done:  E(RB3LYP) =  -1260.54990877     A.U. after   13 cycles
 SCF Done:  E(RB3LYP) =  -1260.55118670     A.U. after   12 cycles
 SCF Done:  E(RB3LYP) =  -1260.55247762     A.U. after   13 cycles
 SCF Done:  E(RB3LYP) =  -1260.55378424     A.U. after   15 cycles
 SCF Done:  E(RB3LYP) =  -1260.55397293     A.U. after   13 cycles
 SCF Done:  E(RB3LYP) =  -1260.55446963     A.U. after   13 cycles
 SCF Done:  E(RB3LYP) =  -1260.55480159     A.U. after   12 cycles
 SCF Done:  E(RB3LYP) =  -1260.55481518     A.U. after   11 cycles
 SCF Done:  E(RB3LYP) =  -1260.55482530     A.U. after   10 cycles
 SCF Done:  E(RB3LYP) =  -1260.55482866     A.U. after   10 cycles
 SCF Done:  E(RB3LYP) =  -1260.55482901     A.U. after    8 cycles
 SCF Done:  E(RB3LYP) =  -1260.55482907     A.U. after    7 cycles
 Optimization completed.
    -- Stationary point found.
 Normal termination of Gaussian 16 at Sun Dec 13 16:29:51 2020.

 --------------------------------------------------------------------
 #N Geom=AllCheck Guess=TCheck SCRF=Check GenChk RB3LYP/6-31G(d) Freq
 --------------------------------------------------------------------

 Structure from the checkpoint file:  "JID_10017.chk"
 --------------------------------
 CID_126215073_JID_10017_neutraal
 --------------------------------
 Charge =  0 Multiplicity = 1

 SCF Done:  E(RB3LYP) =  -1260.55482907     A.U. after    1 cycles

  Exact polarizability: 303.718 -30.575 201.214 -20.687  -7.267 108.768
 Approx polarizability: 414.721 -58.325 352.700 -37.032 -26.550 179.648

                      1                      2                      3
                      A                      A                      A
 Frequencies --     22.1538                26.5310                36.3912
 Red. masses --      4.1423                 4.9284                 4.4323
 Frc consts  --      0.0012                 0.0020                 0.0035
 IR Inten    --      0.3486                 0.3814                 0.5609

                      4                      5                      6
                      A                      A                      A
 Frequencies --     54.0531                63.3196                93.6337
 Red. masses --      3.6241                 3.8100                 5.2376
 Frc consts  --      0.0062                 0.0090                 0.0271
 IR Inten    --      0.2661                 0.9823                 0.2734

                      7                      8                      9
                      A                      A                      A
 Frequencies --    104.2518               123.7992               138.4763
 Red. masses --      5.1907                 6.5975                 5.8101
 Frc consts  --      0.0332                 0.0596                 0.0656
 IR Inten    --      0.0896                 1.8963                 4.2679

                     10                     11                     12
                      A                      A                      A
 Frequencies --    165.2341               187.8282               213.6433
 Red. masses --      2.2786                 4.5311                 4.2333
 Frc consts  --      0.0367                 0.0942                 0.1138
 IR Inten    --      0.4456                 0.4161                 0.6053

                     13                     14                     15
                      A                      A                      A
 Frequencies --    233.9666               261.9359               274.8736
 Red. masses --      3.1573                 5.4176                 1.7270
 Frc consts  --      0.1018                 0.2190                 0.0769
 IR Inten    --      1.0279                 0.4467                 0.9998

                     16                     17                     18
                      A                      A                      A
 Frequencies --    305.8124               325.7387               356.5991
 Red. masses --      4.4926                 2.3394                 2.5099
 Frc consts  --      0.2475                 0.1462                 0.1881
 IR Inten    --      8.3208                 4.1933                 6.7404

                     19                     20                     21
                      A                      A                      A
 Frequencies --    363.3519               378.4694               414.7306
 Red. masses --      1.1614                 4.4271                 3.5725
 Frc consts  --      0.0903                 0.3736                 0.3620
 IR Inten    --    102.4975                22.7131                 3.4079

                     22                     23                     24
                      A                      A                      A
 Frequencies --    430.1608               439.5664               479.1326
 Red. masses --      4.4979                 4.1647                 3.0084
 Frc consts  --      0.4904                 0.4741                 0.4069
 IR Inten    --     12.9369                 3.4015                14.7608

                     25                     26                     27
                      A                      A                      A
 Frequencies --    492.1600               499.2081               541.1463
 Red. masses --      5.5682                 4.5625                 5.7214
 Frc consts  --      0.7947                 0.6699                 0.9872
 IR Inten    --      7.0801                 1.8346                18.9673

                     28                     29                     30
                      A                      A                      A
 Frequencies --    562.8864               570.5424               601.9029
 Red. masses --      3.6634                 3.6128                 9.1899
 Frc consts  --      0.6839                 0.6929                 1.9616
 IR Inten    --      3.8388                11.1072                 1.7521

                     31                     32                     33
                      A                      A                      A
 Frequencies --    623.5132               658.5854               677.5404
 Red. masses --      7.8119                 8.9049                 5.5812
 Frc consts  --      1.7894                 2.2756                 1.5096
 IR Inten    --     10.5932                11.6411                 4.2190

                     34                     35                     36
                      A                      A                      A
 Frequencies --    728.6489               740.9733               746.5413
 Red. masses --      3.6340                 1.9037                 4.5498
 Frc consts  --      1.1368                 0.6158                 1.4940
 IR Inten    --     14.8421                10.4956                 4.4290

                     37                     38                     39
                      A                      A                      A
 Frequencies --    760.3124               764.3097               785.6167
 Red. masses --      2.4051                 1.4156                 2.3205
 Frc consts  --      0.8192                 0.4872                 0.8438
 IR Inten    --     20.0881                48.6230                 7.4467

                     40                     41                     42
                      A                      A                      A
 Frequencies --    828.1761               851.1651               853.2899
 Red. masses --      5.2531                 1.4360                 1.6378
 Frc consts  --      2.1228                 0.6129                 0.7026
 IR Inten    --     16.1346                 1.1948                18.1754

                     43                     44                     45
                      A                      A                      A
 Frequencies --    884.1040               907.8294               929.6815
 Red. masses --      3.1376                 2.6786                 1.3844
 Frc consts  --      1.4449                 1.3007                 0.7050
 IR Inten    --     19.0477                12.3135                 2.3628

                     46                     47                     48
                      A                      A                      A
 Frequencies --    935.7934               952.5072               975.9524
 Red. masses --      2.0210                 1.4454                 1.2708
 Frc consts  --      1.0427                 0.7726                 0.7132
 IR Inten    --      4.3554                 7.2110                 0.4971

                     49                     50                     51
                      A                      A                      A
 Frequencies --    996.2492              1009.1732              1033.5619
 Red. masses --      2.0526                 2.0583                 1.9746
 Frc consts  --      1.2003                 1.2351                 1.2428
 IR Inten    --      2.2386                10.5166                 1.8181

                     52                     53                     54
                      A                      A                      A
 Frequencies --   1075.4873              1088.8372              1094.9821
 Red. masses --      2.4015                 2.1588                 2.3520
 Frc consts  --      1.6366                 1.5079                 1.6615
 IR Inten    --      7.3922                27.5729                 7.9074

                     55                     56                     57
                      A                      A                      A
 Frequencies --   1133.0084              1144.9407              1150.5137
 Red. masses --      1.9570                 2.3545                 2.2320
 Frc consts  --      1.4801                 1.8185                 1.7407
 IR Inten    --     15.6731                80.8038                67.5125

                     58                     59                     60
                      A                      A                      A
 Frequencies --   1191.3108              1195.9750              1203.8893
 Red. masses --      1.8575                 1.1155                 1.2490
 Frc consts  --      1.5532                 0.9401                 1.0666
 IR Inten    --     31.1235                 6.1829                23.7225

                     61                     62                     63
                      A                      A                      A
 Frequencies --   1248.9776              1269.0562              1301.7608
 Red. masses --      1.4225                 2.4236                 1.4424
 Frc consts  --      1.3074                 2.2997                 1.4401
 IR Inten    --      4.6632                19.5988                 1.2924

                     64                     65                     66
                      A                      A                      A
 Frequencies --   1307.0468              1333.7671              1345.5036
 Red. masses --      3.1822                 2.1370                 1.2028
 Frc consts  --      3.2030                 2.2398                 1.2830
 IR Inten    --     15.8154                36.0541                14.5995

                     67                     68                     69
                      A                      A                      A
 Frequencies --   1354.3897              1380.5253              1381.5506
 Red. masses --      1.7871                 2.0258                 1.8198
 Frc consts  --      1.9315                 2.2748                 2.0465
 IR Inten    --    165.2580                96.5365               121.8415

                     70                     71                     72
                      A                      A                      A
 Frequencies --   1391.6691              1403.4747              1409.8827
 Red. masses --      1.6413                 2.1219                 1.4755
 Frc consts  --      1.8728                 2.4626                 1.7280
 IR Inten    --      8.1432               270.3543                 7.0830

                     73                     74                     75
                      A                      A                      A
 Frequencies --   1423.2647              1428.6703              1443.8885
 Red. masses --      1.4531                 1.3940                 1.2813
 Frc consts  --      1.7343                 1.6764                 1.5739
 IR Inten    --     40.9953                18.6781                 3.3516

                     76                     77                     78
                      A                      A                      A
 Frequencies --   1497.2113              1505.9641              1514.0527
 Red. masses --      2.5174                 1.0904                 1.0732
 Frc consts  --      3.3248                 1.4570                 1.4495
 IR Inten    --     52.2485                22.3437                 6.2043

                     79                     80                     81
                      A                      A                      A
 Frequencies --   1524.0115              1529.0154              1538.2434
 Red. masses --      1.0902                 1.0460                 1.0510
 Frc consts  --      1.4919                 1.4407                 1.4652
 IR Inten    --      8.6394                 5.1980                 4.2726

                     82                     83                     84
                      A                      A                      A
 Frequencies --   1546.4799              1553.7537              1640.6807
 Red. masses --      1.0872                 2.5045                 5.9761
 Frc consts  --      1.5319                 3.5623                 9.4780
 IR Inten    --      6.3772                19.9667                41.1580

                     85                     86                     87
                      A                      A                      A
 Frequencies --   1663.8835              1673.6578              1771.8683
 Red. masses --      6.1380                 7.0927                12.0909
 Frc consts  --     10.0121                11.7057                22.3651
 IR Inten    --     81.9112                86.7993               380.8160

                     88                     89                     90
                      A                      A                      A
 Frequencies --   1827.5130              3029.7936              3041.3241
 Red. masses --     12.0968                 1.0617                 1.0381
 Frc consts  --     23.8034                 5.7422                 5.6575
 IR Inten    --    360.8056                22.7129                23.5225

                     91                     92                     93
                      A                      A                      A
 Frequencies --   3045.5568              3056.1986              3068.7322
 Red. masses --      1.0681                 1.0808                 1.0837
 Frc consts  --      5.8373                 5.9476                 6.0128
 IR Inten    --     34.9607                 0.5048                75.0466

                     94                     95                     96
                      A                      A                      A
 Frequencies --   3090.8975              3096.7169              3106.3006
 Red. masses --      1.0947                 1.0651                 1.0985
 Frc consts  --      6.1618                 6.0178                 6.2449
 IR Inten    --      6.6098                15.5419                35.3789

                     97                     98                     99
                      A                      A                      A
 Frequencies --   3112.5430              3113.4509              3158.3732
 Red. masses --      1.0996                 1.1016                 1.1030
 Frc consts  --      6.2762                 6.2914                 6.4828
 IR Inten    --     51.9402                40.6535                 4.3450

                    100                    101                    102
                      A                      A                      A
 Frequencies --   3164.2165              3173.1510              3192.6788
 Red. masses --      1.0859                 1.0889                 1.0878
 Frc consts  --      6.4055                 6.4597                 6.5327
 IR Inten    --      0.3030                12.3825                 1.2742

                    103                    104                    105
                      A                      A                      A
 Frequencies --   3204.0045              3220.3469              3751.8151
 Red. masses --      1.0914                 1.0970                 1.0661
 Frc consts  --      6.6012                 6.7032                 8.8414
 IR Inten    --     13.5752                22.9554                61.9666

 - Thermochemistry -
 -------------------
 Temperature   298.150 Kelvin.  Pressure   1.00000 Atm.
 Atom     1 has atomic number  6 and mass  12.00000

 Molecular mass:   291.09292 amu.
 Principal axes and moments of inertia in atomic units:
                           1         2         3
     Eigenvalues --  2955.10402********************
           X            0.99990   0.01393   0.00101
           Y           -0.01394   0.99984   0.01154
           Z           -0.00085  -0.01155   0.99993
 This molecule is an asymmetric top.
 Rotational symmetry number  1.
 Warning -- assumption of classical behavior for rotation
           may cause significant error
 Rotational temperatures (Kelvin)      0.02931     0.00770     0.00651
 Rotational constants (GHZ):           0.61072     0.16043     0.13557
 Zero-point vibrational energy     786663.3 (Joules/Mol)
                                  188.01704 (Kcal/Mol)
 Warning -- explicit consideration of  30 degrees of freedom as
           vibrations may cause significant error
 Vibrational temperatures:     31.87    38.17    52.36    77.77    91.10
          (Kelvin)            134.72   150.00   178.12   199.24   237.74
                              270.24   307.39   336.63   376.87   395.48
                              440.00   468.67   513.07   522.78   544.53
                              596.70   618.91   632.44   689.36   708.11
                              718.25   778.59   809.87   820.88   866.00
                              897.10   947.56   974.83  1048.36  1066.10
                             1074.11  1093.92  1099.67  1130.33  1191.56
                             1224.64  1227.69  1272.03  1306.16  1337.60
                             1346.40  1370.45  1404.18  1433.38  1451.98
                             1487.06  1547.39  1566.59  1575.43  1630.15
                             1647.31  1655.33  1714.03  1720.74  1732.13
                             1797.00  1825.89  1872.94  1880.55  1918.99
                             1935.88  1948.66  1986.27  1987.74  2002.30
                             2019.29  2028.51  2047.76  2055.54  2077.43
                             2154.15  2166.75  2178.38  2192.71  2199.91
                             2213.19  2225.04  2235.51  2360.57  2393.96
                             2408.02  2549.32  2629.38  4359.20  4375.79
                             4381.88  4397.19  4415.22  4447.11  4455.48
                             4469.27  4478.26  4479.56  4544.19  4552.60
                             4565.46  4593.55  4609.85  4633.36  5398.03

 Zero-point correction=                           0.299624 (Hartree/Particle)
 Thermal correction to Energy=                    0.318745
 Thermal correction to Enthalpy=                  0.319689
 Thermal correction to Gibbs Free Energy=         0.250022
 Sum of electronic and zero-point Energies=          -1260.255205
 Sum of electronic and thermal Energies=             -1260.236084
 Sum of electronic and thermal Enthalpies=           -1260.235140
 Sum of electronic and thermal Free Energies=        -1260.304807

                     E (Thermal)             CV                S
                      KCal/Mol        Cal/Mol-Kelvin    Cal/Mol-Kelvin
 Total                  200.015             72.302            146.627
 Electronic               0.000              0.000              0.000
 Translational            0.889              2.981             42.903
 Rotational               0.889              2.981             34.447
 Vibrational            198.238             66.341             69.277
 Vibration     1          0.593              1.985              6.431
 Vibration     2          0.593              1.984              6.073
 Vibration     3          0.594              1.982              5.446
 Vibration     4          0.596              1.976              4.663
 Vibration     5          0.597              1.972              4.351
 Vibration     6          0.603              1.954              3.583
 Vibration     7          0.605              1.946              3.373
 Vibration     8          0.610              1.929              3.040
 Vibration     9          0.614              1.915              2.825
 Vibration    10          0.624              1.885              2.489
 Vibration    11          0.633              1.857              2.249
 Vibration    12          0.644              1.820              2.012
 Vibration    13          0.654              1.789              1.848
 Vibration    14          0.669              1.742              1.649
 Vibration    15          0.677              1.720              1.565
 Vibration    16          0.696              1.663              1.385
 Vibration    17          0.710              1.624              1.281
 Vibration    18          0.732              1.562              1.137
 Vibration    19          0.737              1.548              1.108
 Vibration    20          0.749              1.516              1.045
 Vibration    21          0.778              1.438              0.910
 Vibration    22          0.791              1.405              0.858
 Vibration    23          0.800              1.384              0.828
 Vibration    24          0.836              1.296              0.712
 Vibration    25          0.848              1.267              0.678
 Vibration    26          0.855              1.252              0.660
 Vibration    27          0.896              1.159              0.563
 Vibration    28          0.919              1.112              0.518
 Vibration    29          0.927              1.095              0.503
 Vibration    30          0.960              1.028              0.446

                           ! Non-Optimized Parameters !
 Normal termination of Gaussian 16 at Sun Dec 13 16:47:31 2020.

 ----------------------------------------------------------------------
 # B3LYP/6-311++G(d,p) empiricaldispersion=gd3bj scf=xqc pop=npa geom=c
 heck
 ----------------------------------------------------------------------

 ----------------------------------------
 CID_126215073_JID_10017_Energie_neutraal
 ----------------------------------------
 Structure from the checkpoint file:  "JID_10017.chk"
 Charge =  0 Multiplicity = 1

 SCF Done:  E(RB3LYP) =  -1260.82414684     A.U. after   17 cycles
 Normal termination of Gaussian 16 at Sun Dec 13 16:56:27 2020.

 ----------------------------------------------------------------------
 # B3LYP/6-311++G(d,p) empiricaldispersion=gd3bj scf=xqc pop=npa geom=c
 heck
 ----------------------------------------------------------------------

 --------------------------------------
 CID_126215073_JID_10017_Energie_kation
 --------------------------------------
 Structure from the checkpoint file:  "JID_10017.chk"
 Charge =  1 Multiplicity = 2

 SCF Done:  E(UB3LYP) =  -1260.53386416     A.U. after   25 cycles
 Normal termination of Gaussian 16 at Sun Dec 13 17:15:17 2020.
 Gaussian 16:  ES64L-G16RevA.03 25-Dec-2016

 ----------------------------------------------------------------------
 # B3LYP/6-311++G(d,p) empiricaldispersion=gd3bj scf=xqc pop=npa geom=c
 heck
 ----------------------------------------------------------------------

 -------------------------------------
 CID_126215073_JID_10017_Energie_anion
 -------------------------------------
 Structure from the checkpoint file:  "JID_10017.chk"
 Charge = -1 Multiplicity = 2

                         Standard orientation:
 ---------------------------------------------------------------------
 Center     Atomic      Atomic             Coordinates (Angstroms)
 Number     Number       Type             X           Y           Z
 ---------------------------------------------------------------------
      1          6           0       -5.315795   -2.338873   -0.041651
      2          6           0       -3.871933   -2.096825   -0.491985
      3          6           0       -3.674048   -0.789805   -1.275942
      4          6           0       -4.066859    0.495130   -0.534351
      5          6           0       -3.270399    0.770065    0.746169
      6          7           0       -1.828379    0.879677    0.501554
      7          6           0       -0.927164   -0.109351    0.885925
      8          8           0       -1.249551   -1.129095    1.474111
      9          6           0        0.460036    0.247532    0.462721
     10          6           0        1.423825   -0.688772    0.603063
     11          6           0        2.824886   -0.740923    0.213465
     12          6           0        3.384245   -2.010245   -0.034262
     13          6           0        4.697293   -2.169398   -0.459005
     14          6           0        5.503123   -1.041239   -0.626521
     15          6           0        4.994309    0.225859   -0.353100
     16          6           0        3.674153    0.378225    0.074896
     17          8           0        3.168551    1.596062    0.417467
     18         16           0        0.485309    1.847067   -0.295004
     19          6           0       -1.306735    1.991456   -0.142705
     20          8           0       -1.946433    2.941473   -0.532642
     21          1           0       -5.647441   -1.590482    0.687417
     22          1           0       -5.420150   -3.321437    0.431595
     23          1           0       -6.009364   -2.301285   -0.891380
     24          1           0       -3.203291   -2.112419    0.375753
     25          1           0       -3.552869   -2.928654   -1.133788
     26          1           0       -2.623445   -0.715688   -1.588047
     27          1           0       -4.261048   -0.835460   -2.203500
     28          1           0       -3.947710    1.354145   -1.202717
     29          1           0       -5.127317    0.463553   -0.255472
     30          1           0       -3.599259    1.710012    1.197439
     31          1           0       -3.385385   -0.031817    1.477328
     32          1           0        1.040863   -1.613108    1.033477
     33          1           0        2.748434   -2.881768    0.094981
     34          1           0        5.090785   -3.161221   -0.656173
     35          1           0        6.532494   -1.144674   -0.956432
     36          1           0        5.626085    1.105880   -0.454603
     37          1           0        3.818172    2.289090    0.221533
 ---------------------------------------------------------------------

 SCF Done:  E(UB3LYP) =  -1260.85716639     A.U. after   24 cycles

 The electronic state is 2-A.
 Alpha  occ. eigenvalues --  -88.73357 -19.04388 -18.98028 -18.95032 -14.23382
 Alpha  occ. eigenvalues --  -10.16702 -10.12710 -10.11275 -10.09923 -10.07263
 Alpha  occ. eigenvalues --  -10.06766 -10.06675 -10.06381 -10.05739 -10.05383
 Alpha  occ. eigenvalues --  -10.05286 -10.05092 -10.05038 -10.04719 -10.02650
 Alpha  occ. eigenvalues --   -7.81967  -5.78287  -5.77956  -5.77437  -0.95635
 Alpha  occ. eigenvalues --   -0.93909  -0.90557  -0.82305  -0.73533  -0.71299
 Alpha  occ. eigenvalues --   -0.69069  -0.65629  -0.63744  -0.62301  -0.59250
 Alpha  occ. eigenvalues --   -0.58262  -0.53419  -0.52550  -0.51300  -0.49063
 Alpha  occ. eigenvalues --   -0.46947  -0.43874  -0.42291  -0.41171  -0.38111
 Alpha  occ. eigenvalues --   -0.37480  -0.36988  -0.35593  -0.34723  -0.34077
 Alpha  occ. eigenvalues --   -0.32984  -0.31941  -0.31483  -0.31076  -0.30566
 Alpha  occ. eigenvalues --   -0.30353  -0.29499  -0.29138  -0.27772  -0.27268
 Alpha  occ. eigenvalues --   -0.26804  -0.26724  -0.26196  -0.24529  -0.23322
 Alpha  occ. eigenvalues --   -0.23108  -0.22542  -0.22498  -0.22337  -0.21295
 Alpha  occ. eigenvalues --   -0.18818  -0.15796  -0.15654  -0.14342  -0.12671
 Alpha  occ. eigenvalues --   -0.11962  -0.08637   0.02160
 Alpha virt. eigenvalues --    0.06706   0.07258   0.08432   0.08801   0.08963
 Alpha virt. eigenvalues --    0.09714   0.10207   0.10323   0.11504   0.11666
 Alpha virt. eigenvalues --    0.11898   0.12065   0.12471   0.12725   0.12997

  Beta  occ. eigenvalues --  -88.73371 -19.04353 -18.97873 -18.94724 -14.23420
  Beta  occ. eigenvalues --  -10.16589 -10.12468 -10.11129 -10.09923 -10.07263
  Beta  occ. eigenvalues --  -10.06766 -10.06675 -10.06380 -10.05788 -10.05296
  Beta  occ. eigenvalues --  -10.05230 -10.05141 -10.04804 -10.04535 -10.02287
  Beta  occ. eigenvalues --   -7.81979  -5.78302  -5.77970  -5.77464  -0.95539
  Beta  occ. eigenvalues --   -0.93642  -0.90065  -0.82113  -0.73273  -0.71203
  Beta  occ. eigenvalues --   -0.68851  -0.65355  -0.63599  -0.62105  -0.59070
  Beta  occ. eigenvalues --   -0.57997  -0.53299  -0.52036  -0.51181  -0.48786
  Beta  occ. eigenvalues --   -0.46899  -0.43693  -0.42010  -0.41023  -0.38004
  Beta  occ. eigenvalues --   -0.37374  -0.36883  -0.35478  -0.34560  -0.33857
  Beta  occ. eigenvalues --   -0.32808  -0.31809  -0.31282  -0.30756  -0.30426
  Beta  occ. eigenvalues --   -0.29977  -0.29259  -0.28960  -0.27661  -0.27149
  Beta  occ. eigenvalues --   -0.26646  -0.26337  -0.25176  -0.24406  -0.23266
  Beta  occ. eigenvalues --   -0.22877  -0.22476  -0.22322  -0.22002  -0.21080
  Beta  occ. eigenvalues --   -0.17792  -0.15604  -0.14746  -0.13743  -0.12389
  Beta  occ. eigenvalues --   -0.11455  -0.07316
  Beta virt. eigenvalues --    0.06699   0.07241   0.07785   0.08420   0.08797
  Beta virt. eigenvalues --    0.08959   0.09705   0.10258   0.10896   0.11625
  Beta virt. eigenvalues --    0.11692   0.12040   0.12462   0.12626   0.12928

 Mulliken charges and spin densities:
               1          2
     1  C   -0.621192  -0.001094
     2  C   -0.197592  -0.005791
     3  C   -0.073346   0.003280
     4  C   -0.344385  -0.008200
     5  C   -0.180225   0.003989
     6  N    0.360792  -0.027106
     7  C   -0.829032   0.126802
     8  O   -0.358697   0.116704
     9  C    0.554672   0.084639
    10  C    0.304691   0.308941
    11  C    1.210305  -0.054990
    12  C   -0.160840   0.171777
    13  C   -0.380794  -0.054982
    14  C   -0.329325   0.211475
    15  C   -0.161520  -0.040613
    16  C   -1.484191   0.086886
    17  O   -0.195784   0.008158
    18  S   -0.038463  -0.031559
    19  C   -0.230606   0.070727
    20  O   -0.364937   0.051582
    21  H    0.136906   0.000230
    22  H    0.127328  -0.000014
    23  H    0.122769   0.000021
    24  H    0.202470   0.003811
    25  H    0.119576  -0.000130
    26  H    0.156358   0.001989
    27  H    0.139092  -0.000263
    28  H    0.198283  -0.001902
    29  H    0.103979   0.003357
    30  H    0.181524   0.005561
    31  H    0.187496  -0.003209
    32  H    0.181991  -0.018462
    33  H    0.112715  -0.001687
    34  H    0.114506   0.003425
    35  H    0.117157  -0.015697
    36  H    0.076102   0.002440
    37  H    0.242218  -0.000098
 Sum of Mulliken charges =  -1.00000   1.00000

 Dipole moment (field-independent basis, Debye):
    X=             -1.7855    Y=             -0.2594    Z=             -1.2060  Tot=              2.1703
 Quadrupole moment (field-independent basis, Debye-Ang):
   XX=           -166.3746   YY=           -150.1649   ZZ=           -141.3134
   XY=             14.6931   XZ=             -1.1062   YZ=              6.4690

 Summary of Natural Population Analysis:

                                       Natural Population
                Natural  -----------------------------------------------
    Atom  No    Charge         Core      Valence    Rydberg      Total
 -----------------------------------------------------------------------
      C    1   -0.28713      0.99967     2.28324    0.00422     3.28713
      C    2   -0.20185      0.99964     2.19484    0.00737     3.20185
      C    3   -0.19013      0.99963     2.18321    0.00728     3.19013
      C    4   -0.19712      0.99962     2.19062    0.00687     3.19712
      C    5   -0.08794      0.99962     2.07778    0.01054     3.08794
      N    6   -0.27695      0.99958     2.76506    0.01231     3.77695
      C    7    0.36852      0.99959     1.61071    0.02117     2.63148
      O    8   -0.29558      0.99987     3.29010    0.00560     4.29558
      C    9   -0.11481      0.99937     2.10615    0.00929     3.11481
      C   10   -0.01184      0.99946     2.00168    0.01069     3.01184
      C   11   -0.06124      0.99947     2.05264    0.00912     3.06124
      C   12   -0.04208      0.99955     2.03415    0.00838     3.04208
      C   13   -0.14440      0.99957     2.13530    0.00953     3.14440
      C   14   -0.04987      0.99959     2.04048    0.00980     3.04987
      C   15   -0.16217      0.99954     2.15320    0.00943     3.16217
      C   16    0.19296      0.99936     1.79607    0.01160     2.80704
      O   17   -0.33477      0.99987     3.32773    0.00717     4.33477
      S   18    0.12508      4.99948     2.85501    0.02042     7.87492
      C   19    0.28761      0.99971     1.68508    0.02760     2.71239
      O   20   -0.30554      0.99987     3.29747    0.00820     4.30554
      H   21    0.09393      0.00000     0.40519    0.00088     0.40607
      H   22    0.09594      0.00000     0.40324    0.00082     0.40406
      H   23    0.08988      0.00000     0.40907    0.00105     0.41012
      H   24    0.11563      0.00000     0.38299    0.00138     0.38437
      H   25    0.09080      0.00000     0.40805    0.00115     0.40920
      H   26    0.10438      0.00000     0.39465    0.00097     0.39562
      H   27    0.08943      0.00000     0.40948    0.00109     0.41057
      H   28    0.10739      0.00000     0.39134    0.00127     0.39261
      H   29    0.09130      0.00000     0.40769    0.00101     0.40870
      H   30    0.09989      0.00000     0.39897    0.00113     0.40011
      H   31    0.10881      0.00000     0.38989    0.00130     0.39119
      H   32    0.10654      0.00000     0.39177    0.00170     0.39346
      H   33    0.09368      0.00000     0.40485    0.00147     0.40632
      H   34    0.09362      0.00000     0.40532    0.00105     0.40638
      H   35    0.08883      0.00000     0.41010    0.00106     0.41117
      H   36    0.08997      0.00000     0.40877    0.00126     0.41003
      H   37    0.22921      0.00000     0.26838    0.00242     0.27079
 =======================================================================
   * Total *   -0.00000     23.99207    52.77030    0.23763    77.00000

 Normal termination of Gaussian 16 at Sun Dec 13 17:32:51 2020.
