 Gaussian 16, Revision A.03,

 -----------------------------------------------------------
 # opt freq B3LYP/6-31G(d) empiricaldispersion=gd3bj scf=xqc
 -----------------------------------------------------------

 -------------------------------
 CID_106259273_JID_3118_neutraal
 -------------------------------
 Symbolic Z-matrix:
 Charge =  0 Multiplicity = 1

 SCF Done:  E(RB3LYP) =  -592.728016723     A.U. after   14 cycles
 SCF Done:  E(RB3LYP) =  -592.733222520     A.U. after   12 cycles
 SCF Done:  E(RB3LYP) =  -592.733672970     A.U. after   11 cycles
 SCF Done:  E(RB3LYP) =  -592.733988895     A.U. after   11 cycles
 SCF Done:  E(RB3LYP) =  -592.734176978     A.U. after   12 cycles
 SCF Done:  E(RB3LYP) =  -592.734374440     A.U. after   11 cycles
 SCF Done:  E(RB3LYP) =  -592.734932669     A.U. after   13 cycles
 SCF Done:  E(RB3LYP) =  -592.732138540     A.U. after   16 cycles
 SCF Done:  E(RB3LYP) =  -592.735957299     A.U. after   13 cycles
 SCF Done:  E(RB3LYP) =  -592.735961480     A.U. after   13 cycles
 SCF Done:  E(RB3LYP) =  -592.741534941     A.U. after   12 cycles
 SCF Done:  E(RB3LYP) =  -592.741536421     A.U. after   10 cycles
 SCF Done:  E(RB3LYP) =  -592.741543828     A.U. after   10 cycles
 SCF Done:  E(RB3LYP) =  -592.741544650     A.U. after    7 cycles
 SCF Done:  E(RB3LYP) =  -592.741545615     A.U. after    8 cycles
 SCF Done:  E(RB3LYP) =  -592.741545936     A.U. after    8 cycles
 Optimization completed.
    -- Stationary point found.
 Normal termination of Gaussian 16 at Wed Dec  9 22:39:14 2020.

 --------------------------------------------------------------------
 #N Geom=AllCheck Guess=TCheck SCRF=Check GenChk RB3LYP/6-31G(d) Freq
 --------------------------------------------------------------------

 Structure from the checkpoint file:  "JID_3118.chk"
 -------------------------------
 CID_106259273_JID_3118_neutraal
 -------------------------------
 Charge =  0 Multiplicity = 1

 SCF Done:  E(RB3LYP) =  -592.741545936     A.U. after    1 cycles

  Exact polarizability: 155.032  -5.785 106.127  -6.143  -1.142  92.916
 Approx polarizability: 199.550 -17.525 152.802 -13.453  -0.540 139.091

                      1                      2                      3
                      A                      A                      A
 Frequencies --     52.9169                62.7159                69.8269
 Red. masses --      2.7659                 3.2948                 4.2150
 Frc consts  --      0.0046                 0.0076                 0.0121
 IR Inten    --      0.9205                 0.3458                 3.9810

                      4                      5                      6
                      A                      A                      A
 Frequencies --     96.9822               149.7304               154.2673
 Red. masses --      4.8071                 1.3274                 2.8250
 Frc consts  --      0.0266                 0.0175                 0.0396
 IR Inten    --      5.2208                 0.1399                 1.1712

                      7                      8                      9
                      A                      A                      A
 Frequencies --    175.9818               211.6143               215.9516
 Red. masses --      2.4200                 1.7743                 1.3819
 Frc consts  --      0.0442                 0.0468                 0.0380
 IR Inten    --      1.4319                 0.4059                 1.3559

                     10                     11                     12
                      A                      A                      A
 Frequencies --    246.7391               259.6661               280.0632
 Red. masses --      1.0666                 1.9397                 3.5599
 Frc consts  --      0.0383                 0.0771                 0.1645
 IR Inten    --      0.1854                 3.2885                 2.0930

                     13                     14                     15
                      A                      A                      A
 Frequencies --    301.0314               318.5292               348.4029
 Red. masses --      2.5820                 3.2544                 3.5831
 Frc consts  --      0.1379                 0.1945                 0.2563
 IR Inten    --      1.7544                 9.5827                23.6729

                     16                     17                     18
                      A                      A                      A
 Frequencies --    395.4939               406.1264               467.9853
 Red. masses --      3.1737                 1.2886                 3.2947
 Frc consts  --      0.2925                 0.1252                 0.4251
 IR Inten    --     11.3920                96.1333                11.0138

                     19                     20                     21
                      A                      A                      A
 Frequencies --    509.8983               558.4594               586.3332
 Red. masses --      4.0012                 1.3606                 2.5684
 Frc consts  --      0.6129                 0.2500                 0.5202
 IR Inten    --     14.7821               150.3802                16.1159

                     22                     23                     24
                      A                      A                      A
 Frequencies --    610.0246               636.8931               719.6058
 Red. masses --      4.1141                 3.1210                 5.2680
 Frc consts  --      0.9020                 0.7459                 1.6072
 IR Inten    --      9.8132                15.3908                16.2500

                     25                     26                     27
                      A                      A                      A
 Frequencies --    735.2107               780.4827               792.9783
 Red. masses --      5.4241                 2.9830                 2.5950
 Frc consts  --      1.7274                 1.0706                 0.9614
 IR Inten    --     13.4544                11.7870                 2.4477

                     28                     29                     30
                      A                      A                      A
 Frequencies --    910.6479               920.8652               947.5388
 Red. masses --      1.6731                 2.3323                 1.1980
 Frc consts  --      0.8175                 1.1653                 0.6337
 IR Inten    --      3.1264                 9.5290                 5.2424

                     31                     32                     33
                      A                      A                      A
 Frequencies --    968.5209               981.8756               984.8755
 Red. masses --      2.3130                 1.5814                 2.0027
 Frc consts  --      1.2783                 0.8983                 1.1445
 IR Inten    --      3.1224                 1.6974                 3.9085

                     34                     35                     36
                      A                      A                      A
 Frequencies --   1028.3155              1065.1812              1109.5978
 Red. masses --      2.6184                 1.9386                 1.7213
 Frc consts  --      1.6313                 1.2959                 1.2486
 IR Inten    --      7.1011                21.7349                 8.5187

                     37                     38                     39
                      A                      A                      A
 Frequencies --   1123.8463              1131.7076              1137.5827
 Red. masses --      2.1972                 1.9651                 2.1573
 Frc consts  --      1.6351                 1.4828                 1.6448
 IR Inten    --     26.9986                29.8449                 2.7149

                     40                     41                     42
                      A                      A                      A
 Frequencies --   1165.2843              1203.9866              1210.8141
 Red. masses --      1.3900                 1.8685                 1.4663
 Frc consts  --      1.1121                 1.5958                 1.2665
 IR Inten    --      1.2374                11.0723                 0.8868

                     43                     44                     45
                      A                      A                      A
 Frequencies --   1223.2941              1238.6988              1296.8384
 Red. masses --      1.8425                 1.2517                 2.3738
 Frc consts  --      1.6245                 1.1316                 2.3522
 IR Inten    --      8.3198                19.7829                40.1018

                     46                     47                     48
                      A                      A                      A
 Frequencies --   1301.1159              1332.9584              1340.4590
 Red. masses --      1.2644                 1.6385                 2.0984
 Frc consts  --      1.2612                 1.7153                 2.2215
 IR Inten    --      1.8341                85.5859                 9.4007

                     49                     50                     51
                      A                      A                      A
 Frequencies --   1349.5357              1364.5614              1394.9099
 Red. masses --      1.3884                 2.4478                 1.2888
 Frc consts  --      1.4898                 2.6855                 1.4775
 IR Inten    --      6.8352                86.4143                 1.6572

                     52                     53                     54
                      A                      A                      A
 Frequencies --   1398.3622              1425.8305              1450.7926
 Red. masses --      2.0237                 1.2158                 1.2849
 Frc consts  --      2.3315                 1.4562                 1.5935
 IR Inten    --     12.0407                 5.4361                 4.7739

                     55                     56                     57
                      A                      A                      A
 Frequencies --   1453.1203              1472.2155              1514.8730
 Red. masses --      1.5259                 1.6698                 1.0502
 Frc consts  --      1.8983                 2.1324                 1.4200
 IR Inten    --     68.6684                73.6019                 3.4004

                     58                     59                     60
                      A                      A                      A
 Frequencies --   1521.9981              1522.5809              1524.2908
 Red. masses --      1.0472                 1.0872                 1.0473
 Frc consts  --      1.4293                 1.4850                 1.4337
 IR Inten    --      7.5259                 6.4111                 2.5637

                     61                     62                     63
                      A                      A                      A
 Frequencies --   1532.9452              1540.2375              1543.1362
 Red. masses --      1.0566                 1.1161                 1.0493
 Frc consts  --      1.4629                 1.5600                 1.4722
 IR Inten    --      1.5541                10.1216                12.4456

                     64                     65                     66
                      A                      A                      A
 Frequencies --   1566.4194              1655.7040              1731.8853
 Red. masses --      1.1467                 1.2595                 6.1061
 Frc consts  --      1.6578                 2.0342                10.7908
 IR Inten    --      8.2511                62.9055               364.7524

                     67                     68                     69
                      A                      A                      A
 Frequencies --   1799.7085              2958.5105              3001.5423
 Red. masses --     11.0419                 1.0806                 1.0706
 Frc consts  --     21.0716                 5.5727                 5.6829
 IR Inten    --    347.1648                33.7741                66.5020

                     70                     71                     72
                      A                      A                      A
 Frequencies --   3028.9373              3041.4200              3052.9999
 Red. masses --      1.0407                 1.0363                 1.0380
 Frc consts  --      5.6256                 5.6481                 5.7005
 IR Inten    --     81.8314                25.6740                40.5125

                     73                     74                     75
                      A                      A                      A
 Frequencies --   3068.6401              3080.9074              3089.4557
 Red. masses --      1.0910                 1.1014                 1.0619
 Frc consts  --      6.0527                 6.1596                 5.9714
 IR Inten    --     39.5373                34.5838                30.2454

                     76                     77                     78
                      A                      A                      A
 Frequencies --   3098.9017              3108.2102              3118.6442
 Red. masses --      1.0967                 1.1001                 1.1030
 Frc consts  --      6.2052                 6.2618                 6.3208
 IR Inten    --     21.2389                 8.6164                31.1472

                     79                     80                     81
                      A                      A                      A
 Frequencies --   3132.9766              3137.5567              3162.6495
 Red. masses --      1.0890                 1.1073                 1.0998
 Frc consts  --      6.2976                 6.4226                 6.4814
 IR Inten    --     43.2766                27.8268                 7.7898

                     82                     83                     84
                      A                      A                      A
 Frequencies --   3164.4952              3567.1621              3683.6892
 Red. masses --      1.0981                 1.0465                 1.1000
 Frc consts  --      6.4787                 7.8457                 8.7941
 IR Inten    --      1.9586                17.5654                13.1854

 - Thermochemistry -
 -------------------
 Temperature   298.150 Kelvin.  Pressure   1.00000 Atm.
 Atom     1 has atomic number  6 and mass  12.00000

 Molecular mass:   183.13716 amu.
 Principal axes and moments of inertia in atomic units:
                           1         2         3
     Eigenvalues --  1227.307043804.839924327.82627
           X            0.99995  -0.00822   0.00545
           Y            0.00819   0.99995   0.00572
           Z           -0.00550  -0.00567   0.99997
 This molecule is an asymmetric top.
 Rotational symmetry number  1.
 Warning -- assumption of classical behavior for rotation
           may cause significant error
 Rotational temperatures (Kelvin)      0.07057     0.02276     0.02001
 Rotational constants (GHZ):           1.47049     0.47433     0.41701
 Zero-point vibrational energy     693999.9 (Joules/Mol)
                                  165.86995 (Kcal/Mol)
 Warning -- explicit consideration of  22 degrees of freedom as
           vibrations may cause significant error
 Vibrational temperatures:     76.14    90.23   100.47   139.54   215.43
          (Kelvin)            221.96   253.20   304.47   310.71   355.00
                              373.60   402.95   433.12   458.29   501.27
                              569.03   584.33   673.33   733.63   803.50
                              843.60   877.69   916.35  1035.35  1057.80
                             1122.94  1140.92  1310.22  1324.92  1363.30
                             1393.49  1412.70  1417.02  1479.52  1532.56
                             1596.46  1616.96  1628.27  1636.73  1676.58
                             1732.27  1742.09  1760.05  1782.21  1865.86
                             1872.02  1917.83  1928.62  1941.68  1963.30
                             2006.96  2011.93  2051.45  2087.37  2090.72
                             2118.19  2179.56  2189.82  2190.65  2193.11
                             2205.57  2216.06  2220.23  2253.73  2382.19
                             2491.80  2589.38  4256.64  4318.55  4357.97
                             4375.93  4392.59  4415.09  4432.74  4445.04
                             4458.63  4472.02  4487.03  4507.65  4514.24
                             4550.35  4553.00  5132.35  5300.01

 Zero-point correction=                           0.264331 (Hartree/Particle)
 Thermal correction to Energy=                    0.278620
 Thermal correction to Enthalpy=                  0.279565
 Thermal correction to Gibbs Free Energy=         0.223547
 Sum of electronic and zero-point Energies=           -592.477215
 Sum of electronic and thermal Energies=              -592.462926
 Sum of electronic and thermal Enthalpies=            -592.461981
 Sum of electronic and thermal Free Energies=         -592.517999

                     E (Thermal)             CV                S
                      KCal/Mol        Cal/Mol-Kelvin    Cal/Mol-Kelvin
 Total                  174.837             53.097            117.899
 Electronic               0.000              0.000              0.000
 Translational            0.889              2.981             41.522
 Rotational               0.889              2.981             31.381
 Vibrational            173.059             47.135             44.996
 Vibration     1          0.596              1.976              4.705
 Vibration     2          0.597              1.972              4.370
 Vibration     3          0.598              1.969              4.158
 Vibration     4          0.603              1.951              3.514
 Vibration     5          0.618              1.903              2.676
 Vibration     6          0.620              1.898              2.619
 Vibration     7          0.628              1.872              2.371
 Vibration     8          0.643              1.823              2.030
 Vibration     9          0.645              1.817              1.993
 Vibration    10          0.661              1.768              1.754
 Vibration    11          0.668              1.746              1.664
 Vibration    12          0.680              1.710              1.533
 Vibration    13          0.693              1.672              1.411
 Vibration    14          0.705              1.638              1.318
 Vibration    15          0.726              1.579              1.173
 Vibration    16          0.762              1.480              0.979
 Vibration    17          0.771              1.457              0.940
 Vibration    18          0.825              1.321              0.743
 Vibration    19          0.865              1.228              0.634
 Vibration    20          0.914              1.121              0.527
 Vibration    21          0.943              1.061              0.474
 Vibration    22          0.969              1.011              0.433

 Optimization completed.
    -- Stationary point found.
 Normal termination of Gaussian 16 at Wed Dec  9 22:47:08 2020.

 ----------------------------------------------------------------------
 # B3LYP/6-311++G(d,p) empiricaldispersion=gd3bj scf=xqc pop=npa geom=c
 heck
 ----------------------------------------------------------------------

 ---------------------------------------
 CID_106259273_JID_3118_Energie_neutraal
 ---------------------------------------
 Structure from the checkpoint file:  "JID_3118.chk"
 Charge =  0 Multiplicity = 1

 SCF Done:  E(RB3LYP) =  -592.915722249     A.U. after   14 cycles
 Normal termination of Gaussian 16 at Wed Dec  9 22:50:40 2020.

 ----------------------------------------------------------------------
 # B3LYP/6-311++G(d,p) empiricaldispersion=gd3bj scf=xqc pop=npa geom=c
 heck
 ----------------------------------------------------------------------

 -------------------------------------
 CID_106259273_JID_3118_Energie_kation
 -------------------------------------
 Structure from the checkpoint file:  "JID_3118.chk"
 Charge =  1 Multiplicity = 2

 SCF Done:  E(UB3LYP) =  -592.622514832     A.U. after   27 cycles
 Normal termination of Gaussian 16 at Wed Dec  9 23:01:28 2020.
 Gaussian 16:  ES64L-G16RevA.03 25-Dec-2016

 ----------------------------------------------------------------------
 # B3LYP/6-311++G(d,p) empiricaldispersion=gd3bj scf=xqc pop=npa geom=c
 heck
 ----------------------------------------------------------------------

 ------------------------------------
 CID_106259273_JID_3118_Energie_anion
 ------------------------------------
 Structure from the checkpoint file:  "JID_3118.chk"
 Charge = -1 Multiplicity = 2

                         Standard orientation:
 ---------------------------------------------------------------------
 Center     Atomic      Atomic             Coordinates (Angstroms)
 Number     Number       Type             X           Y           Z
 ---------------------------------------------------------------------
      1          6           0        2.604097   -1.749138   -0.127958
      2          6           0        2.130506   -0.454328    0.548844
      3          6           0        3.206629    0.135654    1.479198
      4          6           0        1.676660    0.580016   -0.477376
      5          7           0        0.538043    1.166583   -0.572205
      6          6           0       -0.556896    0.804971    0.289225
      7          6           0       -1.706387    1.822961    0.214450
      8          6           0       -2.973905    0.987656    0.462520
      9          7           0       -2.592850   -0.336188   -0.007636
     10          6           0       -1.242872   -0.520901   -0.106981
     11          8           0       -0.684973   -1.563291   -0.421380
     12          6           0       -3.542869   -1.413690   -0.152423
     13          7           0        2.631473    0.901359   -1.426823
     14          1           0        3.479179   -1.577822   -0.764591
     15          1           0        1.798989   -2.160297   -0.740327
     16          1           0        2.878869   -2.489499    0.632382
     17          1           0        1.263044   -0.713815    1.157481
     18          1           0        4.139265    0.353892    0.943899
     19          1           0        2.865826    1.064539    1.950036
     20          1           0        3.450980   -0.579363    2.272531
     21          1           0       -0.256053    0.676363    1.344100
     22          1           0       -1.600424    2.648536    0.922675
     23          1           0       -1.715817    2.236271   -0.798305
     24          1           0       -3.251177    0.956151    1.528149
     25          1           0       -3.843747    1.357489   -0.093254
     26          1           0       -4.032350   -1.644066    0.804050
     27          1           0       -4.317182   -1.152369   -0.884183
     28          1           0       -2.996281   -2.293140   -0.497915
     29          1           0        3.603152    0.817632   -1.164130
     30          1           0        2.407061    1.724352   -1.971906
 ---------------------------------------------------------------------

 SCF Done:  E(UB3LYP) =  -592.901994081     A.U. after   32 cycles

 The electronic state is 2-A.
 Alpha  occ. eigenvalues --  -18.98697 -14.24283 -14.21698 -14.17808 -10.16297
 Alpha  occ. eigenvalues --  -10.13861 -10.10830 -10.10378 -10.10211 -10.08203
 Alpha  occ. eigenvalues --  -10.07169 -10.06584 -10.05692  -0.93785  -0.85147
 Alpha  occ. eigenvalues --   -0.84787  -0.76995  -0.69632  -0.68611  -0.61210
 Alpha  occ. eigenvalues --   -0.59822  -0.58808  -0.52713  -0.51024  -0.46276
 Alpha  occ. eigenvalues --   -0.44084  -0.42322  -0.41216  -0.38588  -0.37059
 Alpha  occ. eigenvalues --   -0.35959  -0.34631  -0.34194  -0.32905  -0.32470
 Alpha  occ. eigenvalues --   -0.31084  -0.29621  -0.29255  -0.28395  -0.28111
 Alpha  occ. eigenvalues --   -0.27116  -0.26575  -0.25642  -0.24496  -0.23564
 Alpha  occ. eigenvalues --   -0.22816  -0.16650  -0.14934  -0.14208  -0.12777
 Alpha  occ. eigenvalues --    0.04287
 Alpha virt. eigenvalues --    0.05692   0.07266   0.07660   0.08396   0.08944
 Alpha virt. eigenvalues --    0.09297   0.10117   0.10300   0.11311   0.11538
 Alpha virt. eigenvalues --    0.11655   0.12007   0.12136   0.12659   0.13643

  Beta  occ. eigenvalues --  -18.98695 -14.24281 -14.21665 -14.17797 -10.16294
  Beta  occ. eigenvalues --  -10.13859 -10.10793 -10.10369 -10.10178 -10.08197
  Beta  occ. eigenvalues --  -10.07157 -10.06539 -10.05680  -0.93780  -0.85127
  Beta  occ. eigenvalues --   -0.84766  -0.76957  -0.69601  -0.68583  -0.61158
  Beta  occ. eigenvalues --   -0.59773  -0.58749  -0.52661  -0.50977  -0.46221
  Beta  occ. eigenvalues --   -0.44053  -0.42277  -0.41172  -0.38533  -0.37024
  Beta  occ. eigenvalues --   -0.35932  -0.34598  -0.34165  -0.32871  -0.32438
  Beta  occ. eigenvalues --   -0.31040  -0.29589  -0.29221  -0.28368  -0.28087
  Beta  occ. eigenvalues --   -0.27083  -0.26535  -0.25611  -0.24471  -0.23533
  Beta  occ. eigenvalues --   -0.22787  -0.16633  -0.14898  -0.14167  -0.12753
  Beta virt. eigenvalues --    0.06589   0.06935   0.08011   0.08113   0.09124
  Beta virt. eigenvalues --    0.09326   0.09760   0.10369   0.10569   0.11553
  Beta virt. eigenvalues --    0.11791   0.12072   0.12297   0.12449   0.12991

 Mulliken charges and spin densities:
               1          2
     1  C   -0.392306  -0.220439
     2  C   -0.391982   0.901513
     3  C    1.088578  -1.673122
     4  C    0.072163  -0.142231
     5  N    0.025548   0.054156
     6  C   -0.195472  -0.751614
     7  C   -0.100374  -0.046442
     8  C    1.193338  -1.668001
     9  N   -0.233897   0.306706
    10  C   -0.261647   0.406196
    11  O   -0.357767   0.007260
    12  C    0.474113  -0.744498
    13  N   -0.381248   0.132862
    14  H    0.013884   0.100724
    15  H    0.219639  -0.010689
    16  H    0.001047   0.126601
    17  H    0.084731   0.106525
    18  H   -0.351085   0.469233
    19  H   -0.259691   0.422417
    20  H   -0.187247   0.335556
    21  H    0.011049   0.151787
    22  H   -0.192413   0.362221
    23  H    0.220476  -0.051720
    24  H   -0.380668   0.550111
    25  H   -0.272057   0.449744
    26  H   -0.301598   0.451133
    27  H   -0.234068   0.386347
    28  H    0.063984   0.109639
    29  H   -0.089179   0.337510
    30  H    0.114149   0.140516
 Sum of Mulliken charges =  -1.00000   1.00000

 Dipole moment (field-independent basis, Debye):
    X=              0.7490    Y=             -0.7161    Z=             -1.8817  Tot=              2.1481
 Quadrupole moment (field-independent basis, Debye-Ang):
   XX=           -164.1150   YY=           -113.9121   ZZ=           -116.0744
   XY=             -1.5020   XZ=              1.6543   YZ=             -3.8253

 Summary of Natural Population Analysis:

                                       Natural Population
                Natural  -----------------------------------------------
    Atom  No    Charge         Core      Valence    Rydberg      Total
 -----------------------------------------------------------------------
      C    1   -0.28128      0.99965     2.27563    0.00600     3.28128
      C    2   -0.14474      0.99956     2.13506    0.01011     3.14474
      C    3   -0.28180      0.99965     2.27616    0.00600     3.28180
      C    4    0.24790      0.99956     1.73428    0.01825     2.75210
      N    5   -0.28867      0.99963     2.77725    0.01180     3.78867
      C    6   -0.05590      0.99953     2.04228    0.01409     3.05590
      C    7   -0.18908      0.99963     2.17962    0.00984     3.18908
      C    8   -0.07611      0.99963     2.06652    0.00996     3.07611
      N    9   -0.25094      0.99964     2.74053    0.01077     3.75094
      C   10    0.34987      0.99961     1.62660    0.02393     2.65013
      O   11   -0.32868      0.99987     3.32334    0.00547     4.32868
      C   12   -0.17841      0.99964     2.17033    0.00844     3.17841
      N   13   -0.39971      0.99970     2.89039    0.00962     3.89971
      H   14    0.09437      0.00000     0.40464    0.00099     0.40563
      H   15    0.11485      0.00000     0.38407    0.00108     0.38515
      H   16    0.09529      0.00000     0.40396    0.00075     0.40471
      H   17    0.10696      0.00000     0.39032    0.00272     0.39304
      H   18    0.09504      0.00000     0.40299    0.00197     0.40496
      H   19    0.10240      0.00000     0.39611    0.00148     0.39760
      H   20    0.10043      0.00000     0.39855    0.00102     0.39957
      H   21    0.09616      0.00000     0.40115    0.00269     0.40384
      H   22    0.10229      0.00000     0.39651    0.00120     0.39771
      H   23    0.10291      0.00000     0.39490    0.00218     0.39709
      H   24    0.09137      0.00000     0.40595    0.00268     0.40863
      H   25    0.09627      0.00000     0.40200    0.00173     0.40373
      H   26    0.09411      0.00000     0.40458    0.00130     0.40589
      H   27    0.09514      0.00000     0.40353    0.00133     0.40486
      H   28    0.11138      0.00000     0.38751    0.00112     0.38862
      H   29    0.18834      0.00000     0.30933    0.00232     0.31166
      H   30    0.19023      0.00000     0.30766    0.00212     0.30977
 =======================================================================
   * Total *   -0.00000     12.99529    36.83177    0.17294    50.00000

 Normal termination of Gaussian 16 at Wed Dec  9 23:13:11 2020.
