 Gaussian 16, Revision A.03,

 -----------------------------------------------------------
 # opt freq B3LYP/6-31G(d) empiricaldispersion=gd3bj scf=xqc
 -----------------------------------------------------------

 -------------------------------
 CID_137971864_JID_9588_neutraal
 -------------------------------
 Symbolic Z-matrix:
 Charge =  0 Multiplicity = 1

 SCF Done:  E(RB3LYP) =  -1296.56678892     A.U. after   15 cycles
 SCF Done:  E(RB3LYP) =  -1296.57198005     A.U. after   12 cycles
 SCF Done:  E(RB3LYP) =  -1296.57181915     A.U. after   13 cycles
 SCF Done:  E(RB3LYP) =  -1296.57294131     A.U. after   13 cycles
 SCF Done:  E(RB3LYP) =  -1296.57328558     A.U. after   12 cycles
 SCF Done:  E(RB3LYP) =  -1296.57340730     A.U. after   11 cycles
 SCF Done:  E(RB3LYP) =  -1296.57347728     A.U. after   12 cycles
 SCF Done:  E(RB3LYP) =  -1296.57351562     A.U. after   12 cycles
 SCF Done:  E(RB3LYP) =  -1296.57353002     A.U. after   10 cycles
 SCF Done:  E(RB3LYP) =  -1296.57354939     A.U. after   11 cycles
 SCF Done:  E(RB3LYP) =  -1296.57383023     A.U. after   10 cycles
 SCF Done:  E(RB3LYP) =  -1296.57383524     A.U. after    9 cycles
 SCF Done:  E(RB3LYP) =  -1296.57383717     A.U. after    9 cycles
 SCF Done:  E(RB3LYP) =  -1296.57383742     A.U. after    9 cycles
 SCF Done:  E(RB3LYP) =  -1296.57383765     A.U. after    9 cycles
 SCF Done:  E(RB3LYP) =  -1296.57383765     A.U. after    6 cycles
 Optimization completed.
    -- Stationary point found.
 Normal termination of Gaussian 16 at Sun Dec 13 20:51:51 2020.

 --------------------------------------------------------------------
 #N Geom=AllCheck Guess=TCheck SCRF=Check GenChk RB3LYP/6-31G(d) Freq
 --------------------------------------------------------------------

 Structure from the checkpoint file:  "JID_9588.chk"
 -------------------------------
 CID_137971864_JID_9588_neutraal
 -------------------------------
 Charge =  0 Multiplicity = 1

 SCF Done:  E(RB3LYP) =  -1296.57383765     A.U. after    1 cycles

  Exact polarizability: 199.116   0.759 175.531 -17.010  -8.246 112.643
 Approx polarizability: 262.992  -8.810 275.848 -32.423 -13.575 190.672

                      1                      2                      3
                      A                      A                      A
 Frequencies --     19.1886                26.1705                38.0249
 Red. masses --      5.0933                 5.0297                 3.7694
 Frc consts  --      0.0011                 0.0020                 0.0032
 IR Inten    --      1.1594                 1.1322                 0.9702

                      4                      5                      6
                      A                      A                      A
 Frequencies --     52.9077                63.9644                85.4532
 Red. masses --      3.7460                 4.1093                 4.7982
 Frc consts  --      0.0062                 0.0099                 0.0206
 IR Inten    --      0.1025                 0.2582                 2.0759

                      7                      8                      9
                      A                      A                      A
 Frequencies --     98.3711               119.6505               137.4078
 Red. masses --      5.3523                 3.0694                 2.3933
 Frc consts  --      0.0305                 0.0259                 0.0266
 IR Inten    --      2.1045                 5.5431                 0.7163

                     10                     11                     12
                      A                      A                      A
 Frequencies --    155.6806               159.7483               182.6626
 Red. masses --      5.4520                 3.6363                 4.1336
 Frc consts  --      0.0779                 0.0547                 0.0813
 IR Inten    --      0.8386                 0.9341                 1.0944

                     13                     14                     15
                      A                      A                      A
 Frequencies --    206.3102               239.0407               255.6578
 Red. masses --      1.6651                 2.9239                 1.8574
 Frc consts  --      0.0418                 0.0984                 0.0715
 IR Inten    --      2.4402                 5.8837                 2.1584

                     16                     17                     18
                      A                      A                      A
 Frequencies --    262.1874               266.1767               288.8238
 Red. masses --      2.1154                 6.2720                 4.3554
 Frc consts  --      0.0857                 0.2618                 0.2141
 IR Inten    --     11.9781                 6.6193                 2.0460

                     19                     20                     21
                      A                      A                      A
 Frequencies --    300.0447               345.1210               376.6459
 Red. masses --      6.4940                 3.9496                 3.4529
 Frc consts  --      0.3445                 0.2772                 0.2886
 IR Inten    --      2.6826                 2.8239                 3.1992

                     22                     23                     24
                      A                      A                      A
 Frequencies --    387.8780               403.5219               416.4543
 Red. masses --      4.5908                 2.7886                 4.9360
 Frc consts  --      0.4069                 0.2675                 0.5044
 IR Inten    --      6.5952                10.4754                 5.3532

                     25                     26                     27
                      A                      A                      A
 Frequencies --    478.0293               512.5085               528.3198
 Red. masses --      2.8521                 6.1555                 4.5728
 Frc consts  --      0.3840                 0.9526                 0.7520
 IR Inten    --     21.2870                20.9601                17.4864

                     28                     29                     30
                      A                      A                      A
 Frequencies --    562.3439               586.6914               602.5953
 Red. masses --      4.0957                 1.5198                 6.4974
 Frc consts  --      0.7631                 0.3082                 1.3901
 IR Inten    --      6.4573                28.4991               129.6853

                     31                     32                     33
                      A                      A                      A
 Frequencies --    619.7137               639.0265               696.9330
 Red. masses --      2.6101                 4.7705                 5.3052
 Frc consts  --      0.5906                 1.1478                 1.5182
 IR Inten    --      3.4466                33.9119                87.4372

                     34                     35                     36
                      A                      A                      A
 Frequencies --    713.5480               732.4910               768.1428
 Red. masses --      4.1266                 4.7495                 1.8332
 Frc consts  --      1.2379                 1.5014                 0.6373
 IR Inten    --     10.5169                79.6935                39.0969

                     37                     38                     39
                      A                      A                      A
 Frequencies --    795.5954               802.8592               806.3089
 Red. masses --      3.1356                 1.4821                 2.4867
 Frc consts  --      1.1694                 0.5629                 0.9525
 IR Inten    --     29.2514                 6.5960                18.9413

                     40                     41                     42
                      A                      A                      A
 Frequencies --    854.6324               907.8394               928.8044
 Red. masses --      2.5058                 1.3703                 1.7317
 Frc consts  --      1.0783                 0.6654                 0.8802
 IR Inten    --     62.0706                 2.4060                59.3308

                     43                     44                     45
                      A                      A                      A
 Frequencies --    948.5202               976.0505               978.6186
 Red. masses --      2.0377                 1.8679                 1.3952
 Frc consts  --      1.0801                 1.0485                 0.7872
 IR Inten    --    130.0419                 9.5475                 3.8048

                     46                     47                     48
                      A                      A                      A
 Frequencies --   1004.8053              1014.0011              1058.9583
 Red. masses --      1.2906                 2.1985                 3.0845
 Frc consts  --      0.7677                 1.3318                 2.0379
 IR Inten    --      0.2884                30.2923                15.1375

                     49                     50                     51
                      A                      A                      A
 Frequencies --   1062.0621              1075.6162              1107.3777
 Red. masses --      6.2285                 3.1159                 1.9353
 Frc consts  --      4.1393                 2.1240                 1.3983
 IR Inten    --     11.9286                13.0823                47.2774

                     52                     53                     54
                      A                      A                      A
 Frequencies --   1111.7565              1145.5760              1153.3426
 Red. masses --      5.5951                 2.7278                 2.8556
 Frc consts  --      4.0745                 2.1092                 2.2381
 IR Inten    --     63.2399                81.3283                51.6063

                     55                     56                     57
                      A                      A                      A
 Frequencies --   1154.9421              1165.3369              1186.2742
 Red. masses --      1.9951                 2.0771                 1.7444
 Frc consts  --      1.5680                 1.6619                 1.4464
 IR Inten    --     40.0078                98.7738                13.1161

                     58                     59                     60
                      A                      A                      A
 Frequencies --   1200.3608              1205.7379              1221.2442
 Red. masses --      1.1008                 1.8758                 1.7193
 Frc consts  --      0.9345                 1.6068                 1.5108
 IR Inten    --      1.0734                23.4808               159.4402

                     61                     62                     63
                      A                      A                      A
 Frequencies --   1234.1471              1276.9488              1295.0216
 Red. masses --      1.5714                 1.1566                 2.3160
 Frc consts  --      1.4102                 1.1112                 2.2885
 IR Inten    --     27.2227                22.6749                84.7624

                     64                     65                     66
                      A                      A                      A
 Frequencies --   1299.1273              1308.6541              1324.2844
 Red. masses --      1.4613                 1.4229                 1.6667
 Frc consts  --      1.4531                 1.4358                 1.7222
 IR Inten    --      4.0143                 9.2524                57.4243

                     67                     68                     69
                      A                      A                      A
 Frequencies --   1354.7872              1376.2945              1398.4357
 Red. masses --      8.5996                 1.4031                 2.6996
 Frc consts  --      9.2997                 1.5659                 3.1106
 IR Inten    --      1.8988                17.8840               112.1110

                     70                     71                     72
                      A                      A                      A
 Frequencies --   1405.2687              1431.2698              1442.9144
 Red. masses --      1.5062                 1.3060                 1.2392
 Frc consts  --      1.7524                 1.5762                 1.5201
 IR Inten    --      1.4031                15.4837                 1.6636

                     73                     74                     75
                      A                      A                      A
 Frequencies --   1470.2429              1485.7323              1504.5943
 Red. masses --      1.2649                 2.1826                 1.1564
 Frc consts  --      1.6110                 2.8386                 1.5424
 IR Inten    --     55.0326                13.7787                 2.4860

                     76                     77                     78
                      A                      A                      A
 Frequencies --   1517.7314              1518.8510              1519.4845
 Red. masses --      2.5565                 1.0587                 1.0693
 Frc consts  --      3.4696                 1.4390                 1.4546
 IR Inten    --      1.9213                 3.1020                 1.6482

                     79                     80                     81
                      A                      A                      A
 Frequencies --   1529.4287              1533.6171              1539.7023
 Red. masses --      1.0478                 1.0577                 1.0612
 Frc consts  --      1.4441                 1.4658                 1.4823
 IR Inten    --      1.7634                10.5217                 7.6067

                     82                     83                     84
                      A                      A                      A
 Frequencies --   1561.6232              1629.7155              1651.9548
 Red. masses --      1.0826                 5.8193                 5.8086
 Frc consts  --      1.5555                 9.1064                 9.3393
 IR Inten    --      9.2053                 2.5787                 6.0370

                     85                     86                     87
                      A                      A                      A
 Frequencies --   1834.6092              3006.4819              3021.5495
 Red. masses --     10.5851                 1.0395                 1.0576
 Frc consts  --     20.9910                 5.5361                 5.6888
 IR Inten    --    309.5751                56.0957                56.9231

                     88                     89                     90
                      A                      A                      A
 Frequencies --   3050.7565              3057.8411              3061.5948
 Red. masses --      1.0383                 1.0598                 1.1018
 Frc consts  --      5.6935                 5.8387                 6.0849
 IR Inten    --     24.1454                18.3770                68.0552

                     91                     92                     93
                      A                      A                      A
 Frequencies --   3068.9197              3091.1025              3115.8779
 Red. masses --      1.1034                 1.1021                 1.0976
 Frc consts  --      6.1228                 6.2045                 6.2783
 IR Inten    --     23.0117                 4.8526                24.6078

                     94                     95                     96
                      A                      A                      A
 Frequencies --   3123.5940              3127.8436              3141.1947
 Red. masses --      1.0928                 1.0998                 1.0996
 Frc consts  --      6.2818                 6.3397                 6.3927
 IR Inten    --     18.4043                42.6009                29.0504

                     97                     98                     99
                      A                      A                      A
 Frequencies --   3199.7586              3214.2149              3228.2657
 Red. masses --      1.0870                 1.0926                 1.0944
 Frc consts  --      6.5571                 6.6504                 6.7199
 IR Inten    --      3.0520                13.1751                 6.1108

                    100                    101                    102
                      A                      A                      A
 Frequencies --   3247.6703              3478.7961              3695.8754
 Red. masses --      1.0919                 1.0729                 1.0640
 Frc consts  --      6.7854                 7.6501                 8.5631
 IR Inten    --      4.3908                40.7147                76.5455

 - Thermochemistry -
 -------------------
 Temperature   298.150 Kelvin.  Pressure   1.00000 Atm.
 Atom     1 has atomic number  6 and mass  12.00000

 Molecular mass:   287.08274 amu.
 Principal axes and moments of inertia in atomic units:
                           1         2         3
     Eigenvalues --  3082.032638282.557709949.74970
           X            0.99999   0.00471  -0.00246
           Y           -0.00468   0.99994   0.00997
           Z            0.00250  -0.00995   0.99995
 This molecule is an asymmetric top.
 Rotational symmetry number  1.
 Warning -- assumption of classical behavior for rotation
           may cause significant error
 Rotational temperatures (Kelvin)      0.02810     0.01046     0.00871
 Rotational constants (GHZ):           0.58557     0.21790     0.18139
 Zero-point vibrational energy     763037.1 (Joules/Mol)
                                  182.37023 (Kcal/Mol)
 Warning -- explicit consideration of  31 degrees of freedom as
           vibrations may cause significant error
 Vibrational temperatures:     27.61    37.65    54.71    76.12    92.03
          (Kelvin)            122.95   141.53   172.15   197.70   223.99
                              229.84   262.81   296.83   343.93   367.83
                              377.23   382.97   415.55   431.70   496.55
                              541.91   558.07   580.58   599.18   687.78
                              737.39   760.13   809.09   844.12   867.00
                              891.63   919.42  1002.73  1026.64  1053.89
                             1105.19  1144.68  1155.14  1160.10  1229.63
                             1306.18  1336.34  1364.71  1404.32  1408.01
                             1445.69  1458.92  1523.60  1528.07  1547.57
                             1593.27  1599.57  1648.23  1659.40  1661.70
                             1676.66  1706.78  1727.05  1734.79  1757.10
                             1775.66  1837.24  1863.25  1869.15  1882.86
                             1905.35  1949.24  1980.18  2012.04  2021.87
                             2059.28  2076.03  2115.35  2137.64  2164.78
                             2183.68  2185.29  2186.20  2200.51  2206.53
                             2215.29  2246.83  2344.80  2376.79  2639.59
                             4325.66  4347.34  4389.36  4399.55  4404.95
                             4415.49  4447.41  4483.05  4494.16  4500.27
                             4519.48  4603.74  4624.54  4644.75  4672.67
                             5005.21  5317.54

 Zero-point correction=                           0.290625 (Hartree/Particle)
 Thermal correction to Energy=                    0.310302
 Thermal correction to Enthalpy=                  0.311246
 Thermal correction to Gibbs Free Energy=         0.240264
 Sum of electronic and zero-point Energies=          -1296.283212
 Sum of electronic and thermal Energies=             -1296.263536
 Sum of electronic and thermal Enthalpies=           -1296.262592
 Sum of electronic and thermal Free Energies=        -1296.333574

                     E (Thermal)             CV                S
                      KCal/Mol        Cal/Mol-Kelvin    Cal/Mol-Kelvin
 Total                  194.717             71.988            149.394
 Electronic               0.000              0.000              0.000
 Translational            0.889              2.981             42.862
 Rotational               0.889              2.981             33.895
 Vibrational            192.940             66.026             72.637
 Vibration     1          0.593              1.986              6.716
 Vibration     2          0.593              1.985              6.100
 Vibration     3          0.594              1.982              5.359
 Vibration     4          0.596              1.976              4.706
 Vibration     5          0.597              1.972              4.331
 Vibration     6          0.601              1.959              3.762
 Vibration     7          0.604              1.950              3.486
 Vibration     8          0.609              1.933              3.106
 Vibration     9          0.614              1.916              2.840
 Vibration    10          0.620              1.896              2.602
 Vibration    11          0.622              1.892              2.553
 Vibration    12          0.630              1.863              2.301
 Vibration    13          0.641              1.831              2.076
 Vibration    14          0.657              1.781              1.810
 Vibration    15          0.666              1.753              1.691
 Vibration    16          0.669              1.742              1.647
 Vibration    17          0.672              1.735              1.621
 Vibration    18          0.685              1.695              1.481
 Vibration    19          0.693              1.674              1.417
 Vibration    20          0.723              1.585              1.188
 Vibration    21          0.747              1.520              1.053
 Vibration    22          0.756              1.496              1.008
 Vibration    23          0.769              1.463              0.950
 Vibration    24          0.780              1.434              0.904
 Vibration    25          0.835              1.299              0.715
 Vibration    26          0.868              1.222              0.628
 Vibration    27          0.883              1.187              0.591
 Vibration    28          0.918              1.113              0.519
 Vibration    29          0.944              1.060              0.473
 Vibration    30          0.961              1.026              0.445
 Vibration    31          0.980              0.990              0.417

 Optimization completed.
    -- Stationary point found.
 Normal termination of Gaussian 16 at Sun Dec 13 21:08:03 2020.

 ----------------------------------------------------------------------
 # B3LYP/6-311++G(d,p) empiricaldispersion=gd3bj scf=xqc pop=npa geom=c
 heck
 ----------------------------------------------------------------------

 ---------------------------------------
 CID_137971864_JID_9588_Energie_neutraal
 ---------------------------------------
 Structure from the checkpoint file:  "JID_9588.chk"
 Charge =  0 Multiplicity = 1

 SCF Done:  E(RB3LYP) =  -1296.86703705     A.U. after   16 cycles
 Normal termination of Gaussian 16 at Sun Dec 13 21:16:05 2020.

 ----------------------------------------------------------------------
 # B3LYP/6-311++G(d,p) empiricaldispersion=gd3bj scf=xqc pop=npa geom=c
 heck
 ----------------------------------------------------------------------

 -------------------------------------
 CID_137971864_JID_9588_Energie_kation
 -------------------------------------
 Structure from the checkpoint file:  "JID_9588.chk"
 Charge =  1 Multiplicity = 2

 SCF Done:  E(UB3LYP) =  -1296.53668556     A.U. after   32 cycles
 Normal termination of Gaussian 16 at Sun Dec 13 21:38:14 2020.
 Gaussian 16:  ES64L-G16RevA.03 25-Dec-2016

 ----------------------------------------------------------------------
 # B3LYP/6-311++G(d,p) empiricaldispersion=gd3bj scf=xqc pop=npa geom=c
 heck
 ----------------------------------------------------------------------

 ------------------------------------
 CID_137971864_JID_9588_Energie_anion
 ------------------------------------
 Structure from the checkpoint file:  "JID_9588.chk"
 Charge = -1 Multiplicity = 2

                         Standard orientation:
 ---------------------------------------------------------------------
 Center     Atomic      Atomic             Coordinates (Angstroms)
 Number     Number       Type             X           Y           Z
 ---------------------------------------------------------------------
      1          6           0       -4.687443    1.865982    0.676542
      2          6           0       -3.338559    1.727811   -0.033706
      3          6           0       -2.498662    0.547761    0.473673
      4          6           0       -3.148977   -0.817508    0.236949
      5          8           0       -3.241182   -0.999681   -1.167264
      6          6           0       -3.277904   -2.362683   -1.550380
      7          7           0       -1.188939    0.603549   -0.220349
      8         16           0        0.045786   -0.342477    0.450422
      9          8           0       -0.166752   -0.349130    1.900699
     10          8           0        0.155883   -1.601194   -0.303654
     11          6           0        1.497268    0.650350    0.029667
     12          6           0        1.332353    2.012823   -0.218169
     13          6           0        2.424385    2.788199   -0.608671
     14          6           0        3.675809    2.198657   -0.775607
     15          6           0        3.837831    0.837359   -0.528872
     16          6           0        2.763800    0.053213   -0.098327
     17          6           0        3.073632   -1.380531    0.199218
     18          8           0        3.821503   -2.063109   -0.465445
     19          8           0        2.498012   -1.796061    1.343738
     20          1           0       -5.349119    1.020952    0.459924
     21          1           0       -5.201160    2.776283    0.350337
     22          1           0       -4.561187    1.925468    1.764380
     23          1           0       -3.498171    1.613295   -1.112400
     24          1           0       -2.746827    2.639500    0.107514
     25          1           0       -2.304233    0.665960    1.542614
     26          1           0       -2.522538   -1.599111    0.687385
     27          1           0       -4.143508   -0.875352    0.703781
     28          1           0       -2.366396   -2.884608   -1.227438
     29          1           0       -4.155945   -2.876963   -1.131031
     30          1           0       -3.341654   -2.385689   -2.641156
     31          1           0       -1.319693    0.284796   -1.182779
     32          1           0        0.343593    2.445189   -0.133157
     33          1           0        2.287430    3.848637   -0.797499
     34          1           0        4.524032    2.794019   -1.099268
     35          1           0        4.802084    0.357664   -0.657580
     36          1           0        2.682388   -2.750440    1.423557
 ---------------------------------------------------------------------

 SCF Done:  E(UB3LYP) =  -1296.87945992     A.U. after   31 cycles

 The electronic state is 2-A.
 Alpha  occ. eigenvalues --  -88.93133 -19.04644 -19.02460 -18.98718 -18.98462
 Alpha  occ. eigenvalues --  -18.95794 -14.22252 -10.14585 -10.13188 -10.12875
 Alpha  occ. eigenvalues --  -10.11697 -10.08293 -10.08269 -10.05564 -10.04680
 Alpha  occ. eigenvalues --  -10.04016 -10.03629 -10.03189 -10.02991  -7.99273
 Alpha  occ. eigenvalues --   -5.95608  -5.95514  -5.95320  -0.98888  -0.96411
 Alpha  occ. eigenvalues --   -0.95829  -0.87859  -0.87270  -0.81562  -0.72791
 Alpha  occ. eigenvalues --   -0.70200  -0.65174  -0.63307  -0.62491  -0.59321
 Alpha  occ. eigenvalues --   -0.55918  -0.53607  -0.51347  -0.48741  -0.47084
 Alpha  occ. eigenvalues --   -0.45185  -0.42363  -0.40612  -0.40320  -0.39615
 Alpha  occ. eigenvalues --   -0.38147  -0.37165  -0.35549  -0.35434  -0.34347
 Alpha  occ. eigenvalues --   -0.34028  -0.33033  -0.32615  -0.31993  -0.30964
 Alpha  occ. eigenvalues --   -0.30222  -0.29375  -0.29169  -0.28128  -0.26716
 Alpha  occ. eigenvalues --   -0.26449  -0.25399  -0.24293  -0.24157  -0.23887
 Alpha  occ. eigenvalues --   -0.22805  -0.21884  -0.20077  -0.19208  -0.18429
 Alpha  occ. eigenvalues --   -0.18155  -0.17640  -0.15494  -0.14444  -0.12919
 Alpha  occ. eigenvalues --   -0.12201   0.04249
 Alpha virt. eigenvalues --    0.05579   0.06940   0.08078   0.08809   0.09387
 Alpha virt. eigenvalues --    0.09884   0.10046   0.10241   0.10908   0.11284
 Alpha virt. eigenvalues --    0.11775   0.12560   0.12970   0.13116   0.13386

  Beta  occ. eigenvalues --  -88.93131 -19.04643 -19.02401 -18.98666 -18.98431
  Beta  occ. eigenvalues --  -18.95570 -14.22250 -10.14419 -10.13188 -10.12873
  Beta  occ. eigenvalues --  -10.11681 -10.08288 -10.08258 -10.05251 -10.04769
  Beta  occ. eigenvalues --  -10.04065 -10.03306 -10.02998 -10.02731  -7.99271
  Beta  occ. eigenvalues --   -5.95602  -5.95498  -5.95325  -0.98787  -0.96172
  Beta  occ. eigenvalues --   -0.95824  -0.87755  -0.86932  -0.81529  -0.72336
  Beta  occ. eigenvalues --   -0.70156  -0.65129  -0.62741  -0.62043  -0.59257
  Beta  occ. eigenvalues --   -0.55874  -0.53228  -0.51056  -0.48703  -0.46910
  Beta  occ. eigenvalues --   -0.44820  -0.42279  -0.40591  -0.40223  -0.39603
  Beta  occ. eigenvalues --   -0.38012  -0.37107  -0.35495  -0.35265  -0.34117
  Beta  occ. eigenvalues --   -0.33902  -0.32743  -0.32279  -0.31841  -0.30924
  Beta  occ. eigenvalues --   -0.30121  -0.29196  -0.28731  -0.28106  -0.26646
  Beta  occ. eigenvalues --   -0.26275  -0.25385  -0.24112  -0.23764  -0.23209
  Beta  occ. eigenvalues --   -0.22632  -0.21706  -0.19948  -0.19011  -0.18118
  Beta  occ. eigenvalues --   -0.17673  -0.17357  -0.15403  -0.13946  -0.11793
  Beta  occ. eigenvalues --   -0.10594
  Beta virt. eigenvalues --    0.05684   0.06905   0.08004   0.08756   0.09352
  Beta virt. eigenvalues --    0.09853   0.09959   0.10091   0.10246   0.11142
  Beta virt. eigenvalues --    0.11316   0.11718   0.12484   0.12890   0.13056

 Mulliken charges and spin densities:
               1          2
     1  C   -0.286084  -0.386838
     2  C   -0.320705   0.269271
     3  C   -0.617047  -0.054610
     4  C   -0.287519  -0.140577
     5  O   -0.090466   0.004030
     6  C   -0.253028  -0.007772
     7  N    0.021813   0.003566
     8  S    0.287492   0.105109
     9  O   -0.025170  -0.030944
    10  O   -0.130559   0.001454
    11  C   -0.843820   0.110477
    12  C   -0.017347  -0.039248
    13  C   -0.210460   0.222067
    14  C   -0.568524   0.159652
    15  C   -0.279684  -0.019077
    16  C    0.688933   0.217710
    17  C   -0.006723   0.101773
    18  O   -0.357272   0.076477
    19  O   -0.161560   0.006343
    20  H    0.067231   0.081075
    21  H   -0.067378   0.203231
    22  H    0.074070   0.067936
    23  H    0.140560   0.012857
    24  H    0.144361   0.008079
    25  H    0.217644   0.008936
    26  H    0.262892   0.000463
    27  H    0.103005   0.016952
    28  H    0.180377  -0.000933
    29  H    0.101498   0.009502
    30  H    0.123978   0.004762
    31  H    0.310009  -0.002374
    32  H    0.146590   0.011991
    33  H    0.127849  -0.016465
    34  H    0.099493  -0.013775
    35  H    0.163585   0.004683
    36  H    0.261968   0.004217
 Sum of Mulliken charges =  -1.00000   1.00000

 Dipole moment (field-independent basis, Debye):
    X=             -7.8947    Y=             -0.0627    Z=             -0.3327  Tot=              7.9019
 Quadrupole moment (field-independent basis, Debye-Ang):
   XX=           -174.8982   YY=           -140.2688   ZZ=           -137.7449
   XY=             11.0871   XZ=              5.9761   YZ=             -2.7479

 Summary of Natural Population Analysis:

                                       Natural Population
                Natural  -----------------------------------------------
    Atom  No    Charge         Core      Valence    Rydberg      Total
 -----------------------------------------------------------------------
      C    1   -0.28626      0.99967     2.28228    0.00432     3.28626
      C    2   -0.19337      0.99962     2.18527    0.00849     3.19337
      C    3   -0.02867      0.99958     2.01210    0.01698     3.02867
      C    4   -0.01951      0.99956     2.00855    0.01141     3.01951
      O    5   -0.30747      0.99988     3.29806    0.00953     4.30747
      C    6   -0.09834      0.99963     2.09056    0.00815     3.09834
      N    7   -0.43927      0.99975     2.92535    0.01418     3.93927
      S    8    1.10528      4.99922     1.79756    0.09794     6.89472
      O    9   -0.46422      0.99990     3.45901    0.00531     4.46422
      O   10   -0.46969      0.99991     3.46418    0.00560     4.46969
      C   11   -0.06431      0.99932     2.05170    0.01329     3.06431
      C   12   -0.11896      0.99952     2.11067    0.00877     3.11896
      C   13   -0.06140      0.99957     2.05223    0.00960     3.06140
      C   14   -0.07163      0.99957     2.06262    0.00943     3.07163
      C   15   -0.09397      0.99954     2.08575    0.00867     3.09397
      C   16   -0.01265      0.99940     2.00204    0.01121     3.01265
      C   17    0.42502      0.99967     1.55035    0.02495     2.57498
      O   18   -0.30336      0.99987     3.29660    0.00689     4.30336
      O   19   -0.33953      0.99987     3.33301    0.00664     4.33953
      H   20    0.09544      0.00000     0.40325    0.00130     0.40456
      H   21    0.09890      0.00000     0.39996    0.00114     0.40110
      H   22    0.09580      0.00000     0.40307    0.00114     0.40420
      H   23    0.09949      0.00000     0.39896    0.00155     0.40051
      H   24    0.10201      0.00000     0.39662    0.00136     0.39799
      H   25    0.11318      0.00000     0.38522    0.00159     0.38682
      H   26    0.09185      0.00000     0.40496    0.00319     0.40815
      H   27    0.07986      0.00000     0.41869    0.00146     0.42014
      H   28    0.09122      0.00000     0.40753    0.00124     0.40878
      H   29    0.07273      0.00000     0.42591    0.00136     0.42727
      H   30    0.08766      0.00000     0.41157    0.00077     0.41234
      H   31    0.19700      0.00000     0.30095    0.00205     0.30300
      H   32    0.10748      0.00000     0.39138    0.00114     0.39252
      H   33    0.08833      0.00000     0.41063    0.00104     0.41167
      H   34    0.08899      0.00000     0.40999    0.00102     0.41101
      H   35    0.10247      0.00000     0.39641    0.00112     0.39753
      H   36    0.22986      0.00000     0.26529    0.00484     0.27014
 =======================================================================
   * Total *   -0.00000     22.99304    52.69828    0.30867    76.00000

 Normal termination of Gaussian 16 at Sun Dec 13 21:58:31 2020.
