 Gaussian 16, Revision A.03,

 -----------------------------------------------------------
 # opt freq B3LYP/6-31G(d) empiricaldispersion=gd3bj scf=xqc
 -----------------------------------------------------------

 -------------------------------
 CID_141201602_JID_4451_neutraal
 -------------------------------
 Symbolic Z-matrix:
 Charge =  0 Multiplicity = 1

 SCF Done:  E(RB3LYP) =  -666.706177597     A.U. after   15 cycles
 SCF Done:  E(RB3LYP) =  -666.710180152     A.U. after   13 cycles
 SCF Done:  E(RB3LYP) =  -666.710329422     A.U. after   13 cycles
 SCF Done:  E(RB3LYP) =  -666.711182312     A.U. after   12 cycles
 SCF Done:  E(RB3LYP) =  -666.711383390     A.U. after   12 cycles
 SCF Done:  E(RB3LYP) =  -666.711472429     A.U. after   11 cycles
 SCF Done:  E(RB3LYP) =  -666.711524681     A.U. after   11 cycles
 SCF Done:  E(RB3LYP) =  -666.711557281     A.U. after   11 cycles
 SCF Done:  E(RB3LYP) =  -666.711589656     A.U. after   11 cycles
 SCF Done:  E(RB3LYP) =  -666.711598883     A.U. after   10 cycles
 SCF Done:  E(RB3LYP) =  -666.711654662     A.U. after    8 cycles
 SCF Done:  E(RB3LYP) =  -666.711655377     A.U. after    8 cycles
 SCF Done:  E(RB3LYP) =  -666.711655558     A.U. after    8 cycles
 SCF Done:  E(RB3LYP) =  -666.711655609     A.U. after    7 cycles
 SCF Done:  E(RB3LYP) =  -666.711655634     A.U. after    8 cycles
 Optimization completed.
    -- Stationary point found.
 Normal termination of Gaussian 16 at Thu Dec 10 09:54:08 2020.

 --------------------------------------------------------------------
 #N Geom=AllCheck Guess=TCheck SCRF=Check GenChk RB3LYP/6-31G(d) Freq
 --------------------------------------------------------------------

 Structure from the checkpoint file:  "JID_4451.chk"
 -------------------------------
 CID_141201602_JID_4451_neutraal
 -------------------------------
 Charge =  0 Multiplicity = 1

 SCF Done:  E(RB3LYP) =  -666.711655634     A.U. after    1 cycles

  Exact polarizability: 160.830   8.803 103.771  -1.434  -1.518 104.579
 Approx polarizability: 206.013  16.692 151.275   2.294   4.136 161.198

                      1                      2                      3
                      A                      A                      A
 Frequencies --     21.0226                35.1379                45.2596
 Red. masses --      2.7045                 3.5605                 3.9362
 Frc consts  --      0.0007                 0.0026                 0.0048
 IR Inten    --      2.0401                 1.4607                 0.6536

                      4                      5                      6
                      A                      A                      A
 Frequencies --     60.2798                66.8489                70.7863
 Red. masses --      1.6224                 2.7477                 4.5184
 Frc consts  --      0.0035                 0.0072                 0.0133
 IR Inten    --      0.2294                 0.4354                 2.0329

                      7                      8                      9
                      A                      A                      A
 Frequencies --     83.5736               109.6577               131.4480
 Red. masses --      2.8456                 2.4196                 2.0062
 Frc consts  --      0.0117                 0.0171                 0.0204
 IR Inten    --      1.1804                 0.2992                 1.2696

                     10                     11                     12
                      A                      A                      A
 Frequencies --    170.4349               195.5904               237.0849
 Red. masses --      1.3491                 3.4414                 1.2393
 Frc consts  --      0.0231                 0.0776                 0.0410
 IR Inten    --      0.2303                 0.4652                 0.5110

                     13                     14                     15
                      A                      A                      A
 Frequencies --    241.1555               304.9671               319.8164
 Red. masses --      3.6720                 3.0233                 3.1874
 Frc consts  --      0.1258                 0.1657                 0.1921
 IR Inten    --      4.0884                 2.5571                 9.0424

                     16                     17                     18
                      A                      A                      A
 Frequencies --    354.5597               393.8343               427.8834
 Red. masses --      3.0039                 2.7861                 4.2342
 Frc consts  --      0.2225                 0.2546                 0.4567
 IR Inten    --      1.5805                15.7593                15.6979

                     19                     20                     21
                      A                      A                      A
 Frequencies --    443.4892               467.2110               484.3305
 Red. masses --      2.8548                 2.6359                 1.8841
 Frc consts  --      0.3308                 0.3390                 0.2604
 IR Inten    --      0.3377                21.9768                13.2774

                     22                     23                     24
                      A                      A                      A
 Frequencies --    519.6450               585.0569               607.5884
 Red. masses --      3.3574                 2.5976                 3.9592
 Frc consts  --      0.5342                 0.5239                 0.8611
 IR Inten    --      8.5020                25.4136                23.0959

                     25                     26                     27
                      A                      A                      A
 Frequencies --    656.1648               712.8637               748.4668
 Red. masses --      3.1771                 2.2501                 5.0583
 Frc consts  --      0.8060                 0.6737                 1.6695
 IR Inten    --     15.5211                74.0099                 4.1576

                     28                     29                     30
                      A                      A                      A
 Frequencies --    802.0723               816.1945               819.2495
 Red. masses --      1.6573                 3.4970                 2.1391
 Frc consts  --      0.6282                 1.3726                 0.8459
 IR Inten    --     12.0598                33.7141                18.8920

                     31                     32                     33
                      A                      A                      A
 Frequencies --    845.4609               884.9507               947.6210
 Red. masses --      5.6494                 3.2803                 1.3972
 Frc consts  --      2.3792                 1.5135                 0.7392
 IR Inten    --     11.5320                 7.8074                 1.4140

                     34                     35                     36
                      A                      A                      A
 Frequencies --    962.5907               977.9131               995.3652
 Red. masses --      1.4682                 2.1886                 1.3896
 Frc consts  --      0.8016                 1.2332                 0.8111
 IR Inten    --      3.5369                 6.4665                15.6480

                     37                     38                     39
                      A                      A                      A
 Frequencies --   1032.5620              1073.3668              1087.1070
 Red. masses --      1.0624                 1.9467                 1.6395
 Frc consts  --      0.6674                 1.3214                 1.1415
 IR Inten    --     21.4018                33.1925                29.8011

                     40                     41                     42
                      A                      A                      A
 Frequencies --   1113.4167              1120.8137              1125.1866
 Red. masses --      1.8881                 1.8141                 1.8353
 Frc consts  --      1.3791                 1.3427                 1.3690
 IR Inten    --     13.1630                 0.2673                47.3811

                     43                     44                     45
                      A                      A                      A
 Frequencies --   1197.0417              1263.6614              1274.0538
 Red. masses --      2.5794                 3.1499                 2.8316
 Frc consts  --      2.1776                 2.9635                 2.7080
 IR Inten    --     64.3092                97.4375               124.5147

                     46                     47                     48
                      A                      A                      A
 Frequencies --   1295.4795              1310.6858              1361.9705
 Red. masses --      4.0995                 1.6872                 1.8218
 Frc consts  --      4.0536                 1.7077                 1.9911
 IR Inten    --     52.5345               131.1304                92.1880

                     49                     50                     51
                      A                      A                      A
 Frequencies --   1401.5884              1425.2680              1431.3455
 Red. masses --      1.4051                 1.6210                 1.5944
 Frc consts  --      1.6263                 1.9401                 1.9246
 IR Inten    --     39.4381               106.1565                55.5868

                     52                     53                     54
                      A                      A                      A
 Frequencies --   1433.5587              1436.6466              1458.0827
 Red. masses --      1.2131                 1.2772                 1.3316
 Frc consts  --      1.4689                 1.5532                 1.6679
 IR Inten    --     14.5422                21.6115               101.9079

                     55                     56                     57
                      A                      A                      A
 Frequencies --   1472.1200              1492.1554              1497.2786
 Red. masses --      1.3091                 1.0599                 1.0449
 Frc consts  --      1.6715                 1.3904                 1.3802
 IR Inten    --      4.3044                 5.9447                 5.5412

                     58                     59                     60
                      A                      A                      A
 Frequencies --   1506.5039              1507.3657              1514.8178
 Red. masses --      1.0811                 1.0965                 1.0480
 Frc consts  --      1.4456                 1.4680                 1.4169
 IR Inten    --      4.7829                56.5591                12.8443

                     61                     62                     63
                      A                      A                      A
 Frequencies --   1523.4696              1532.5630              1709.4838
 Red. masses --      1.0461                 1.0553                 4.9242
 Frc consts  --      1.4305                 1.4603                 8.4784
 IR Inten    --      1.4780                 2.8704                37.2810

                     64                     65                     66
                      A                      A                      A
 Frequencies --   1744.5737              1764.8987              1802.3913
 Red. masses --      8.4254                11.4167                 8.2823
 Frc consts  --     15.1085                20.9523                15.8526
 IR Inten    --    264.3043               267.5027               244.8338

                     67                     68                     69
                      A                      A                      A
 Frequencies --   3046.4306              3052.4994              3058.6053
 Red. masses --      1.0392                 1.0350                 1.0405
 Frc consts  --      5.6822                 5.6820                 5.7351
 IR Inten    --      6.9684                17.3157                13.4325

                     70                     71                     72
                      A                      A                      A
 Frequencies --   3086.9018              3098.5197              3111.5771
 Red. masses --      1.0653                 1.0992                 1.0992
 Frc consts  --      5.9810                 6.2179                 6.2704
 IR Inten    --     15.5948                 7.4632                14.0128

                     73                     74                     75
                      A                      A                      A
 Frequencies --   3120.8035              3125.7056              3153.1012
 Red. masses --      1.1010                 1.1019                 1.1033
 Frc consts  --      6.3179                 6.3430                 6.4629
 IR Inten    --     16.2133                33.4375                24.0963

                     76                     77                     78
                      A                      A                      A
 Frequencies --   3167.7687              3175.5704              3182.1962
 Red. masses --      1.1006                 1.0577                 1.0990
 Frc consts  --      6.5072                 6.2842                 6.5569
 IR Inten    --      8.7967                 8.2651                 5.2726

                     79                     80                     81
                      A                      A                      A
 Frequencies --   3219.4283              3266.1162              3523.7322
 Red. masses --      1.0932                 1.1172                 1.0756
 Frc consts  --      6.6761                 7.0220                 7.8687
 IR Inten    --      5.1094                 4.2128                16.3175

 - Thermochemistry -
 -------------------
 Temperature   298.150 Kelvin.  Pressure   1.00000 Atm.
 Atom     1 has atomic number  6 and mass  12.00000

 Molecular mass:   197.11643 amu.
 Principal axes and moments of inertia in atomic units:
                           1         2         3
     Eigenvalues --  1595.162284659.017385118.14122
           X            0.99991   0.00279  -0.01284
           Y           -0.00301   0.99985  -0.01689
           Z            0.01279   0.01693   0.99977
 This molecule is an asymmetric top.
 Rotational symmetry number  1.
 Warning -- assumption of classical behavior for rotation
           may cause significant error
 Rotational temperatures (Kelvin)      0.05430     0.01859     0.01692
 Rotational constants (GHZ):           1.13138     0.38737     0.35262
 Zero-point vibrational energy     633087.6 (Joules/Mol)
                                  151.31158 (Kcal/Mol)
 Warning -- explicit consideration of  24 degrees of freedom as
           vibrations may cause significant error
 Vibrational temperatures:     30.25    50.56    65.12    86.73    96.18
          (Kelvin)            101.85   120.24   157.77   189.12   245.22
                              281.41   341.11   346.97   438.78   460.14
                              510.13   566.64   615.63   638.08   672.21
                              696.84   747.65   841.77   874.18   944.07
                             1025.65  1076.88  1154.00  1174.32  1178.72
                             1216.43  1273.25  1363.42  1384.95  1407.00
                             1432.11  1485.63  1544.34  1564.10  1601.96
                             1612.60  1618.89  1722.28  1818.13  1833.08
                             1863.91  1885.78  1959.57  2016.57  2050.64
                             2059.39  2062.57  2067.01  2097.86  2118.05
                             2146.88  2154.25  2167.52  2168.76  2179.48
                             2191.93  2205.02  2459.57  2510.05  2539.30
                             2593.24  4383.13  4391.87  4400.65  4441.36
                             4458.08  4476.87  4490.14  4497.19  4536.61
                             4557.71  4568.94  4578.47  4632.04  4699.21
                             5069.86

 Zero-point correction=                           0.241130 (Hartree/Particle)
 Thermal correction to Energy=                    0.257530
 Thermal correction to Enthalpy=                  0.258475
 Thermal correction to Gibbs Free Energy=         0.194634
 Sum of electronic and zero-point Energies=           -666.470525
 Sum of electronic and thermal Energies=              -666.454125
 Sum of electronic and thermal Enthalpies=            -666.453181
 Sum of electronic and thermal Free Energies=         -666.517021

                     E (Thermal)             CV                S
                      KCal/Mol        Cal/Mol-Kelvin    Cal/Mol-Kelvin
 Total                  161.603             57.009            134.363
 Electronic               0.000              0.000              0.000
 Translational            0.889              2.981             41.741
 Rotational               0.889              2.981             32.009
 Vibrational            159.825             51.048             60.613
 Vibration     1          0.593              1.986              6.535
 Vibration     2          0.594              1.982              5.516
 Vibration     3          0.595              1.979              5.014
 Vibration     4          0.597              1.973              4.448
 Vibration     5          0.598              1.970              4.244
 Vibration     6          0.598              1.968              4.131
 Vibration     7          0.600              1.960              3.805
 Vibration     8          0.606              1.941              3.275
 Vibration     9          0.612              1.922              2.925
 Vibration    10          0.626              1.879              2.431
 Vibration    11          0.636              1.846              2.174
 Vibration    12          0.656              1.784              1.825
 Vibration    13          0.658              1.777              1.794
 Vibration    14          0.696              1.664              1.389
 Vibration    15          0.706              1.636              1.311
 Vibration    16          0.730              1.566              1.146
 Vibration    17          0.761              1.483              0.986
 Vibration    18          0.789              1.410              0.866
 Vibration    19          0.803              1.375              0.816
 Vibration    20          0.824              1.323              0.745
 Vibration    21          0.840              1.285              0.698
 Vibration    22          0.875              1.206              0.611
 Vibration    23          0.942              1.064              0.476
 Vibration    24          0.966              1.016              0.437

                           ! Non-Optimized Parameters !
 Normal termination of Gaussian 16 at Thu Dec 10 10:01:44 2020.

 ----------------------------------------------------------------------
 # B3LYP/6-311++G(d,p) empiricaldispersion=gd3bj scf=xqc pop=npa geom=c
 heck
 ----------------------------------------------------------------------

 ---------------------------------------
 CID_141201602_JID_4451_Energie_neutraal
 ---------------------------------------
 Structure from the checkpoint file:  "JID_4451.chk"
 Charge =  0 Multiplicity = 1

 SCF Done:  E(RB3LYP) =  -666.908602578     A.U. after   15 cycles
 Normal termination of Gaussian 16 at Thu Dec 10 10:05:19 2020.

 ----------------------------------------------------------------------
 # B3LYP/6-311++G(d,p) empiricaldispersion=gd3bj scf=xqc pop=npa geom=c
 heck
 ----------------------------------------------------------------------

 -------------------------------------
 CID_141201602_JID_4451_Energie_kation
 -------------------------------------
 Structure from the checkpoint file:  "JID_4451.chk"
 Charge =  1 Multiplicity = 2

 SCF Done:  E(UB3LYP) =  -666.589413570     A.U. after   26 cycles
 Normal termination of Gaussian 16 at Thu Dec 10 10:15:12 2020.
 Gaussian 16:  ES64L-G16RevA.03 25-Dec-2016

 ----------------------------------------------------------------------
 # B3LYP/6-311++G(d,p) empiricaldispersion=gd3bj scf=xqc pop=npa geom=c
 heck
 ----------------------------------------------------------------------

 ------------------------------------
 CID_141201602_JID_4451_Energie_anion
 ------------------------------------
 Structure from the checkpoint file:  "JID_4451.chk"
 Charge = -1 Multiplicity = 2

                         Standard orientation:
 ---------------------------------------------------------------------
 Center     Atomic      Atomic             Coordinates (Angstroms)
 Number     Number       Type             X           Y           Z
 ---------------------------------------------------------------------
      1          6           0        0.764850    2.878329   -0.125044
      2          6           0        0.096673    1.858386    0.796323
      3          7           0       -0.320743    0.642782    0.095824
      4          6           0        0.500746   -0.451752   -0.128498
      5          8           0        0.172099   -1.373150   -0.861080
      6          7           0        1.668151   -0.419409    0.659170
      7          6           0        2.813303   -0.657841    0.137300
      8          6           0        3.096500   -0.888747   -1.327840
      9          6           0        4.004983   -0.718726    1.055264
     10          7           0       -1.464124    0.743871   -0.686594
     11          6           0       -2.586602   -0.046883   -0.422735
     12          8           0       -3.419948   -0.210639   -1.298881
     13          6           0       -2.716606   -0.571226    0.963312
     14          6           0       -3.774958   -1.313809    1.292333
     15          1           0        1.679351    2.462510   -0.562644
     16          1           0        1.032847    3.782601    0.432243
     17          1           0        0.091234    3.169097   -0.938233
     18          1           0        0.776744    1.548967    1.592020
     19          1           0       -0.801623    2.282446    1.254443
     20          1           0        3.997240   -0.341833   -1.627991
     21          1           0        3.296678   -1.955579   -1.487689
     22          1           0        2.258331   -0.615805   -1.968383
     23          1           0        4.720349    0.075158    0.804957
     24          1           0        3.693048   -0.610501    2.095330
     25          1           0        4.534573   -1.671400    0.928555
     26          1           0       -1.298077    0.839941   -1.685573
     27          1           0       -1.934224   -0.341453    1.678411
     28          1           0       -3.903326   -1.715790    2.292627
     29          1           0       -4.536670   -1.535142    0.550328
 ---------------------------------------------------------------------

 SCF Done:  E(UB3LYP) =  -666.909852378     A.U. after   33 cycles
 SCF Done:  E(UB3LYP) =  -666.909852378     a.u. after    1 cycles

 The electronic state is 2-A.
 Alpha  occ. eigenvalues --  -18.97165 -18.95447 -14.25282 -14.23602 -14.18645
 Alpha  occ. eigenvalues --  -10.17127 -10.13250 -10.11034 -10.10183 -10.06745
 Alpha  occ. eigenvalues --  -10.06321 -10.06311 -10.04137 -10.03803  -0.94741
 Alpha  occ. eigenvalues --   -0.90946  -0.86904  -0.80899  -0.72722  -0.66081
 Alpha  occ. eigenvalues --   -0.64936  -0.63718  -0.59773  -0.54601  -0.52843
 Alpha  occ. eigenvalues --   -0.50092  -0.44483  -0.41628  -0.39522  -0.38194
 Alpha  occ. eigenvalues --   -0.37719  -0.34861  -0.34841  -0.34030  -0.32310
 Alpha  occ. eigenvalues --   -0.31302  -0.30220  -0.29418  -0.29318  -0.29090
 Alpha  occ. eigenvalues --   -0.28909  -0.27550  -0.26834  -0.26413  -0.25871
 Alpha  occ. eigenvalues --   -0.24197  -0.20395  -0.17614  -0.15771  -0.15149
 Alpha  occ. eigenvalues --   -0.14729  -0.13326  -0.12483   0.04262
 Alpha virt. eigenvalues --    0.06125   0.06906   0.07849   0.08753   0.09343
 Alpha virt. eigenvalues --    0.10085   0.10495   0.11114   0.11439   0.12269
 Alpha virt. eigenvalues --    0.12686   0.13049   0.13606   0.14017   0.14393

  Beta  occ. eigenvalues --  -18.97136 -18.95298 -14.25260 -14.23594 -14.18571
  Beta  occ. eigenvalues --  -10.17077 -10.13087 -10.10751 -10.10174 -10.06730
  Beta  occ. eigenvalues --  -10.06328 -10.06309 -10.04090 -10.03546  -0.94643
  Beta  occ. eigenvalues --   -0.90716  -0.86787  -0.80611  -0.72616  -0.65906
  Beta  occ. eigenvalues --   -0.64544  -0.63606  -0.59707  -0.54533  -0.52481
  Beta  occ. eigenvalues --   -0.49791  -0.44268  -0.41385  -0.39461  -0.37956
  Beta  occ. eigenvalues --   -0.37558  -0.34799  -0.34614  -0.33701  -0.32235
  Beta  occ. eigenvalues --   -0.31211  -0.30030  -0.29296  -0.29120  -0.28946
  Beta  occ. eigenvalues --   -0.28709  -0.27167  -0.26575  -0.26235  -0.25822
  Beta  occ. eigenvalues --   -0.24028  -0.19891  -0.17303  -0.15394  -0.14764
  Beta  occ. eigenvalues --   -0.13727  -0.13212  -0.12348
  Beta virt. eigenvalues --    0.06823   0.07919   0.08513   0.08732   0.08887
  Beta virt. eigenvalues --    0.09405   0.10420   0.10498   0.11032   0.11690
  Beta virt. eigenvalues --    0.12237   0.12783   0.13122   0.13548   0.14045

 Mulliken charges and spin densities:
               1          2
     1  C    0.058448  -0.586077
     2  C   -0.480355   0.344228
     3  N    0.300044  -0.016665
     4  C   -0.222597   0.025588
     5  O   -0.276552   0.012450
     6  N   -0.082011   0.092065
     7  C   -0.069643   0.477401
     8  C   -0.251247  -0.333191
     9  C    0.375248  -0.894034
    10  N   -0.330507  -0.022634
    11  C   -0.215006   0.059897
    12  O   -0.382117   0.059506
    13  C    0.498015  -0.001803
    14  C   -0.794692   0.293951
    15  H   -0.013422   0.163511
    16  H   -0.053025   0.173098
    17  H    0.085398   0.059258
    18  H    0.168666   0.017301
    19  H    0.118549   0.016712
    20  H   -0.182678   0.331142
    21  H    0.191525  -0.031085
    22  H    0.132557   0.066417
    23  H   -0.415715   0.596445
    24  H    0.052797   0.082326
    25  H    0.083785   0.045368
    26  H    0.295625  -0.010085
    27  H    0.170899   0.004176
    28  H    0.091648  -0.011383
    29  H    0.146362  -0.013884
 Sum of Mulliken charges =  -1.00000   1.00000

 Dipole moment (field-independent basis, Debye):
    X=              1.3203    Y=              1.4680    Z=              1.6739  Tot=              2.5885
 Quadrupole moment (field-independent basis, Debye-Ang):
   XX=           -161.2856   YY=           -104.8349   ZZ=           -101.2431
   XY=            -12.0523   XZ=             -6.4926   YZ=             -1.6036

 Summary of Natural Population Analysis:

                                       Natural Population
                Natural  -----------------------------------------------
    Atom  No    Charge         Core      Valence    Rydberg      Total
 -----------------------------------------------------------------------
      C    1   -0.29410      0.99966     2.28942    0.00501     3.29410
      C    2   -0.08499      0.99962     2.07552    0.00985     3.08499
      N    3   -0.17527      0.99964     2.66246    0.01318     3.67527
      C    4    0.40692      0.99965     1.56798    0.02546     2.59308
      O    5   -0.32090      0.99987     3.31617    0.00485     4.32090
      N    6   -0.27674      0.99959     2.76712    0.01003     3.77674
      C    7    0.21967      0.99962     1.76768    0.01303     2.78033
      C    8   -0.32500      0.99962     2.31961    0.00577     3.32500
      C    9   -0.30907      0.99962     2.30370    0.00575     3.30907
      N   10   -0.23400      0.99967     2.72141    0.01292     3.73400
      C   11    0.35286      0.99967     1.62454    0.02294     2.64714
      O   12   -0.30932      0.99988     3.30348    0.00596     4.30932
      C   13   -0.15186      0.99952     2.14416    0.00818     3.15186
      C   14   -0.10265      0.99960     2.09585    0.00720     3.10265
      H   15    0.10116      0.00000     0.39765    0.00119     0.39884
      H   16    0.09666      0.00000     0.40242    0.00092     0.40334
      H   17    0.09766      0.00000     0.40132    0.00102     0.40234
      H   18    0.11028      0.00000     0.38849    0.00123     0.38972
      H   19    0.09462      0.00000     0.40426    0.00112     0.40538
      H   20    0.10536      0.00000     0.39316    0.00148     0.39464
      H   21    0.11000      0.00000     0.38928    0.00073     0.39000
      H   22    0.11223      0.00000     0.38699    0.00078     0.38777
      H   23    0.11070      0.00000     0.38493    0.00437     0.38930
      H   24    0.10666      0.00000     0.39232    0.00102     0.39334
      H   25    0.10081      0.00000     0.39838    0.00081     0.39919
      H   26    0.18549      0.00000     0.31177    0.00274     0.31451
      H   27    0.09691      0.00000     0.40186    0.00122     0.40309
      H   28    0.08129      0.00000     0.41769    0.00102     0.41871
      H   29    0.09459      0.00000     0.40412    0.00129     0.40541
 =======================================================================
   * Total *    0.00000     13.99523    38.83372    0.17105    53.00000

 Normal termination of Gaussian 16 at Thu Dec 10 10:27:19 2020.
