 Gaussian 16, Revision A.03,

 -----------------------------------------------------------
 # opt freq B3LYP/6-31G(d) empiricaldispersion=gd3bj scf=xqc
 -----------------------------------------------------------

 -------------------------------
 CID_133618387_JID_2630_neutraal
 -------------------------------
 Symbolic Z-matrix:
 Charge =  0 Multiplicity = 1

 SCF Done:  E(RB3LYP) =  -912.262811042     A.U. after   14 cycles
 SCF Done:  E(RB3LYP) =  -912.270203033     A.U. after   13 cycles
 SCF Done:  E(RB3LYP) =  -912.271086737     A.U. after   12 cycles
 SCF Done:  E(RB3LYP) =  -912.271004833     A.U. after   12 cycles
 SCF Done:  E(RB3LYP) =  -912.271327313     A.U. after   13 cycles
 SCF Done:  E(RB3LYP) =  -912.271689692     A.U. after   12 cycles
 SCF Done:  E(RB3LYP) =  -912.271711950     A.U. after   10 cycles
 SCF Done:  E(RB3LYP) =  -912.271717642     A.U. after    9 cycles
 SCF Done:  E(RB3LYP) =  -912.271720532     A.U. after    9 cycles
 SCF Done:  E(RB3LYP) =  -912.271721993     A.U. after    9 cycles
 SCF Done:  E(RB3LYP) =  -912.271722896     A.U. after    9 cycles
 SCF Done:  E(RB3LYP) =  -912.271723211     A.U. after    8 cycles
 Optimization completed.
    -- Stationary point found.
 Normal termination of Gaussian 16 at Wed Dec  9 17:45:42 2020.

 --------------------------------------------------------------------
 #N Geom=AllCheck Guess=TCheck SCRF=Check GenChk RB3LYP/6-31G(d) Freq
 --------------------------------------------------------------------

 Structure from the checkpoint file:  "JID_2630.chk"
 -------------------------------
 CID_133618387_JID_2630_neutraal
 -------------------------------
 Charge =  0 Multiplicity = 1

 SCF Done:  E(RB3LYP) =  -912.271723210     A.U. after    1 cycles

  Exact polarizability: 148.597   6.557 107.850  -1.672   2.436  86.488
 Approx polarizability: 210.593  16.467 164.287  -1.533   6.446 135.747

                      1                      2                      3
                      A                      A                      A
 Frequencies --     50.1271                54.1565                74.9206
 Red. masses --      4.2671                 4.6347                 5.5899
 Frc consts  --      0.0063                 0.0080                 0.0185
 IR Inten    --      1.6147                 1.6697                 5.1401

                      4                      5                      6
                      A                      A                      A
 Frequencies --    107.6369               164.3838               192.7470
 Red. masses --      4.4951                 3.7576                 3.6630
 Frc consts  --      0.0307                 0.0598                 0.0802
 IR Inten    --      2.7668                 0.6473                14.4065

                      7                      8                      9
                      A                      A                      A
 Frequencies --    242.8295               251.7167               264.9925
 Red. masses --      1.8756                 1.6187                 2.9505
 Frc consts  --      0.0652                 0.0604                 0.1221
 IR Inten    --      1.2332                 2.0624                 0.3552

                     10                     11                     12
                      A                      A                      A
 Frequencies --    292.0577               313.6018               372.7000
 Red. masses --      2.7181                 2.4435                 4.2743
 Frc consts  --      0.1366                 0.1416                 0.3498
 IR Inten    --      3.2262                 0.5638                 1.9673

                     13                     14                     15
                      A                      A                      A
 Frequencies --    421.5940               442.9151               508.4265
 Red. masses --      4.0281                 3.4337                 3.8744
 Frc consts  --      0.4218                 0.3969                 0.5901
 IR Inten    --      6.5797                 0.8614                10.3683

                     16                     17                     18
                      A                      A                      A
 Frequencies --    515.7207               531.7096               548.5770
 Red. masses --      1.1409                 1.4422                 2.9018
 Frc consts  --      0.1788                 0.2402                 0.5145
 IR Inten    --     34.4914                96.0784                10.0275

                     19                     20                     21
                      A                      A                      A
 Frequencies --    564.9037               592.6569               651.4023
 Red. masses --      2.3100                 2.8944                 2.1332
 Frc consts  --      0.4343                 0.5990                 0.5333
 IR Inten    --     62.1109                37.1272                76.5967

                     22                     23                     24
                      A                      A                      A
 Frequencies --    683.1193               731.4093               761.6696
 Red. masses --      3.6557                 3.6301                 3.7737
 Frc consts  --      1.0051                 1.1442                 1.2899
 IR Inten    --      7.3115                16.0343                91.9346

                     25                     26                     27
                      A                      A                      A
 Frequencies --    841.3069               875.4112               906.2777
 Red. masses --      2.6030                 1.3752                 2.5082
 Frc consts  --      1.0855                 0.6209                 1.2138
 IR Inten    --      8.4686                 2.1569                 0.9374

                     28                     29                     30
                      A                      A                      A
 Frequencies --    931.4037               962.6259               985.1598
 Red. masses --      2.7481                 1.9112                 2.3166
 Frc consts  --      1.4046                 1.0435                 1.3247
 IR Inten    --     23.5887                 6.6833                10.6178

                     31                     32                     33
                      A                      A                      A
 Frequencies --   1004.0277              1036.2132              1046.9016
 Red. masses --      1.5070                 1.4104                 1.8412
 Frc consts  --      0.8951                 0.8922                 1.1889
 IR Inten    --      4.8913                 2.9321                 2.4764

                     34                     35                     36
                      A                      A                      A
 Frequencies --   1090.8365              1112.4724              1123.4153
 Red. masses --      1.6463                 2.4256                 1.4780
 Frc consts  --      1.1542                 1.7687                 1.0990
 IR Inten    --     50.5086                31.0727                28.5645

                     37                     38                     39
                      A                      A                      A
 Frequencies --   1135.8023              1194.9163              1209.5387
 Red. masses --      1.7116                 1.5650                 2.5880
 Frc consts  --      1.3010                 1.3166                 2.2308
 IR Inten    --     15.9749                 4.4805                 0.5524

                     40                     41                     42
                      A                      A                      A
 Frequencies --   1256.4436              1297.7395              1313.6655
 Red. masses --      1.7116                 1.7637                 1.2645
 Frc consts  --      1.5920                 1.7500                 1.2857
 IR Inten    --      4.1490                 0.4194                17.0080

                     43                     44                     45
                      A                      A                      A
 Frequencies --   1360.7862              1386.9533              1389.2560
 Red. masses --      1.4623                 1.4485                 1.6471
 Frc consts  --      1.5954                 1.6417                 1.8730
 IR Inten    --      2.7277                 5.4902                88.3995

                     46                     47                     48
                      A                      A                      A
 Frequencies --   1411.7712              1440.2763              1477.9776
 Red. masses --      2.4499                 1.2415                 1.2753
 Frc consts  --      2.8769                 1.5173                 1.6414
 IR Inten    --    133.8997                 4.2425                 2.5820

                     49                     50                     51
                      A                      A                      A
 Frequencies --   1510.4204              1512.8632              1517.9954
 Red. masses --      1.0788                 1.0569                 1.0803
 Frc consts  --      1.4500                 1.4252                 1.4667
 IR Inten    --      1.0951                 7.1772                 4.8545

                     52                     53                     54
                      A                      A                      A
 Frequencies --   1525.6230              1534.4612              1657.0453
 Red. masses --      1.0579                 1.1025                 1.2212
 Frc consts  --      1.4507                 1.5295                 1.9756
 IR Inten    --      6.6187                 1.3547                99.1394

                     55                     56                     57
                      A                      A                      A
 Frequencies --   1701.8227              1818.9469              3056.3124
 Red. masses --      7.1806                 6.6188                 1.0582
 Frc consts  --     12.2529                12.9023                 5.8238
 IR Inten    --      7.7821               486.7926                10.4621

                     58                     59                     60
                      A                      A                      A
 Frequencies --   3064.6195              3065.1146              3080.7161
 Red. masses --      1.0468                 1.0546                 1.0639
 Frc consts  --      5.7927                 5.8373                 5.9493
 IR Inten    --     31.2425                14.7692                22.4896

                     61                     62                     63
                      A                      A                      A
 Frequencies --   3097.6647              3106.7034              3113.8569
 Red. masses --      1.1017                 1.0943                 1.0967
 Frc consts  --      6.2287                 6.2230                 6.2653
 IR Inten    --     14.8314                27.0815                26.8852

                     64                     65                     66
                      A                      A                      A
 Frequencies --   3134.2284              3140.5022              3164.1544
 Red. masses --      1.0995                 1.1074                 1.1024
 Frc consts  --      6.3634                 6.4352                 6.5028
 IR Inten    --     16.5756                14.4323                10.7291

                     67                     68                     69
                      A                      A                      A
 Frequencies --   3549.7170              3603.2975              3676.5631
 Red. masses --      1.0503                 1.0766                 1.0986
 Frc consts  --      7.7974                 8.2359                 8.7494
 IR Inten    --     48.6012                36.6345                74.9688

 - Thermochemistry -
 -------------------
 Temperature   298.150 Kelvin.  Pressure   1.00000 Atm.
 Atom     1 has atomic number  6 and mass  12.00000

 Molecular mass:   187.07793 amu.
 Principal axes and moments of inertia in atomic units:
                           1         2         3
     Eigenvalues --  1231.772563873.484084291.74752
           X            0.99990  -0.00262  -0.01388
           Y            0.00207   0.99921  -0.03975
           Z            0.01397   0.03972   0.99911
 This molecule is an asymmetric top.
 Rotational symmetry number  1.
 Warning -- assumption of classical behavior for rotation
           may cause significant error
 Rotational temperatures (Kelvin)      0.07032     0.02236     0.02018
 Rotational constants (GHZ):           1.46516     0.46592     0.42051
 Zero-point vibrational energy     548845.4 (Joules/Mol)
                                  131.17719 (Kcal/Mol)
 Warning -- explicit consideration of  20 degrees of freedom as
           vibrations may cause significant error
 Vibrational temperatures:     72.12    77.92   107.79   154.87   236.51
          (Kelvin)            277.32   349.38   362.16   381.27   420.21
                              451.20   536.23   606.58   637.26   731.51
                              742.01   765.01   789.28   812.77   852.70
                              937.22   982.86  1052.33  1095.87  1210.45
                             1259.52  1303.93  1340.08  1385.00  1417.43
                             1444.57  1490.88  1506.26  1569.47  1600.60
                             1616.34  1634.17  1719.22  1740.26  1807.74
                             1867.16  1890.07  1957.87  1995.52  1998.83
                             2031.22  2072.24  2126.48  2173.16  2176.67
                             2184.06  2195.03  2207.75  2384.12  2448.54
                             2617.06  4397.35  4409.30  4410.02  4432.46
                             4456.85  4469.85  4480.15  4509.46  4518.48
                             4552.51  5107.25  5184.34  5289.75

 Zero-point correction=                           0.209044 (Hartree/Particle)
 Thermal correction to Energy=                    0.221661
 Thermal correction to Enthalpy=                  0.222606
 Thermal correction to Gibbs Free Energy=         0.169684
 Sum of electronic and zero-point Energies=           -912.062679
 Sum of electronic and thermal Energies=              -912.050062
 Sum of electronic and thermal Enthalpies=            -912.049118
 Sum of electronic and thermal Free Energies=         -912.102039

                     E (Thermal)             CV                S
                      KCal/Mol        Cal/Mol-Kelvin    Cal/Mol-Kelvin
 Total                  139.095             47.623            111.383
 Electronic               0.000              0.000              0.000
 Translational            0.889              2.981             41.585
 Rotational               0.889              2.981             31.394
 Vibrational            137.317             41.662             38.405
 Vibration     1          0.595              1.978              4.812
 Vibration     2          0.596              1.976              4.660
 Vibration     3          0.599              1.966              4.020
 Vibration     4          0.606              1.943              3.311
 Vibration     5          0.623              1.886              2.499
 Vibration     6          0.635              1.850              2.201
 Vibration     7          0.659              1.775              1.782
 Vibration     8          0.664              1.760              1.719
 Vibration     9          0.671              1.737              1.629
 Vibration    10          0.687              1.689              1.462
 Vibration    11          0.701              1.648              1.343
 Vibration    12          0.744              1.528              1.069
 Vibration    13          0.784              1.423              0.887
 Vibration    14          0.803              1.377              0.817
 Vibration    15          0.864              1.231              0.637
 Vibration    16          0.871              1.215              0.620
 Vibration    17          0.887              1.180              0.583
 Vibration    18          0.904              1.143              0.547
 Vibration    19          0.921              1.107              0.514
 Vibration    20          0.950              1.047              0.462

                           ! Non-Optimized Parameters !
 Normal termination of Gaussian 16 at Wed Dec  9 17:51:20 2020.

 ----------------------------------------------------------------------
 # B3LYP/6-311++G(d,p) empiricaldispersion=gd3bj scf=xqc pop=npa geom=c
 heck
 ----------------------------------------------------------------------

 ---------------------------------------
 CID_133618387_JID_2630_Energie_neutraal
 ---------------------------------------
 Structure from the checkpoint file:  "JID_2630.chk"
 Charge =  0 Multiplicity = 1

 SCF Done:  E(RB3LYP) =  -912.456679648     A.U. after   14 cycles
 Normal termination of Gaussian 16 at Wed Dec  9 17:53:55 2020.

 ----------------------------------------------------------------------
 # B3LYP/6-311++G(d,p) empiricaldispersion=gd3bj scf=xqc pop=npa geom=c
 heck
 ----------------------------------------------------------------------

 -------------------------------------
 CID_133618387_JID_2630_Energie_kation
 -------------------------------------
 Structure from the checkpoint file:  "JID_2630.chk"
 Charge =  1 Multiplicity = 2

 SCF Done:  E(UB3LYP) =  -912.153628220     A.U. after   25 cycles
 Normal termination of Gaussian 16 at Wed Dec  9 17:59:10 2020.
 Gaussian 16:  ES64L-G16RevA.03 25-Dec-2016

 ----------------------------------------------------------------------
 # B3LYP/6-311++G(d,p) empiricaldispersion=gd3bj scf=xqc pop=npa geom=c
 heck
 ----------------------------------------------------------------------

 ------------------------------------
 CID_133618387_JID_2630_Energie_anion
 ------------------------------------
 Structure from the checkpoint file:  "JID_2630.chk"
 Charge = -1 Multiplicity = 2

                         Standard orientation:
 ---------------------------------------------------------------------
 Center     Atomic      Atomic             Coordinates (Angstroms)
 Number     Number       Type             X           Y           Z
 ---------------------------------------------------------------------
      1          6           0       -1.368568    2.138893   -0.749023
      2          6           0       -1.180178    0.811049   -0.019945
      3          6           0       -2.189319    0.601211    1.128639
      4          6           0       -2.380839   -0.900298    1.356902
      5          6           0       -2.627915   -1.525878   -0.019865
      6         16           0       -1.510584   -0.638772   -1.191678
      7          6           0        0.229574    0.596129    0.452657
      8          7           0        1.201275    1.272244   -0.032610
      9          7           0        2.476854    0.866692    0.386359
     10          6           0        3.059052   -0.379174    0.080000
     11          8           0        4.268326   -0.516848    0.183978
     12          7           0        2.205935   -1.403724   -0.267401
     13          1           0       -0.660108    2.242458   -1.572810
     14          1           0       -1.191920    2.968969   -0.055582
     15          1           0       -2.386822    2.210075   -1.140303
     16          1           0       -1.843146    1.117131    2.032163
     17          1           0       -3.144821    1.052892    0.837515
     18          1           0       -3.216630   -1.102803    2.035955
     19          1           0       -1.482408   -1.338631    1.805411
     20          1           0       -3.663605   -1.381684   -0.341368
     21          1           0       -2.399979   -2.594003   -0.045578
     22          1           0        0.395696   -0.210942    1.171646
     23          1           0        3.156639    1.601454    0.233964
     24          1           0        1.318225   -1.203158   -0.713740
     25          1           0        2.702324   -2.204695   -0.632879
 ---------------------------------------------------------------------

 SCF Done:  E(UB3LYP) =  -912.449617107     A.U. after   33 cycles
 SCF Done:  E(UB3LYP) =  -912.449617107     a.u. after    1 cycles

 The electronic state is 2-A.
 Alpha  occ. eigenvalues --  -88.72701 -18.98298 -14.24604 -14.22821 -14.21080
 Alpha  occ. eigenvalues --  -10.19470 -10.10603 -10.09142 -10.08025 -10.06622
 Alpha  occ. eigenvalues --  -10.06380 -10.05493  -7.81340  -5.77706  -5.77377
 Alpha  occ. eigenvalues --   -5.76743  -0.95184  -0.87664  -0.80163  -0.75365
 Alpha  occ. eigenvalues --   -0.71215  -0.65201  -0.61413  -0.56705  -0.53361
 Alpha  occ. eigenvalues --   -0.49619  -0.47531  -0.45056  -0.42074  -0.40660
 Alpha  occ. eigenvalues --   -0.37822  -0.36553  -0.35180  -0.33863  -0.33074
 Alpha  occ. eigenvalues --   -0.31916  -0.31246  -0.29567  -0.27327  -0.25039
 Alpha  occ. eigenvalues --   -0.24878  -0.24084  -0.23514  -0.22325  -0.20871
 Alpha  occ. eigenvalues --   -0.19639  -0.17699  -0.16072  -0.12839  -0.11344
 Alpha  occ. eigenvalues --    0.04736
 Alpha virt. eigenvalues --    0.06969   0.08087   0.08309   0.09256   0.10056
 Alpha virt. eigenvalues --    0.10254   0.10542   0.11424   0.11798   0.12549
 Alpha virt. eigenvalues --    0.13136   0.13704   0.14101   0.14448   0.15358

  Beta  occ. eigenvalues --  -88.72677 -18.98289 -14.24615 -14.22823 -14.20789
  Beta  occ. eigenvalues --  -10.19441 -10.10591 -10.09134 -10.07810 -10.06578
  Beta  occ. eigenvalues --  -10.06326 -10.05480  -7.81317  -5.77660  -5.77345
  Beta  occ. eigenvalues --   -5.76723  -0.95139  -0.87378  -0.80135  -0.75215
  Beta  occ. eigenvalues --   -0.71030  -0.65101  -0.61297  -0.56563  -0.53127
  Beta  occ. eigenvalues --   -0.49454  -0.47414  -0.44995  -0.41967  -0.40439
  Beta  occ. eigenvalues --   -0.37756  -0.36454  -0.35079  -0.33717  -0.33008
  Beta  occ. eigenvalues --   -0.31823  -0.31136  -0.29499  -0.27161  -0.24792
  Beta  occ. eigenvalues --   -0.24683  -0.23964  -0.23349  -0.22096  -0.20548
  Beta  occ. eigenvalues --   -0.19365  -0.17615  -0.15822  -0.12635  -0.11016
  Beta virt. eigenvalues --    0.07461   0.08265   0.08431   0.09039   0.10067
  Beta virt. eigenvalues --    0.10295   0.10649   0.11269   0.11668   0.11884
  Beta virt. eigenvalues --    0.12908   0.13393   0.14093   0.14264   0.14824

 Mulliken charges and spin densities:
               1          2
     1  C    0.077714  -0.524025
     2  C   -0.533696   1.812830
     3  C   -0.371365  -0.028003
     4  C    0.663794  -0.972471
     5  C    0.212611  -0.939069
     6  S   -0.359535   0.370249
     7  C    0.807578  -2.098546
     8  N   -0.167226   0.287961
     9  N   -0.004979  -0.136665
    10  C    0.195900  -0.026448
    11  O   -0.402588   0.001502
    12  N   -0.404417  -0.006080
    13  H    0.080228   0.089766
    14  H    0.140816   0.014714
    15  H   -0.049308   0.188222
    16  H   -0.306078   0.482416
    17  H   -0.509566   0.701206
    18  H   -1.064456   1.260093
    19  H   -0.038906   0.186612
    20  H    0.042560   0.149489
    21  H    0.023961   0.160816
    22  H    0.193361  -0.047364
    23  H    0.251276   0.029629
    24  H    0.248719   0.039192
    25  H    0.273603   0.003974
 Sum of Mulliken charges =  -1.00000   1.00000

 Dipole moment (field-independent basis, Debye):
    X=              3.4972    Y=             -0.3681    Z=             -4.5748  Tot=              5.7702
 Quadrupole moment (field-independent basis, Debye-Ang):
   XX=           -162.1287   YY=           -100.0375   ZZ=           -112.4103
   XY=             -0.4983   XZ=              9.3943   YZ=              4.3289

 Summary of Natural Population Analysis:

                                       Natural Population
                Natural  -----------------------------------------------
    Atom  No    Charge         Core      Valence    Rydberg      Total
 -----------------------------------------------------------------------
      C    1   -0.28782      0.99960     2.27995    0.00827     3.28782
      C    2   -0.09563      0.99954     2.07978    0.01631     3.09563
      C    3   -0.19168      0.99957     2.17999    0.01212     3.19168
      C    4   -0.19634      0.99962     2.18585    0.01086     3.19634
      C    5   -0.24210      0.99960     2.23276    0.00974     3.24210
      S    6    0.08019      4.99961     2.90522    0.01499     7.91981
      C    7    0.06846      0.99954     1.91135    0.02065     2.93154
      N    8   -0.12682      0.99964     2.61491    0.01226     3.62682
      N    9   -0.24760      0.99967     2.73511    0.01282     3.74760
      C   10    0.39762      0.99974     1.58015    0.02249     2.60238
      O   11   -0.34269      0.99987     3.33702    0.00580     4.34269
      N   12   -0.42158      0.99971     2.91381    0.00807     3.92158
      H   13    0.10839      0.00000     0.39059    0.00102     0.39161
      H   14    0.10261      0.00000     0.39631    0.00108     0.39739
      H   15    0.10115      0.00000     0.39767    0.00117     0.39885
      H   16    0.10957      0.00000     0.38883    0.00160     0.39043
      H   17    0.10441      0.00000     0.39281    0.00278     0.39559
      H   18    0.10965      0.00000     0.38559    0.00476     0.39035
      H   19    0.09813      0.00000     0.40014    0.00173     0.40187
      H   20    0.09976      0.00000     0.39865    0.00159     0.40024
      H   21    0.10251      0.00000     0.39629    0.00120     0.39749
      H   22    0.08523      0.00000     0.41240    0.00237     0.41477
      H   23    0.19009      0.00000     0.30779    0.00212     0.30991
      H   24    0.20372      0.00000     0.29397    0.00231     0.29628
      H   25    0.19077      0.00000     0.30756    0.00167     0.30923
 =======================================================================
   * Total *    0.00000     15.99572    33.82449    0.17979    50.00000

 Normal termination of Gaussian 16 at Wed Dec  9 18:06:38 2020.
