 Gaussian 16, Revision A.03,

 -----------------------------------------------------------
 # opt freq B3LYP/6-31G(d) empiricaldispersion=gd3bj scf=xqc
 -----------------------------------------------------------

 -------------------------------
 CID_153655245_JID_8832_neutraal
 -------------------------------
 Symbolic Z-matrix:
 Charge =  0 Multiplicity = 1

 SCF Done:  E(RB3LYP) =  -731.326476219     A.U. after   14 cycles
 SCF Done:  E(RB3LYP) =  -731.332159903     A.U. after   12 cycles
 SCF Done:  E(RB3LYP) =  -731.333064271     A.U. after   12 cycles
 SCF Done:  E(RB3LYP) =  -731.333939942     A.U. after   12 cycles
 SCF Done:  E(RB3LYP) =  -731.334146157     A.U. after   11 cycles
 SCF Done:  E(RB3LYP) =  -731.334227762     A.U. after   12 cycles
 SCF Done:  E(RB3LYP) =  -731.334376630     A.U. after   11 cycles
 SCF Done:  E(RB3LYP) =  -731.334433183     A.U. after   10 cycles
 SCF Done:  E(RB3LYP) =  -731.334469758     A.U. after   11 cycles
 SCF Done:  E(RB3LYP) =  -731.334470883     A.U. after    8 cycles
 SCF Done:  E(RB3LYP) =  -731.334523036     A.U. after   10 cycles
 SCF Done:  E(RB3LYP) =  -731.334528233     A.U. after   10 cycles
 SCF Done:  E(RB3LYP) =  -731.334528645     A.U. after    7 cycles
 SCF Done:  E(RB3LYP) =  -731.334528815     A.U. after    7 cycles
 SCF Done:  E(RB3LYP) =  -731.334528892     A.U. after    7 cycles
 Optimization completed.
    -- Stationary point found.
 Normal termination of Gaussian 16 at Fri Dec 11 22:21:31 2020.

 --------------------------------------------------------------------
 #N Geom=AllCheck Guess=TCheck SCRF=Check GenChk RB3LYP/6-31G(d) Freq
 --------------------------------------------------------------------

 Structure from the checkpoint file:  "JID_8832.chk"
 -------------------------------
 CID_153655245_JID_8832_neutraal
 -------------------------------
 Charge =  0 Multiplicity = 1

 SCF Done:  E(RB3LYP) =  -731.334528892     A.U. after    1 cycles

  Exact polarizability: 280.231  15.750 190.366   0.929  -0.915 102.896
 Approx polarizability: 411.467  31.219 309.805   2.168  -0.181 156.469

                      1                      2                      3
                      A                      A                      A
 Frequencies --     29.2017                62.5537                74.3594
 Red. masses --      2.8621                 3.4823                 1.0952
 Frc consts  --      0.0014                 0.0080                 0.0036
 IR Inten    --      0.0188                 1.6952                 0.0465

                      4                      5                      6
                      A                      A                      A
 Frequencies --     95.0209               113.1672               123.7390
 Red. masses --      3.6938                 2.5702                 3.6895
 Frc consts  --      0.0197                 0.0194                 0.0333
 IR Inten    --      0.3893                 1.9663                 0.2569

                      7                      8                      9
                      A                      A                      A
 Frequencies --    165.0288               196.3770               224.0660
 Red. masses --      2.9233                 2.3830                 1.1288
 Frc consts  --      0.0469                 0.0541                 0.0334
 IR Inten    --      0.1765                 2.7769                 0.0749

                     10                     11                     12
                      A                      A                      A
 Frequencies --    229.1782               255.0905               266.4329
 Red. masses --      2.9338                 2.0898                 2.2488
 Frc consts  --      0.0908                 0.0801                 0.0941
 IR Inten    --      3.0280                 0.1618                 0.4920

                     13                     14                     15
                      A                      A                      A
 Frequencies --    278.3115               288.5798               292.8134
 Red. masses --      1.2859                 2.1436                 1.6640
 Frc consts  --      0.0587                 0.1052                 0.0841
 IR Inten    --      0.2825                 1.8156                 0.1985

                     16                     17                     18
                      A                      A                      A
 Frequencies --    306.3359               350.5862               366.5487
 Red. masses --      2.5563                 2.6477                 2.5251
 Frc consts  --      0.1413                 0.1917                 0.1999
 IR Inten    --      0.6073                 0.4668                 0.1298

                     19                     20                     21
                      A                      A                      A
 Frequencies --    406.2177               434.7948               454.9883
 Red. masses --      3.0548                 4.4198                 3.4627
 Frc consts  --      0.2970                 0.4923                 0.4223
 IR Inten    --      0.8588                 1.7613                 0.9866

                     22                     23                     24
                      A                      A                      A
 Frequencies --    464.6157               480.1063               518.9587
 Red. masses --      3.2413                 3.8598                 3.7222
 Frc consts  --      0.4123                 0.5242                 0.5906
 IR Inten    --      1.4044                 4.1239                 0.6948

                     25                     26                     27
                      A                      A                      A
 Frequencies --    554.5434               597.8007               614.4989
 Red. masses --      3.9862                 3.4718                 4.7862
 Frc consts  --      0.7222                 0.7310                 1.0648
 IR Inten    --      4.3368                 1.2160                 5.8896

                     28                     29                     30
                      A                      A                      A
 Frequencies --    639.8991               651.3445               692.6617
 Red. masses --      2.6359                 4.0094                 3.4242
 Frc consts  --      0.6359                 1.0022                 0.9679
 IR Inten    --     12.0676                 5.1671                 0.8798

                     31                     32                     33
                      A                      A                      A
 Frequencies --    703.4867               744.4236               784.2352
 Red. masses --      2.9833                 3.1167                 2.6673
 Frc consts  --      0.8699                 1.0176                 0.9665
 IR Inten    --      1.5109                10.4835                10.7914

                     34                     35                     36
                      A                      A                      A
 Frequencies --    798.7481               820.8903               828.7541
 Red. masses --      6.1608                 2.9647                 1.6564
 Frc consts  --      2.3158                 1.1770                 0.6703
 IR Inten    --      0.5130                 0.9828                23.6637

                     37                     38                     39
                      A                      A                      A
 Frequencies --    861.2591               887.7889               899.9256
 Red. masses --      3.4935                 2.6822                 2.6868
 Frc consts  --      1.5268                 1.2456                 1.2820
 IR Inten    --      2.0520                 8.0158                 6.1838

                     40                     41                     42
                      A                      A                      A
 Frequencies --    941.9273               947.1484               954.7258
 Red. masses --      1.6365                 1.3492                 1.6695
 Frc consts  --      0.8555                 0.7131                 0.8966
 IR Inten    --      0.9840                 0.0323                 0.9552

                     43                     44                     45
                      A                      A                      A
 Frequencies --    964.4205               976.3806              1014.0649
 Red. masses --      1.2360                 1.1979                 2.5527
 Frc consts  --      0.6773                 0.6728                 1.5466
 IR Inten    --      0.1936                 0.0862                 1.4155

                     46                     47                     48
                      A                      A                      A
 Frequencies --   1042.9147              1054.9011              1060.7168
 Red. masses --      2.3437                 1.6210                 1.4024
 Frc consts  --      1.5020                 1.0628                 0.9297
 IR Inten    --      3.9487                 3.3295                 0.0490

                     49                     50                     51
                      A                      A                      A
 Frequencies --   1066.2253              1072.4467              1142.8757
 Red. masses --      2.2890                 3.4275                 1.8751
 Frc consts  --      1.5332                 2.3226                 1.4430
 IR Inten    --      9.4383                12.3908                 7.1639

                     52                     53                     54
                      A                      A                      A
 Frequencies --   1155.3580              1160.6558              1184.4499
 Red. masses --      1.3188                 1.6753                 1.3075
 Frc consts  --      1.0372                 1.3297                 1.0808
 IR Inten    --     19.5378                18.1302                 6.1803

                     55                     56                     57
                      A                      A                      A
 Frequencies --   1192.6509              1204.2765              1225.5529
 Red. masses --      1.3219                 1.1325                 4.0611
 Frc consts  --      1.1078                 0.9677                 3.5938
 IR Inten    --     17.8606                 3.1059                37.7990

                     58                     59                     60
                      A                      A                      A
 Frequencies --   1243.1329              1249.8029              1260.0556
 Red. masses --      2.6748                 2.5057                 1.4332
 Frc consts  --      2.4354                 2.3061                 1.3407
 IR Inten    --      4.3291                 0.2727                 5.0003

                     61                     62                     63
                      A                      A                      A
 Frequencies --   1299.8098              1332.7289              1353.6538
 Red. masses --      2.2949                 3.2122                 2.1889
 Frc consts  --      2.2844                 3.3615                 2.3632
 IR Inten    --     37.4411                15.6508                38.3581

                     64                     65                     66
                      A                      A                      A
 Frequencies --   1373.8518              1390.1903              1407.0040
 Red. masses --      1.5678                 3.2449                 2.5007
 Frc consts  --      1.7435                 3.6948                 2.9167
 IR Inten    --      5.5786                12.4576                25.6819

                     67                     68                     69
                      A                      A                      A
 Frequencies --   1420.5413              1424.6479              1428.4036
 Red. masses --      2.0947                 1.2155                 1.2755
 Frc consts  --      2.4904                 1.4535                 1.5333
 IR Inten    --      3.3581                 3.5910                 6.2905

                     70                     71                     72
                      A                      A                      A
 Frequencies --   1454.9650              1459.6214              1492.6317
 Red. masses --      1.5893                 1.7939                 2.3893
 Frc consts  --      1.9822                 2.2518                 3.1363
 IR Inten    --     34.0252                84.6690                 9.7520

                     73                     74                     75
                      A                      A                      A
 Frequencies --   1495.5714              1500.2641              1507.8755
 Red. masses --      1.5357                 1.1590                 1.0495
 Frc consts  --      2.0238                 1.5370                 1.4059
 IR Inten    --     16.7438                 9.2073                 0.1162

                     76                     77                     78
                      A                      A                      A
 Frequencies --   1510.7301              1515.9913              1516.1069
 Red. masses --      1.0993                 1.1322                 1.0470
 Frc consts  --      1.4782                 1.5331                 1.4179
 IR Inten    --      0.5560                 1.9791                 0.0768

                     79                     80                     81
                      A                      A                      A
 Frequencies --   1523.0944              1529.3066              1530.1228
 Red. masses --      1.0713                 2.8039                 1.0525
 Frc consts  --      1.4643                 3.8637                 1.4519
 IR Inten    --     10.9526                 1.8468                 3.9996

                     82                     83                     84
                      A                      A                      A
 Frequencies --   1534.9274              1540.5186              1548.4441
 Red. masses --      1.0930                 1.1649                 1.2075
 Frc consts  --      1.5172                 1.6289                 1.7058
 IR Inten    --      4.7354                11.5941                 7.8328

                     85                     86                     87
                      A                      A                      A
 Frequencies --   1597.0077              1608.1686              1655.2598
 Red. masses --      8.0661                 5.5883                 7.3629
 Frc consts  --     12.1207                 8.5152                11.8859
 IR Inten    --      1.9914                51.0100                52.3121

                     88                     89                     90
                      A                      A                      A
 Frequencies --   1686.5333              2990.4152              3005.3527
 Red. masses --      6.2394                 1.0738                 1.0710
 Frc consts  --     10.4565                 5.6579                 5.6993
 IR Inten    --     17.8465                26.4217                49.8740

                     91                     92                     93
                      A                      A                      A
 Frequencies --   3042.0816              3043.0871              3045.1062
 Red. masses --      1.0346                 1.0433                 1.0358
 Frc consts  --      5.6413                 5.6922                 5.6589
 IR Inten    --     28.0127                74.1179                27.5177

                     94                     95                     96
                      A                      A                      A
 Frequencies --   3055.9088              3084.7921              3098.2899
 Red. masses --      1.0390                 1.0896                 1.0897
 Frc consts  --      5.7170                 6.1089                 6.1633
 IR Inten    --     44.8759                43.4336                15.6381

                     97                     98                     99
                      A                      A                      A
 Frequencies --   3107.7204              3111.5419              3113.6849
 Red. masses --      1.1018                 1.1011                 1.0945
 Frc consts  --      6.2698                 6.2808                 6.2518
 IR Inten    --      4.1983                58.9042                20.1626

                    100                    101                    102
                      A                      A                      A
 Frequencies --   3117.8141              3120.0713              3125.7912
 Red. masses --      1.1031                 1.1018                 1.0981
 Frc consts  --      6.3176                 6.3197                 6.3216
 IR Inten    --     13.0994                39.0378                67.0977

                    103                    104                    105
                      A                      A                      A
 Frequencies --   3143.9692              3153.3591              3180.7442
 Red. masses --      1.1021                 1.1025                 1.0852
 Frc consts  --      6.4186                 6.4594                 6.4686
 IR Inten    --     25.8401                 8.0218                 3.0247

                    106                    107                    108
                      A                      A                      A
 Frequencies --   3189.4343              3201.2152              3214.7869
 Red. masses --      1.0887                 1.0967                 1.0927
 Frc consts  --      6.5249                 6.6220                 6.6536
 IR Inten    --     13.4360                41.2127                19.2191

 - Thermochemistry -
 -------------------
 Temperature   298.150 Kelvin.  Pressure   1.00000 Atm.
 Atom     1 has atomic number  6 and mass  12.00000

 Molecular mass:   240.16265 amu.
 Principal axes and moments of inertia in atomic units:
                           1         2         3
     Eigenvalues --  2154.810626960.315218655.73965
           X            0.99998  -0.00556  -0.00043
           Y            0.00556   0.99998  -0.00102
           Z            0.00043   0.00102   1.00000
 This molecule is an asymmetric top.
 Rotational symmetry number  1.
 Warning -- assumption of classical behavior for rotation
           may cause significant error
 Rotational temperatures (Kelvin)      0.04020     0.01244     0.01001
 Rotational constants (GHZ):           0.83754     0.25929     0.20850
 Zero-point vibrational energy     864033.7 (Joules/Mol)
                                  206.50901 (Kcal/Mol)
 Warning -- explicit consideration of  27 degrees of freedom as
           vibrations may cause significant error
 Vibrational temperatures:     42.01    90.00   106.99   136.71   162.82
          (Kelvin)            178.03   237.44   282.54   322.38   329.74
                              367.02   383.34   400.43   415.20   421.29
                              440.75   504.42   527.38   584.46   625.57
                              654.63   668.48   690.77   746.67   797.86
                              860.10   884.13   920.67   937.14   996.59
                             1012.16  1071.06  1128.34  1149.22  1181.08
                             1192.39  1239.16  1277.33  1294.79  1355.22
                             1362.74  1373.64  1387.59  1404.79  1459.01
                             1500.52  1517.77  1526.13  1534.06  1543.01
                             1644.34  1662.30  1669.92  1704.16  1715.96
                             1732.69  1763.30  1788.59  1798.19  1812.94
                             1870.14  1917.50  1947.61  1976.67  2000.17
                             2024.36  2043.84  2049.75  2055.15  2093.37
                             2100.07  2147.56  2151.79  2158.55  2169.50
                             2173.60  2181.17  2181.34  2191.39  2200.33
                             2201.51  2208.42  2216.46  2227.87  2297.74
                             2313.80  2381.55  2426.55  4302.54  4324.03
                             4376.88  4378.32  4381.23  4396.77  4438.33
                             4457.75  4471.32  4476.81  4479.90  4485.84
                             4489.09  4497.32  4523.47  4536.98  4576.38
                             4588.88  4605.83  4625.36

 Zero-point correction=                           0.329093 (Hartree/Particle)
 Thermal correction to Energy=                    0.345977
 Thermal correction to Enthalpy=                  0.346921
 Thermal correction to Gibbs Free Energy=         0.285008
 Sum of electronic and zero-point Energies=           -731.005436
 Sum of electronic and thermal Energies=              -730.988552
 Sum of electronic and thermal Enthalpies=            -730.987608
 Sum of electronic and thermal Free Energies=         -731.049521

                     E (Thermal)             CV                S
                      KCal/Mol        Cal/Mol-Kelvin    Cal/Mol-Kelvin
 Total                  217.104             66.437            130.307
 Electronic               0.000              0.000              0.000
 Translational            0.889              2.981             42.330
 Rotational               0.889              2.981             33.229
 Vibrational            215.326             60.475             54.748
 Vibration     1          0.593              1.984              5.883
 Vibration     2          0.597              1.972              4.375
 Vibration     3          0.599              1.966              4.035
 Vibration     4          0.603              1.953              3.554
 Vibration     5          0.607              1.939              3.214
 Vibration     6          0.610              1.929              3.041
 Vibration     7          0.623              1.885              2.491
 Vibration     8          0.636              1.845              2.167
 Vibration     9          0.649              1.804              1.926
 Vibration    10          0.652              1.796              1.885
 Vibration    11          0.665              1.754              1.695
 Vibration    12          0.672              1.735              1.619
 Vibration    13          0.679              1.714              1.544
 Vibration    14          0.685              1.695              1.482
 Vibration    15          0.688              1.687              1.458
 Vibration    16          0.697              1.662              1.382
 Vibration    17          0.727              1.574              1.164
 Vibration    18          0.739              1.541              1.094
 Vibration    19          0.771              1.457              0.940
 Vibration    20          0.795              1.394              0.843
 Vibration    21          0.813              1.350              0.781
 Vibration    22          0.822              1.329              0.753
 Vibration    23          0.836              1.294              0.710
 Vibration    24          0.874              1.208              0.612
 Vibration    25          0.910              1.130              0.535
 Vibration    26          0.956              1.036              0.453
 Vibration    27          0.974              1.001              0.425

                           ! Non-Optimized Parameters !
 Normal termination of Gaussian 16 at Fri Dec 11 22:38:27 2020.

 ----------------------------------------------------------------------
 # B3LYP/6-311++G(d,p) empiricaldispersion=gd3bj scf=xqc pop=npa geom=c
 heck
 ----------------------------------------------------------------------

 ---------------------------------------
 CID_153655245_JID_8832_Energie_neutraal
 ---------------------------------------
 Structure from the checkpoint file:  "JID_8832.chk"
 Charge =  0 Multiplicity = 1

 SCF Done:  E(RB3LYP) =  -731.518543619     A.U. after   15 cycles
 Normal termination of Gaussian 16 at Fri Dec 11 22:46:24 2020.

 ----------------------------------------------------------------------
 # B3LYP/6-311++G(d,p) empiricaldispersion=gd3bj scf=xqc pop=npa geom=c
 heck
 ----------------------------------------------------------------------

 -------------------------------------
 CID_153655245_JID_8832_Energie_kation
 -------------------------------------
 Structure from the checkpoint file:  "JID_8832.chk"
 Charge =  1 Multiplicity = 2

 SCF Done:  E(UB3LYP) =  -731.264549166     A.U. after   23 cycles
 Normal termination of Gaussian 16 at Fri Dec 11 23:03:45 2020.
 Gaussian 16:  ES64L-G16RevA.03 25-Dec-2016

 ----------------------------------------------------------------------
 # B3LYP/6-311++G(d,p) empiricaldispersion=gd3bj scf=xqc pop=npa geom=c
 heck
 ----------------------------------------------------------------------

 ------------------------------------
 CID_153655245_JID_8832_Energie_anion
 ------------------------------------
 Structure from the checkpoint file:  "JID_8832.chk"
 Charge = -1 Multiplicity = 2

                         Standard orientation:
 ---------------------------------------------------------------------
 Center     Atomic      Atomic             Coordinates (Angstroms)
 Number     Number       Type             X           Y           Z
 ---------------------------------------------------------------------
      1          6           0        3.323992   -2.026374   -0.064721
      2          6           0        3.426815   -0.495528    0.002875
      3          6           0        4.177876   -0.102925    1.293232
      4          6           0        4.219353    0.005425   -1.223678
      5          6           0        2.034039    0.146143    0.007138
      6          7           0        0.977254   -0.665823   -0.050483
      7          6           0       -0.242142   -0.095015   -0.047219
      8          6           0       -0.446609    1.317878    0.015149
      9          6           0        0.655925    2.166014    0.073378
     10          6           0        1.905847    1.557448    0.069543
     11          7           0       -1.806339    1.558601    0.006991
     12          6           0       -2.457728    0.329846   -0.070540
     13          6           0       -1.533219   -0.698257   -0.092984
     14          6           0       -1.979994   -2.122007   -0.242120
     15          6           0       -3.390507   -2.302856    0.358745
     16          6           0       -4.332693   -1.165330    0.024202
     17          6           0       -3.885445    0.094472   -0.141283
     18          6           0       -2.425772    2.866059    0.020521
     19          1           0        4.330064   -2.462592   -0.066703
     20          1           0        2.799662   -2.348512   -0.968357
     21          1           0        2.770606   -2.424094    0.790252
     22          1           0        5.173524   -0.562356    1.308098
     23          1           0        4.309396    0.981286    1.376261
     24          1           0        3.631626   -0.444462    2.179459
     25          1           0        3.703101   -0.258271   -2.153388
     26          1           0        4.351486    1.092655   -1.208899
     27          1           0        5.215763   -0.452118   -1.245109
     28          1           0        0.557780    3.247394    0.113677
     29          1           0        2.795811    2.175729    0.112065
     30          1           0       -1.997514   -2.392093   -1.309909
     31          1           0       -1.272464   -2.806477    0.236359
     32          1           0       -3.309402   -2.359854    1.457190
     33          1           0       -3.817694   -3.258425    0.035240
     34          1           0       -5.398678   -1.373464   -0.019353
     35          1           0       -4.571220    0.914324   -0.335910
     36          1           0       -1.839613    3.541855    0.649774
     37          1           0       -2.498496    3.297197   -0.986272
     38          1           0       -3.428576    2.792874    0.446540
 ---------------------------------------------------------------------

 SCF Done:  E(UB3LYP) =  -731.516457120     A.U. after   33 cycles
 SCF Done:  E(UB3LYP) =  -731.516457120     a.u. after    1 cycles

 The electronic state is 2-A.
 Alpha  occ. eigenvalues --  -14.22362 -14.15064 -10.09382 -10.07387 -10.06729
 Alpha  occ. eigenvalues --  -10.06533 -10.05711 -10.05647 -10.05610 -10.05136
 Alpha  occ. eigenvalues --  -10.04581 -10.04360 -10.04201 -10.04114 -10.03162
 Alpha  occ. eigenvalues --  -10.03017 -10.02372 -10.01298  -0.85540  -0.79244
 Alpha  occ. eigenvalues --   -0.70869  -0.70066  -0.66063  -0.65277  -0.61554
 Alpha  occ. eigenvalues --   -0.58677  -0.58314  -0.57494  -0.56712  -0.50947
 Alpha  occ. eigenvalues --   -0.49628  -0.46637  -0.44043  -0.43106  -0.39734
 Alpha  occ. eigenvalues --   -0.38435  -0.36841  -0.35111  -0.34655  -0.33476
 Alpha  occ. eigenvalues --   -0.33199  -0.32512  -0.31821  -0.30139  -0.29844
 Alpha  occ. eigenvalues --   -0.29286  -0.28671  -0.27884  -0.27447  -0.26873
 Alpha  occ. eigenvalues --   -0.26611  -0.25965  -0.25172  -0.23961  -0.23099
 Alpha  occ. eigenvalues --   -0.22164  -0.21674  -0.21353  -0.21151  -0.19083
 Alpha  occ. eigenvalues --   -0.16816  -0.14171  -0.11333  -0.09029  -0.06212
 Alpha  occ. eigenvalues --    0.04808
 Alpha virt. eigenvalues --    0.07090   0.07307   0.08568   0.09219   0.09482
 Alpha virt. eigenvalues --    0.09708   0.10587   0.10703   0.11048   0.11461
 Alpha virt. eigenvalues --    0.11694   0.12237   0.12576   0.12954   0.13198

  Beta  occ. eigenvalues --  -14.22305 -14.14803 -10.09354 -10.07388 -10.06790
  Beta  occ. eigenvalues --  -10.06552 -10.05646 -10.05603 -10.05545 -10.05112
  Beta  occ. eigenvalues --  -10.04608 -10.04360 -10.04189 -10.03930 -10.03163
  Beta  occ. eigenvalues --  -10.02908 -10.01970 -10.01243  -0.85409  -0.78930
  Beta  occ. eigenvalues --   -0.70787  -0.69836  -0.65801  -0.64988  -0.61355
  Beta  occ. eigenvalues --   -0.58412  -0.58306  -0.57449  -0.56584  -0.50612
  Beta  occ. eigenvalues --   -0.49572  -0.46391  -0.43783  -0.43035  -0.39494
  Beta  occ. eigenvalues --   -0.38298  -0.36754  -0.34984  -0.34465  -0.33407
  Beta  occ. eigenvalues --   -0.33173  -0.32363  -0.31732  -0.30067  -0.29688
  Beta  occ. eigenvalues --   -0.29216  -0.28529  -0.27820  -0.27262  -0.26614
  Beta  occ. eigenvalues --   -0.26548  -0.25944  -0.25048  -0.23698  -0.22976
  Beta  occ. eigenvalues --   -0.22127  -0.21604  -0.21268  -0.20512  -0.18942
  Beta  occ. eigenvalues --   -0.15871  -0.13122  -0.11057  -0.08402  -0.05061
  Beta virt. eigenvalues --    0.07025   0.07599   0.08548   0.09223   0.09337
  Beta virt. eigenvalues --    0.09539   0.09754   0.10695   0.10888   0.10969
  Beta virt. eigenvalues --    0.11509   0.11697   0.12504   0.12623   0.12957

 Mulliken charges and spin densities:
               1          2
     1  C   -0.606840  -0.008886
     2  C    0.630927   0.015149
     3  C   -0.582603   0.009083
     4  C   -0.505067  -0.062720
     5  C    0.129837  -0.045299
     6  N    0.102843   0.129888
     7  C   -0.412953   0.364954
     8  C    0.254265   0.073736
     9  C   -0.313349  -0.107151
    10  C   -0.369198  -0.237165
    11  N    0.042204   0.086297
    12  C   -0.540256   0.174459
    13  C    0.991470   0.325159
    14  C   -0.819581   0.061578
    15  C   -0.538056  -0.010129
    16  C    0.036905   0.091142
    17  C   -0.252695  -0.341429
    18  C    0.383082  -0.763491
    19  H    0.106884   0.005297
    20  H    0.158671  -0.002764
    21  H    0.140487   0.011572
    22  H    0.129725  -0.002320
    23  H    0.135424   0.000640
    24  H    0.150813   0.001516
    25  H    0.140711   0.008095
    26  H    0.120196   0.017422
    27  H    0.097218   0.029946
    28  H    0.010804   0.094141
    29  H    0.085099   0.013749
    30  H    0.100403   0.011080
    31  H    0.129325   0.009332
    32  H    0.070895   0.064111
    33  H    0.100147   0.001674
    34  H    0.073552   0.045273
    35  H   -0.015198   0.114113
    36  H   -0.250292   0.397845
    37  H    0.176280  -0.016603
    38  H   -0.292079   0.440705
 Sum of Mulliken charges =  -1.00000   1.00000

 Dipole moment (field-independent basis, Debye):
    X=              4.2414    Y=             -0.5233    Z=             -0.9883  Tot=              4.3863
 Quadrupole moment (field-independent basis, Debye-Ang):
   XX=           -164.8065   YY=           -135.9685   ZZ=           -125.7402
   XY=              2.5407   XZ=              3.5649   YZ=             -5.2860

 Summary of Natural Population Analysis:

                                       Natural Population
                Natural  -----------------------------------------------
    Atom  No    Charge         Core      Valence    Rydberg      Total
 -----------------------------------------------------------------------
      C    1   -0.28130      0.99964     2.27543    0.00623     3.28130
      C    2   -0.05675      0.99956     2.04822    0.00897     3.05675
      C    3   -0.27883      0.99964     2.27396    0.00523     3.27883
      C    4   -0.27891      0.99964     2.27375    0.00552     3.27891
      C    5    0.09486      0.99951     1.89019    0.01544     2.90514
      N    6   -0.21413      0.99965     2.70405    0.01043     3.71413
      C    7    0.08197      0.99944     1.90578    0.01280     2.91803
      C    8    0.05973      0.99947     1.93010    0.01070     2.94027
      C    9   -0.07950      0.99953     2.07043    0.00953     3.07950
      C   10   -0.12014      0.99953     2.11287    0.00774     3.12014
      N   11   -0.20405      0.99959     2.69619    0.00827     3.70405
      C   12    0.11820      0.99944     1.86938    0.01298     2.88180
      C   13   -0.05073      0.99942     2.04199    0.00933     3.05073
      C   14   -0.18589      0.99961     2.17829    0.00798     3.18589
      C   15   -0.20662      0.99963     2.19870    0.00828     3.20662
      C   16    0.00267      0.99957     1.98789    0.00986     2.99733
      C   17   -0.14453      0.99951     2.13440    0.01062     3.14453
      C   18   -0.17248      0.99965     2.16534    0.00749     3.17248
      H   19    0.08642      0.00000     0.41271    0.00087     0.41358
      H   20    0.10614      0.00000     0.39299    0.00087     0.39386
      H   21    0.10617      0.00000     0.39306    0.00077     0.39383
      H   22    0.09002      0.00000     0.40906    0.00092     0.40998
      H   23    0.09790      0.00000     0.40129    0.00082     0.40210
      H   24    0.10107      0.00000     0.39821    0.00071     0.39893
      H   25    0.10089      0.00000     0.39826    0.00086     0.39911
      H   26    0.09803      0.00000     0.40100    0.00097     0.40197
      H   27    0.09014      0.00000     0.40871    0.00115     0.40986
      H   28    0.09473      0.00000     0.40422    0.00105     0.40527
      H   29    0.09058      0.00000     0.40791    0.00151     0.40942
      H   30    0.09104      0.00000     0.40712    0.00184     0.40896
      H   31    0.10237      0.00000     0.39591    0.00172     0.39763
      H   32    0.09908      0.00000     0.39909    0.00183     0.40092
      H   33    0.09355      0.00000     0.40520    0.00125     0.40645
      H   34    0.08341      0.00000     0.41557    0.00102     0.41659
      H   35    0.09607      0.00000     0.40275    0.00117     0.40393
      H   36    0.09875      0.00000     0.39994    0.00131     0.40125
      H   37    0.08727      0.00000     0.41188    0.00085     0.41273
      H   38    0.10281      0.00000     0.39598    0.00121     0.39719
 =======================================================================
   * Total *    0.00000     17.99205    46.81783    0.19013    65.00000

 Normal termination of Gaussian 16 at Fri Dec 11 23:28:02 2020.
