 Gaussian 16, Revision A.03,

 -----------------------------------------------------------
 # opt freq B3LYP/6-31G(d) empiricaldispersion=gd3bj scf=xqc
 -----------------------------------------------------------

 -------------------------------
 CID_106982285_JID_6061_neutraal
 -------------------------------
 Symbolic Z-matrix:
 Charge =  0 Multiplicity = 1

 SCF Done:  E(RB3LYP) =  -724.247119254     A.U. after   15 cycles
 SCF Done:  E(RB3LYP) =  -724.252405584     A.U. after   13 cycles
 SCF Done:  E(RB3LYP) =  -724.253070621     A.U. after   12 cycles
 SCF Done:  E(RB3LYP) =  -724.252717124     A.U. after   13 cycles
 SCF Done:  E(RB3LYP) =  -724.253433919     A.U. after   12 cycles
 SCF Done:  E(RB3LYP) =  -724.253823631     A.U. after   11 cycles
 SCF Done:  E(RB3LYP) =  -724.253946920     A.U. after   12 cycles
 SCF Done:  E(RB3LYP) =  -724.254015490     A.U. after    9 cycles
 SCF Done:  E(RB3LYP) =  -724.254072948     A.U. after   11 cycles
 SCF Done:  E(RB3LYP) =  -724.254094281     A.U. after   10 cycles
 SCF Done:  E(RB3LYP) =  -724.254098812     A.U. after   10 cycles
 SCF Done:  E(RB3LYP) =  -724.254102164     A.U. after    8 cycles
 SCF Done:  E(RB3LYP) =  -724.254102952     A.U. after    8 cycles
 SCF Done:  E(RB3LYP) =  -724.254103199     A.U. after    7 cycles
 SCF Done:  E(RB3LYP) =  -724.254103268     A.U. after    7 cycles
 Optimization completed.
    -- Stationary point found.
 Normal termination of Gaussian 16 at Thu Dec 10 21:13:34 2020.

 --------------------------------------------------------------------
 #N Geom=AllCheck Guess=TCheck SCRF=Check GenChk RB3LYP/6-31G(d) Freq
 --------------------------------------------------------------------

 Structure from the checkpoint file:  "JID_6061.chk"
 -------------------------------
 CID_106982285_JID_6061_neutraal
 -------------------------------
 Charge =  0 Multiplicity = 1

 SCF Done:  E(RB3LYP) =  -724.254103268     A.U. after    1 cycles

  Exact polarizability: 163.313   1.844 124.145   3.196  11.755 123.427
 Approx polarizability: 227.712   5.028 190.371  11.981  41.685 208.703

                      1                      2                      3
                      A                      A                      A
 Frequencies --     36.6328                54.5431                75.4150
 Red. masses --      4.0763                 3.9336                 2.9112
 Frc consts  --      0.0032                 0.0069                 0.0098
 IR Inten    --      0.5864                 0.1239                 0.9248

                      4                      5                      6
                      A                      A                      A
 Frequencies --    108.6367               138.4780               157.6564
 Red. masses --      2.6365                 6.0272                 4.8653
 Frc consts  --      0.0183                 0.0681                 0.0712
 IR Inten    --      1.8808                 7.9504                 2.6939

                      7                      8                      9
                      A                      A                      A
 Frequencies --    177.4967               211.4782               222.3731
 Red. masses --      1.1560                 2.6949                 2.2407
 Frc consts  --      0.0215                 0.0710                 0.0653
 IR Inten    --      0.4400                 2.9434                 1.5544

                     10                     11                     12
                      A                      A                      A
 Frequencies --    228.8920               236.8874               254.2548
 Red. masses --      1.4035                 2.6848                 4.0177
 Frc consts  --      0.0433                 0.0888                 0.1530
 IR Inten    --      1.5671                 1.9549                 2.2576

                     13                     14                     15
                      A                      A                      A
 Frequencies --    269.9010               304.9052               334.2750
 Red. masses --      1.4501                 2.3485                 2.2332
 Frc consts  --      0.0622                 0.1286                 0.1470
 IR Inten    --      0.5441                 5.1013                 1.3545

                     16                     17                     18
                      A                      A                      A
 Frequencies --    343.1805               377.7201               412.2372
 Red. masses --      2.1244                 3.0371                 5.1471
 Frc consts  --      0.1474                 0.2553                 0.5154
 IR Inten    --      2.8007                 1.6227                 1.4396

                     19                     20                     21
                      A                      A                      A
 Frequencies --    425.7702               456.2547               513.4446
 Red. masses --      3.6752                 2.6780                 2.4933
 Frc consts  --      0.3925                 0.3285                 0.3873
 IR Inten    --      2.0112                 1.2589                 6.9614

                     22                     23                     24
                      A                      A                      A
 Frequencies --    562.3969               602.2598               644.7776
 Red. masses --      5.5802                 2.1724                 5.3272
 Frc consts  --      1.0399                 0.4643                 1.3049
 IR Inten    --      6.0056                28.8015                 2.1299

                     25                     26                     27
                      A                      A                      A
 Frequencies --    704.0519               710.4923               735.9274
 Red. masses --      8.2908                 2.7899                 4.8478
 Frc consts  --      2.4213                 0.8298                 1.5469
 IR Inten    --      2.6660                44.6723                14.9200

                     28                     29                     30
                      A                      A                      A
 Frequencies --    746.0404               804.6268               862.3059
 Red. masses --      3.9671                 3.4361                 1.3619
 Frc consts  --      1.3009                 1.3107                 0.5966
 IR Inten    --      3.3169                13.7056                10.1095

                     31                     32                     33
                      A                      A                      A
 Frequencies --    865.5246               893.0768               906.7802
 Red. masses --      2.1343                 2.3805                 2.4318
 Frc consts  --      0.9420                 1.1186                 1.1781
 IR Inten    --     19.4468                59.6436                 1.6579

                     34                     35                     36
                      A                      A                      A
 Frequencies --    938.9837               947.7807               968.4462
 Red. masses --      1.9719                 1.2924                 2.3560
 Frc consts  --      1.0243                 0.6840                 1.3019
 IR Inten    --     16.2874                 0.4773                 1.7581

                     37                     38                     39
                      A                      A                      A
 Frequencies --    978.7940               987.0036              1021.9501
 Red. masses --      1.5339                 3.6820                 2.0942
 Frc consts  --      0.8659                 2.1133                 1.2886
 IR Inten    --      1.7864                 4.8333                 2.4591

                     40                     41                     42
                      A                      A                      A
 Frequencies --   1045.7655              1059.0312              1073.4417
 Red. masses --      2.9399                 2.1142                 1.6686
 Frc consts  --      1.8943                 1.3971                 1.1328
 IR Inten    --     51.1976                 6.0295                19.2394

                     43                     44                     45
                      A                      A                      A
 Frequencies --   1096.8053              1120.9227              1149.1585
 Red. masses --      2.3243                 2.1828                 2.3716
 Frc consts  --      1.6474                 1.6159                 1.8453
 IR Inten    --      0.5490                 4.4338                16.4709

                     46                     47                     48
                      A                      A                      A
 Frequencies --   1160.8474              1170.1150              1181.8616
 Red. masses --      1.3135                 2.1608                 1.8486
 Frc consts  --      1.0428                 1.7431                 1.5213
 IR Inten    --      0.0953                 1.0247                21.3721

                     49                     50                     51
                      A                      A                      A
 Frequencies --   1195.7965              1207.7981              1233.4374
 Red. masses --      2.1509                 1.7901                 1.5250
 Frc consts  --      1.8121                 1.5385                 1.3670
 IR Inten    --     14.2655                 3.8236                 6.4486

                     52                     53                     54
                      A                      A                      A
 Frequencies --   1242.4586              1262.2553              1285.5174
 Red. masses --      2.2061                 3.4744                 1.3953
 Frc consts  --      2.0065                 3.2615                 1.3586
 IR Inten    --     11.3982                 7.9841                26.6568

                     55                     56                     57
                      A                      A                      A
 Frequencies --   1291.5915              1319.0518              1326.1987
 Red. masses --      2.8493                 1.9614                 2.0165
 Frc consts  --      2.8005                 2.0107                 2.0896
 IR Inten    --     44.6634                 9.5638                22.9125

                     58                     59                     60
                      A                      A                      A
 Frequencies --   1344.8244              1357.2692              1368.9589
 Red. masses --      1.2964                 3.5282                 1.3831
 Frc consts  --      1.3814                 3.8295                 1.5272
 IR Inten    --      1.5978                47.2298                 3.8638

                     61                     62                     63
                      A                      A                      A
 Frequencies --   1379.8388              1421.9607              1437.3631
 Red. masses --      1.3398                 1.4225                 1.2462
 Frc consts  --      1.5029                 1.6946                 1.5170
 IR Inten    --      4.0260                 1.7409                 3.4151

                     64                     65                     66
                      A                      A                      A
 Frequencies --   1444.8344              1457.3433              1462.6508
 Red. masses --      3.7104                 1.2317                 1.3708
 Frc consts  --      4.5636                 1.5413                 1.7279
 IR Inten    --     38.7269                10.8852                 6.5832

                     67                     68                     69
                      A                      A                      A
 Frequencies --   1481.6914              1505.3719              1508.1993
 Red. masses --      1.4671                 1.0434                 1.0453
 Frc consts  --      1.8977                 1.3931                 1.4010
 IR Inten    --     15.4286                10.0995                 2.1879

                     70                     71                     72
                      A                      A                      A
 Frequencies --   1517.3181              1518.2070              1531.3894
 Red. masses --      1.1175                 1.0623                 1.0571
 Frc consts  --      1.5158                 1.4427                 1.4607
 IR Inten    --     27.0132                 1.4382                 6.0908

                     73                     74                     75
                      A                      A                      A
 Frequencies --   1536.4070              1539.6562              1552.8374
 Red. masses --      1.0555                 1.0862                 1.0810
 Frc consts  --      1.4679                 1.5170                 1.5357
 IR Inten    --      4.8786                12.1712                 5.7323

                     76                     77                     78
                      A                      A                      A
 Frequencies --   1558.0305              1562.9144              1732.0001
 Red. masses --      2.5042                 1.3003                12.2512
 Frc consts  --      3.5816                 1.8713                21.6533
 IR Inten    --     30.1316                16.9022               121.1815

                     79                     80                     81
                      A                      A                      A
 Frequencies --   2941.0252              2972.9565              3036.4620
 Red. masses --      1.0743                 1.0715                 1.0837
 Frc consts  --      5.4750                 5.5796                 5.8872
 IR Inten    --     87.0891                77.5647                 8.6855

                     82                     83                     84
                      A                      A                      A
 Frequencies --   3052.8280              3060.8075              3083.5143
 Red. masses --      1.0379                 1.0402                 1.0895
 Frc consts  --      5.6990                 5.7419                 6.1035
 IR Inten    --     18.2799                22.4707                35.9381

                     85                     86                     87
                      A                      A                      A
 Frequencies --   3090.6219              3100.2744              3109.4049
 Red. masses --      1.0861                 1.0303                 1.0685
 Frc consts  --      6.1123                 5.8349                 6.0865
 IR Inten    --     28.4462                13.4163                27.4551

                     88                     89                     90
                      A                      A                      A
 Frequencies --   3113.4989              3123.5295              3133.1255
 Red. masses --      1.1000                 1.0997                 1.1010
 Frc consts  --      6.2825                 6.3217                 6.3681
 IR Inten    --     15.2315                52.0498                32.8963

                     91                     92                     93
                      A                      A                      A
 Frequencies --   3152.5445              3158.7093              3180.4055
 Red. masses --      1.0988                 1.1013                 1.1060
 Frc consts  --      6.4339                 6.4742                 6.5915
 IR Inten    --     27.5119                 9.5224                 5.3133

                     94                     95                     96
                      A                      A                      A
 Frequencies --   3196.8792              3311.3389              3505.2910
 Red. masses --      1.1078                 1.0974                 1.0749
 Frc consts  --      6.6704                 7.0893                 7.7816
 IR Inten    --      4.0775                 1.0138                 1.3320

 - Thermochemistry -
 -------------------
 Temperature   298.150 Kelvin.  Pressure   1.00000 Atm.
 Atom     1 has atomic number  6 and mass  12.00000

 Molecular mass:   222.14806 amu.
 Principal axes and moments of inertia in atomic units:
                           1         2         3
     Eigenvalues --  2002.601974948.266545102.39329
           X            0.99977  -0.01849  -0.01074
           Y            0.01656   0.98731  -0.15794
           Z            0.01352   0.15772   0.98739
 This molecule is an asymmetric top.
 Rotational symmetry number  1.
 Warning -- assumption of classical behavior for rotation
           may cause significant error
 Rotational temperatures (Kelvin)      0.04325     0.01750     0.01698
 Rotational constants (GHZ):           0.90120     0.36472     0.35370
 Zero-point vibrational energy     772703.8 (Joules/Mol)
                                  184.68064 (Kcal/Mol)
 Warning -- explicit consideration of  23 degrees of freedom as
           vibrations may cause significant error
 Vibrational temperatures:     52.71    78.48   108.51   156.30   199.24
          (Kelvin)            226.83   255.38   304.27   319.95   329.32
                              340.83   365.82   388.33   438.69   480.95
                              493.76   543.46   593.12   612.59   656.45
                              738.73   809.16   866.52   927.69  1012.97
                             1022.24  1058.84  1073.39  1157.68  1240.67
                             1245.30  1284.94  1304.65  1350.99  1363.64
                             1393.38  1408.27  1420.08  1470.36  1504.62
                             1523.71  1544.44  1578.06  1612.76  1653.38
                             1670.20  1683.53  1700.44  1720.48  1737.75
                             1774.64  1787.62  1816.10  1849.57  1858.31
                             1897.82  1908.10  1934.90  1952.81  1969.63
                             1985.28  2045.88  2068.04  2078.79  2096.79
                             2104.43  2131.82  2165.89  2169.96  2183.08
                             2184.36  2203.33  2210.55  2215.22  2234.19
                             2241.66  2248.69  2491.96  4231.48  4277.42
                             4368.79  4392.34  4403.82  4436.49  4446.72
                             4460.60  4473.74  4479.63  4494.06  4507.87
                             4535.81  4544.68  4575.89  4599.60  4764.28
                             5043.33

 Zero-point correction=                           0.294307 (Hartree/Particle)
 Thermal correction to Energy=                    0.309694
 Thermal correction to Enthalpy=                  0.310639
 Thermal correction to Gibbs Free Energy=         0.251926
 Sum of electronic and zero-point Energies=           -723.959796
 Sum of electronic and thermal Energies=              -723.944409
 Sum of electronic and thermal Enthalpies=            -723.943465
 Sum of electronic and thermal Free Energies=         -724.002177

                     E (Thermal)             CV                S
                      KCal/Mol        Cal/Mol-Kelvin    Cal/Mol-Kelvin
 Total                  194.336             59.060            123.571
 Electronic               0.000              0.000              0.000
 Translational            0.889              2.981             42.097
 Rotational               0.889              2.981             32.292
 Vibrational            192.559             53.099             49.182
 Vibration     1          0.594              1.982              5.433
 Vibration     2          0.596              1.976              4.645
 Vibration     3          0.599              1.965              4.007
 Vibration     4          0.606              1.942              3.293
 Vibration     5          0.614              1.915              2.825
 Vibration     6          0.621              1.894              2.578
 Vibration     7          0.628              1.870              2.355
 Vibration     8          0.643              1.823              2.031
 Vibration     9          0.648              1.807              1.940
 Vibration    10          0.652              1.797              1.888
 Vibration    11          0.656              1.784              1.826
 Vibration    12          0.665              1.756              1.701
 Vibration    13          0.674              1.729              1.597
 Vibration    14          0.696              1.664              1.390
 Vibration    15          0.716              1.607              1.239
 Vibration    16          0.722              1.589              1.197
 Vibration    17          0.748              1.518              1.048
 Vibration    18          0.776              1.444              0.919
 Vibration    19          0.788              1.414              0.873
 Vibration    20          0.814              1.347              0.777
 Vibration    21          0.869              1.220              0.625
 Vibration    22          0.918              1.113              0.519
 Vibration    23          0.961              1.027              0.446

                           ! Non-Optimized Parameters !
 Normal termination of Gaussian 16 at Thu Dec 10 21:26:20 2020.

 ----------------------------------------------------------------------
 # B3LYP/6-311++G(d,p) empiricaldispersion=gd3bj scf=xqc pop=npa geom=c
 heck
 ----------------------------------------------------------------------

 ---------------------------------------
 CID_106982285_JID_6061_Energie_neutraal
 ---------------------------------------
 Structure from the checkpoint file:  "JID_6061.chk"
 Charge =  0 Multiplicity = 1

 SCF Done:  E(RB3LYP) =  -724.452048533     A.U. after   16 cycles
 Normal termination of Gaussian 16 at Thu Dec 10 21:32:04 2020.

 ----------------------------------------------------------------------
 # B3LYP/6-311++G(d,p) empiricaldispersion=gd3bj scf=xqc pop=npa geom=c
 heck
 ----------------------------------------------------------------------

 -------------------------------------
 CID_106982285_JID_6061_Energie_kation
 -------------------------------------
 Structure from the checkpoint file:  "JID_6061.chk"
 Charge =  1 Multiplicity = 2

 SCF Done:  E(UB3LYP) =  -724.136656851     A.U. after   30 cycles
 Normal termination of Gaussian 16 at Thu Dec 10 21:48:24 2020.
 Gaussian 16:  ES64L-G16RevA.03 25-Dec-2016

 ----------------------------------------------------------------------
 # B3LYP/6-311++G(d,p) empiricaldispersion=gd3bj scf=xqc pop=npa geom=c
 heck
 ----------------------------------------------------------------------

 ------------------------------------
 CID_106982285_JID_6061_Energie_anion
 ------------------------------------
 Structure from the checkpoint file:  "JID_6061.chk"
 Charge = -1 Multiplicity = 2

                         Standard orientation:
 ---------------------------------------------------------------------
 Center     Atomic      Atomic             Coordinates (Angstroms)
 Number     Number       Type             X           Y           Z
 ---------------------------------------------------------------------
      1          6           0       -3.009999    1.526613   -0.729033
      2          6           0       -1.585506    1.059047   -1.057598
      3          6           0       -0.629429    2.258646   -0.983315
      4          6           0       -1.133452   -0.175529   -0.192659
      5          6           0       -2.029797   -1.419552   -0.518563
      6          6           0       -2.631423   -1.841800    0.827800
      7          7           0       -2.665077   -0.581131    1.571366
      8          6           0       -1.357798    0.026644    1.331402
      9          6           0        0.313701   -0.489310   -0.597129
     10          8           0        0.533399   -1.135488   -1.616941
     11          6           0        1.459127    0.015209    0.186135
     12          6           0        1.606672    0.891958    1.256193
     13          7           0        2.919049    1.038064    1.543897
     14          7           0        3.613309    0.291846    0.712712
     15          7           0        2.756468   -0.322618   -0.112654
     16          6           0        3.289538   -1.207472   -1.140670
     17          1           0       -3.065557    1.960082    0.274399
     18          1           0       -3.742350    0.718048   -0.769636
     19          1           0       -3.311004    2.299372   -1.445666
     20          1           0       -1.572275    0.690829   -2.092423
     21          1           0       -0.534434    2.636618    0.041586
     22          1           0        0.374651    2.023216   -1.347276
     23          1           0       -1.018637    3.078776   -1.595971
     24          1           0       -1.446750   -2.211464   -0.989229
     25          1           0       -2.816937   -1.139253   -1.221795
     26          1           0       -3.637051   -2.264254    0.733492
     27          1           0       -1.987190   -2.604384    1.304936
     28          1           0       -2.831072   -0.725291    2.565139
     29          1           0       -0.552173   -0.473139    1.895613
     30          1           0       -1.367096    1.081184    1.626792
     31          1           0        0.853245    1.426089    1.811760
     32          1           0        4.367863   -1.239408   -0.984629
     33          1           0        2.853854   -2.202462   -1.042876
     34          1           0        3.049672   -0.820515   -2.131316
 ---------------------------------------------------------------------

 SCF Done:  E(UB3LYP) =  -724.469446335     A.U. after   29 cycles

 The electronic state is 2-A.
 Alpha  occ. eigenvalues --  -18.90975 -14.22889 -14.19531 -14.18704 -14.17381
 Alpha  occ. eigenvalues --  -10.08118 -10.07062 -10.06993 -10.05616 -10.05280
 Alpha  occ. eigenvalues --  -10.05142 -10.04581 -10.04239 -10.03911 -10.03662
 Alpha  occ. eigenvalues --  -10.03014  -0.93409  -0.85794  -0.80811  -0.75338
 Alpha  occ. eigenvalues --   -0.68916  -0.64743  -0.62787  -0.60264  -0.58544
 Alpha  occ. eigenvalues --   -0.56668  -0.50348  -0.48926  -0.47091  -0.45652
 Alpha  occ. eigenvalues --   -0.42293  -0.40874  -0.38334  -0.37554  -0.34178
 Alpha  occ. eigenvalues --   -0.33922  -0.33592  -0.31969  -0.30411  -0.29500
 Alpha  occ. eigenvalues --   -0.29335  -0.28150  -0.27041  -0.26878  -0.26514
 Alpha  occ. eigenvalues --   -0.25994  -0.25360  -0.24837  -0.23655  -0.23080
 Alpha  occ. eigenvalues --   -0.21687  -0.20449  -0.19163  -0.18471  -0.17425
 Alpha  occ. eigenvalues --   -0.13617  -0.12299  -0.11981  -0.10698  -0.08206
 Alpha  occ. eigenvalues --    0.04631
 Alpha virt. eigenvalues --    0.07513   0.08599   0.09550   0.09860   0.10703
 Alpha virt. eigenvalues --    0.11155   0.11557   0.11652   0.12970   0.13539
 Alpha virt. eigenvalues --    0.13797   0.14337   0.14807   0.15055   0.15167

  Beta  occ. eigenvalues --  -18.90269 -14.22501 -14.19182 -14.18703 -14.17522
  Beta  occ. eigenvalues --  -10.08119 -10.07081 -10.06982 -10.05221 -10.05186
  Beta  occ. eigenvalues --  -10.05117 -10.04572 -10.04234 -10.03896 -10.03658
  Beta  occ. eigenvalues --  -10.02834  -0.92956  -0.84536  -0.80783  -0.74989
  Beta  occ. eigenvalues --   -0.68780  -0.64279  -0.62741  -0.60176  -0.58456
  Beta  occ. eigenvalues --   -0.56636  -0.49998  -0.48414  -0.46892  -0.45327
  Beta  occ. eigenvalues --   -0.42149  -0.40725  -0.38072  -0.37468  -0.33752
  Beta  occ. eigenvalues --   -0.33396  -0.33218  -0.31833  -0.30263  -0.29353
  Beta  occ. eigenvalues --   -0.29235  -0.27832  -0.26909  -0.26808  -0.26137
  Beta  occ. eigenvalues --   -0.25833  -0.25195  -0.24608  -0.23315  -0.22875
  Beta  occ. eigenvalues --   -0.20786  -0.19670  -0.19040  -0.17229  -0.16990
  Beta  occ. eigenvalues --   -0.12528  -0.12104  -0.11777  -0.08888  -0.07612
  Beta virt. eigenvalues --    0.07462   0.08521   0.09486   0.09812   0.10632
  Beta virt. eigenvalues --    0.11106   0.11453   0.11575   0.12431   0.12936
  Beta virt. eigenvalues --    0.13492   0.13816   0.14293   0.14836   0.15017

 Mulliken charges and spin densities:
               1          2
     1  C   -0.468547  -0.042404
     2  C   -0.138434   0.087562
     3  C   -0.632660  -0.013335
     4  C    1.591614   0.002388
     5  C   -0.463419  -0.042881
     6  C   -0.269967   0.006760
     7  N   -0.116181  -0.000720
     8  C   -1.005206  -0.077949
     9  C   -0.755642   0.298992
    10  O   -0.367777   0.246452
    11  C   -0.567521   0.035854
    12  C   -0.180295   0.211843
    13  N   -0.275311  -0.087206
    14  N    0.066728   0.187559
    15  N    0.130553   0.112284
    16  C   -0.254333  -0.000315
    17  H    0.143697   0.002177
    18  H    0.109073   0.002779
    19  H    0.101922   0.021481
    20  H    0.185607   0.012587
    21  H    0.114603   0.009636
    22  H    0.187293   0.003974
    23  H    0.127682   0.001267
    24  H    0.204959  -0.010865
    25  H    0.089331   0.010501
    26  H    0.148744  -0.000376
    27  H    0.095582   0.006094
    28  H    0.223739   0.002250
    29  H    0.195998  -0.000707
    30  H    0.154138   0.000342
    31  H    0.168086  -0.003429
    32  H    0.133716   0.000193
    33  H    0.158300   0.012059
    34  H    0.163928   0.005151
 Sum of Mulliken charges =  -1.00000   1.00000

 Dipole moment (field-independent basis, Debye):
    X=             -6.2585    Y=             -1.0313    Z=             -0.0938  Tot=              6.3436
 Quadrupole moment (field-independent basis, Debye-Ang):
   XX=           -145.1997   YY=           -111.2514   ZZ=           -113.8318
   XY=             -5.2257   XZ=            -12.9186   YZ=             -6.8754

 Summary of Natural Population Analysis:

                                       Natural Population
                Natural  -----------------------------------------------
    Atom  No    Charge         Core      Valence    Rydberg      Total
 -----------------------------------------------------------------------
      C    1   -0.28483      0.99965     2.27979    0.00539     3.28483
      C    2   -0.09486      0.99958     2.08665    0.00864     3.09486
      C    3   -0.28538      0.99965     2.28006    0.00567     3.28538
      C    4   -0.06908      0.99953     2.05310    0.01645     3.06908
      C    5   -0.18610      0.99961     2.17786    0.00863     3.18610
      C    6   -0.08889      0.99964     2.08061    0.00864     3.08889
      N    7   -0.34266      0.99975     2.83306    0.00985     3.84266
      C    8   -0.09216      0.99960     2.08239    0.01017     3.09216
      C    9    0.32228      0.99956     1.65578    0.02238     2.67772
      O   10   -0.24687      0.99988     3.24128    0.00570     4.24687
      C   11    0.02060      0.99950     1.96455    0.01535     2.97940
      C   12   -0.01203      0.99957     1.99940    0.01305     3.01203
      N   13   -0.18787      0.99975     2.67108    0.01704     3.68787
      N   14   -0.01171      0.99978     2.49618    0.01575     3.51171
      N   15   -0.05141      0.99963     2.53559    0.01619     3.55141
      C   16   -0.17433      0.99965     2.16829    0.00638     3.17433
      H   17    0.09584      0.00000     0.40317    0.00100     0.40416
      H   18    0.09934      0.00000     0.39969    0.00097     0.40066
      H   19    0.09035      0.00000     0.40865    0.00101     0.40965
      H   20    0.09637      0.00000     0.40185    0.00178     0.40363
      H   21    0.09423      0.00000     0.40466    0.00112     0.40577
      H   22    0.10983      0.00000     0.38896    0.00121     0.39017
      H   23    0.09000      0.00000     0.40907    0.00093     0.41000
      H   24    0.11538      0.00000     0.38351    0.00111     0.38462
      H   25    0.09178      0.00000     0.40710    0.00112     0.40822
      H   26    0.08632      0.00000     0.41249    0.00118     0.41368
      H   27    0.07520      0.00000     0.42328    0.00152     0.42480
      H   28    0.16624      0.00000     0.33117    0.00259     0.33376
      H   29    0.09170      0.00000     0.40712    0.00118     0.40830
      H   30    0.09176      0.00000     0.40708    0.00116     0.40824
      H   31    0.09040      0.00000     0.40824    0.00136     0.40960
      H   32    0.09555      0.00000     0.40332    0.00114     0.40445
      H   33    0.10186      0.00000     0.39706    0.00108     0.39814
      H   34    0.10315      0.00000     0.39577    0.00108     0.39685
 =======================================================================
   * Total *   -0.00000     15.99433    43.79786    0.20781    60.00000

 Normal termination of Gaussian 16 at Thu Dec 10 22:04:44 2020.
