 Gaussian 16, Revision A.03,

 -----------------------------------------------------------
 # opt freq B3LYP/6-31G(d) empiricaldispersion=gd3bj scf=xqc
 -----------------------------------------------------------

 ------------------------------
 CID_130819613_JID_522_neutraal
 ------------------------------
 Symbolic Z-matrix:
 Charge =  0 Multiplicity = 1

 SCF Done:  E(RB3LYP) =  -441.425648292     A.U. after   15 cycles
 SCF Done:  E(RB3LYP) =  -441.449681781     A.U. after   13 cycles
 SCF Done:  E(RB3LYP) =  -441.450609696     A.U. after   12 cycles
 SCF Done:  E(RB3LYP) =  -441.450709598     A.U. after   11 cycles
 SCF Done:  E(RB3LYP) =  -441.450717073     A.U. after    9 cycles
 SCF Done:  E(RB3LYP) =  -441.450720442     A.U. after    9 cycles
 SCF Done:  E(RB3LYP) =  -441.450722533     A.U. after    9 cycles
 SCF Done:  E(RB3LYP) =  -441.450724439     A.U. after    9 cycles
 SCF Done:  E(RB3LYP) =  -441.450725899     A.U. after    9 cycles
 SCF Done:  E(RB3LYP) =  -441.450726076     A.U. after    8 cycles
 Optimization completed.
    -- Stationary point found.
 Normal termination of Gaussian 16 at Tue Dec  8 12:15:47 2020.

 --------------------------------------------------------------------
 #N Geom=AllCheck Guess=TCheck SCRF=Check GenChk RB3LYP/6-31G(d) Freq
 --------------------------------------------------------------------

 Structure from the checkpoint file:  "JID_522.chk"
 ------------------------------
 CID_130819613_JID_522_neutraal
 ------------------------------
 Charge =  0 Multiplicity = 1

 SCF Done:  E(RB3LYP) =  -441.450726076     A.U. after    1 cycles

  Exact polarizability: 116.091  -5.664  86.383   2.438   1.619  64.307
 Approx polarizability: 163.841 -22.711 133.442   6.525   1.736  91.613

                      1                      2                      3
                      A                      A                      A
 Frequencies --     50.2234               103.2962               131.3276
 Red. masses --      3.2005                 6.3403                 4.3677
 Frc consts  --      0.0048                 0.0399                 0.0444
 IR Inten    --      2.7161                 6.5443                 6.8513

                      4                      5                      6
                      A                      A                      A
 Frequencies --    173.8676               221.0435               248.1754
 Red. masses --      2.5658                 1.0672                 1.2984
 Frc consts  --      0.0457                 0.0307                 0.0471
 IR Inten    --      0.8863                 0.1701                 0.5583

                      7                      8                      9
                      A                      A                      A
 Frequencies --    289.2772               332.4740               351.5629
 Red. masses --      1.8284                 2.6098                 3.0661
 Frc consts  --      0.0901                 0.1700                 0.2233
 IR Inten    --      0.5578                 0.0682                 0.8614

                     10                     11                     12
                      A                      A                      A
 Frequencies --    411.5987               415.9866               454.7015
 Red. masses --      3.0928                 2.3616                 2.6659
 Frc consts  --      0.3087                 0.2408                 0.3247
 IR Inten    --      3.8522                 5.0458                 4.2797

                     13                     14                     15
                      A                      A                      A
 Frequencies --    481.3836               536.8208               612.0265
 Red. masses --      6.1218                 3.6809                 3.9710
 Frc consts  --      0.8358                 0.6250                 0.8764
 IR Inten    --      1.8375                 0.5068                 2.0581

                     16                     17                     18
                      A                      A                      A
 Frequencies --    712.2075               791.6174               819.7247
 Red. masses --      5.4005                 4.0944                 1.5628
 Frc consts  --      1.6140                 1.5117                 0.6187
 IR Inten    --      0.7535                 9.7222                16.9973

                     19                     20                     21
                      A                      A                      A
 Frequencies --    862.8558               886.6534               911.8765
 Red. masses --      2.6673                 2.3815                 1.9174
 Frc consts  --      1.1700                 1.1031                 0.9394
 IR Inten    --      5.8828                17.6972                 2.7063

                     22                     23                     24
                      A                      A                      A
 Frequencies --    953.9097               976.4227              1018.9405
 Red. masses --      1.3923                 1.7410                 1.4793
 Frc consts  --      0.7465                 0.9780                 0.9049
 IR Inten    --      0.2757                 2.7403                 3.4328

                     25                     26                     27
                      A                      A                      A
 Frequencies --   1025.9999              1054.3425              1103.7034
 Red. masses --      3.9473                 1.6035                 7.1016
 Frc consts  --      2.4482                 1.0502                 5.0970
 IR Inten    --      7.8553                 0.9172                97.7558

                     28                     29                     30
                      A                      A                      A
 Frequencies --   1138.3177              1172.4699              1218.1860
 Red. masses --      1.6365                 2.0395                 1.8924
 Frc consts  --      1.2494                 1.6519                 1.6545
 IR Inten    --      4.7112                 1.5129                39.2436

                     31                     32                     33
                      A                      A                      A
 Frequencies --   1227.6804              1258.6863              1292.9587
 Red. masses --      1.3628                 1.5995                 2.0593
 Frc consts  --      1.2102                 1.4930                 2.0284
 IR Inten    --      4.5823                 9.4753                23.9444

                     34                     35                     36
                      A                      A                      A
 Frequencies --   1338.4362              1351.4169              1397.7583
 Red. masses --      1.9537                 1.6259                 1.5142
 Frc consts  --      2.0621                 1.7496                 1.7430
 IR Inten    --      7.7253                28.2391                 9.9942

                     37                     38                     39
                      A                      A                      A
 Frequencies --   1430.3920              1445.6585              1490.7074
 Red. masses --      1.3181                 1.2520                 1.0878
 Frc consts  --      1.5890                 1.5417                 1.4243
 IR Inten    --     14.1116                 8.4857                 6.6694

                     40                     41                     42
                      A                      A                      A
 Frequencies --   1509.4672              1516.5370              1525.8763
 Red. masses --      1.0513                 1.0511                 1.0781
 Frc consts  --      1.4113                 1.4242                 1.4789
 IR Inten    --      1.3878                 2.6098                 2.1517

                     43                     44                     45
                      A                      A                      A
 Frequencies --   1531.6121              1538.7347              1725.7436
 Red. masses --      1.0633                 1.0595                 8.8220
 Frc consts  --      1.4696                 1.4780                15.4800
 IR Inten    --      1.5645                 2.3448                24.0708

                     46                     47                     48
                      A                      A                      A
 Frequencies --   2341.7687              2999.7222              3045.8823
 Red. masses --     12.6012                 1.0707                 1.0675
 Frc consts  --     40.7145                 5.6762                 5.8350
 IR Inten    --     30.0631                40.7642                 8.0830

                     49                     50                     51
                      A                      A                      A
 Frequencies --   3053.8664              3061.7230              3071.6000
 Red. masses --      1.0356                 1.0360                 1.0921
 Frc consts  --      5.6905                 5.7220                 6.0709
 IR Inten    --     15.6979                12.4318                26.4054

                     52                     53                     54
                      A                      A                      A
 Frequencies --   3119.4928              3123.5645              3131.4978
 Red. masses --      1.1018                 1.0957                 1.1029
 Frc consts  --      6.3173                 6.2984                 6.3723
 IR Inten    --     24.1796                 4.4419                 5.2871

                     55                     56                     57
                      A                      A                      A
 Frequencies --   3137.2684              3138.6200              3186.0669
 Red. masses --      1.1032                 1.1027                 1.0890
 Frc consts  --      6.3974                 6.3999                 6.5130
 IR Inten    --     23.6160                38.0831                 2.5355

 - Thermochemistry -
 -------------------
 Temperature   298.150 Kelvin.  Pressure   1.00000 Atm.
 Atom     1 has atomic number  6 and mass  12.00000

 Molecular mass:   137.08406 amu.
 Principal axes and moments of inertia in atomic units:
                           1         2         3
     Eigenvalues --   692.001322235.173882511.45281
           X            0.99935   0.03590  -0.00202
           Y           -0.03585   0.99912   0.02161
           Z            0.00279  -0.02152   0.99976
 This molecule is an asymmetric top.
 Rotational symmetry number  1.
 Warning -- assumption of classical behavior for rotation
           may cause significant error
 Rotational temperatures (Kelvin)      0.12516     0.03875     0.03449
 Rotational constants (GHZ):           2.60800     0.80743     0.71860
 Zero-point vibrational energy     463276.2 (Joules/Mol)
                                  110.72567 (Kcal/Mol)
 Warning -- explicit consideration of  15 degrees of freedom as
           vibrations may cause significant error
 Vibrational temperatures:     72.26   148.62   188.95   250.16   318.03
          (Kelvin)            357.07   416.21   478.36   505.82   592.20
                              598.51   654.21   692.60   772.37   880.57
                             1024.71  1138.96  1179.40  1241.46  1275.70
                             1311.99  1372.46  1404.85  1466.03  1476.19
                             1516.96  1587.98  1637.79  1686.92  1752.70
                             1766.36  1810.97  1860.28  1925.71  1944.39
                             2011.06  2058.02  2079.98  2144.80  2171.79
                             2181.96  2195.40  2203.65  2213.90  2482.96
                             3369.28  4315.93  4382.35  4393.83  4405.14
                             4419.35  4488.25  4494.11  4505.53  4513.83
                             4515.77  4584.04

 Zero-point correction=                           0.176453 (Hartree/Particle)
 Thermal correction to Energy=                    0.186563
 Thermal correction to Enthalpy=                  0.187507
 Thermal correction to Gibbs Free Energy=         0.141002
 Sum of electronic and zero-point Energies=           -441.274273
 Sum of electronic and thermal Energies=              -441.264163
 Sum of electronic and thermal Enthalpies=            -441.263219
 Sum of electronic and thermal Free Energies=         -441.309724

                     E (Thermal)             CV                S
                      KCal/Mol        Cal/Mol-Kelvin    Cal/Mol-Kelvin
 Total                  117.070             37.796             97.878
 Electronic               0.000              0.000              0.000
 Translational            0.889              2.981             40.658
 Rotational               0.889              2.981             29.742
 Vibrational            115.293             31.834             27.478
 Vibration     1          0.595              1.978              4.809
 Vibration     2          0.605              1.947              3.391
 Vibration     3          0.612              1.922              2.927
 Vibration     4          0.627              1.875              2.393
 Vibration     5          0.648              1.809              1.951
 Vibration     6          0.662              1.766              1.744
 Vibration     7          0.686              1.694              1.478
 Vibration     8          0.714              1.611              1.248
 Vibration     9          0.728              1.572              1.159
 Vibration    10          0.776              1.445              0.921
 Vibration    11          0.779              1.436              0.906
 Vibration    12          0.813              1.350              0.782
 Vibration    13          0.838              1.291              0.706
 Vibration    14          0.892              1.169              0.572
 Vibration    15          0.971              1.006              0.429

                           ! Non-Optimized Parameters !
 Normal termination of Gaussian 16 at Tue Dec  8 12:22:16 2020.

 ----------------------------------------------------------------------
 # B3LYP/6-311++G(d,p) empiricaldispersion=gd3bj scf=xqc pop=npa geom=c
 heck
 ----------------------------------------------------------------------

 --------------------------------------
 CID_130819613_JID_522_Energie_neutraal
 --------------------------------------
 Structure from the checkpoint file:  "JID_522.chk"
 Charge =  0 Multiplicity = 1

 SCF Done:  E(RB3LYP) =  -441.574998794     A.U. after   14 cycles
 Normal termination of Gaussian 16 at Tue Dec  8 12:25:17 2020.

 ----------------------------------------------------------------------
 # B3LYP/6-311++G(d,p) empiricaldispersion=gd3bj scf=xqc pop=npa geom=c
 heck
 ----------------------------------------------------------------------

 ------------------------------------
 CID_130819613_JID_522_Energie_kation
 ------------------------------------
 Structure from the checkpoint file:  "JID_522.chk"
 Charge =  1 Multiplicity = 2

 SCF Done:  E(UB3LYP) =  -441.232514255     A.U. after   22 cycles
 Normal termination of Gaussian 16 at Tue Dec  8 12:40:13 2020.
 Gaussian 16:  ES64L-G16RevA.03 25-Dec-2016

 ----------------------------------------------------------------------
 # B3LYP/6-311++G(d,p) empiricaldispersion=gd3bj scf=xqc pop=npa geom=c
 heck
 ----------------------------------------------------------------------

 -----------------------------------
 CID_130819613_JID_522_Energie_anion
 -----------------------------------
 Structure from the checkpoint file:  "JID_522.chk"
 Charge = -1 Multiplicity = 2

                         Standard orientation:
 ---------------------------------------------------------------------
 Center     Atomic      Atomic             Coordinates (Angstroms)
 Number     Number       Type             X           Y           Z
 ---------------------------------------------------------------------
      1          6           0       -2.515402   -1.080666   -0.803519
      2          6           0       -1.463308   -0.340899    0.009445
      3          6           0       -0.012248   -0.671388   -0.406473
      4          6           0        0.706948    0.619733   -0.135218
      5          6           0        2.022604    0.799330    0.059727
      6          6           0        2.946307   -0.285267    0.017729
      7          7           0        3.692531   -1.178594   -0.014881
      8          6           0       -0.346465    1.706523   -0.079007
      9          8           0       -1.587234    1.062650   -0.323284
     10          6           0       -1.669545   -0.538268    1.515400
     11          1           0       -2.379351   -0.881547   -1.870859
     12          1           0       -3.519078   -0.751928   -0.516301
     13          1           0       -2.443754   -2.160157   -0.633822
     14          1           0        0.421862   -1.522556    0.125116
     15          1           0        0.026148   -0.893539   -1.481574
     16          1           0        2.435408    1.785661    0.257649
     17          1           0       -0.200068    2.475846   -0.846756
     18          1           0       -0.334446    2.206999    0.902497
     19          1           0       -2.646031   -0.144450    1.813069
     20          1           0       -1.625954   -1.600901    1.777997
     21          1           0       -0.897919   -0.019048    2.094909
 ---------------------------------------------------------------------

 SCF Done:  E(UB3LYP) =  -441.572681948     A.U. after   33 cycles
 SCF Done:  E(UB3LYP) =  -441.572681948     a.u. after    2 cycles

 The electronic state is 2-A.
 Alpha  occ. eigenvalues --  -18.99330 -14.12730 -10.10856 -10.07930 -10.05189
 Alpha  occ. eigenvalues --  -10.04758 -10.03513 -10.03490 -10.01604 -10.00885
 Alpha  occ. eigenvalues --   -0.91187  -0.73282  -0.67899  -0.65875  -0.58310
 Alpha  occ. eigenvalues --   -0.56728  -0.54708  -0.44285  -0.41950  -0.36442
 Alpha  occ. eigenvalues --   -0.35334  -0.34256  -0.33303  -0.30889  -0.29463
 Alpha  occ. eigenvalues --   -0.28158  -0.26916  -0.25535  -0.24075  -0.22673
 Alpha  occ. eigenvalues --   -0.21901  -0.20152  -0.19979  -0.18269  -0.16293
 Alpha  occ. eigenvalues --   -0.13546  -0.10097   0.06046
 Alpha virt. eigenvalues --    0.07874   0.09475   0.10003   0.10957   0.11658
 Alpha virt. eigenvalues --    0.12071   0.12363   0.13327   0.14230   0.15028
 Alpha virt. eigenvalues --    0.15598   0.16776   0.16955   0.18039   0.18881

  Beta  occ. eigenvalues --  -18.99331 -14.12431 -10.10844 -10.07982 -10.05179
  Beta  occ. eigenvalues --  -10.04757 -10.03566 -10.03488 -10.01482 -10.00204
  Beta  occ. eigenvalues --   -0.91154  -0.72840  -0.67817  -0.65047  -0.58274
  Beta  occ. eigenvalues --   -0.56460  -0.54490  -0.43956  -0.41424  -0.36201
  Beta  occ. eigenvalues --   -0.35104  -0.34141  -0.33015  -0.30735  -0.29379
  Beta  occ. eigenvalues --   -0.28000  -0.26871  -0.25329  -0.23797  -0.22403
  Beta  occ. eigenvalues --   -0.21637  -0.19743  -0.18839  -0.18007  -0.16102
  Beta  occ. eigenvalues --   -0.13364  -0.07813
  Beta virt. eigenvalues --    0.07850   0.09473   0.09957   0.10805   0.11518
  Beta virt. eigenvalues --    0.11966   0.12302   0.13270   0.13877   0.14441
  Beta virt. eigenvalues --    0.15110   0.15624   0.16692   0.16797   0.17924

 Mulliken charges and spin densities:
               1          2
     1  C   -0.109194  -0.370407
     2  C   -0.080038   0.403976
     3  C   -0.464951  -0.296091
     4  C    0.828475   0.469697
     5  C   -0.370060   0.290115
     6  C   -0.389976  -0.051518
     7  N   -0.415096   0.147560
     8  C   -0.104769  -0.448717
     9  O   -0.072163   0.008348
    10  C   -0.470159  -0.138406
    11  H    0.072983   0.085932
    12  H    0.113444   0.012707
    13  H    0.108792   0.011298
    14  H    0.163730   0.001866
    15  H   -0.072283   0.247557
    16  H    0.131125   0.000951
    17  H   -0.001718   0.161455
    18  H   -0.176359   0.361189
    19  H    0.113656   0.024691
    20  H    0.114776   0.005073
    21  H    0.079787   0.072724
 Sum of Mulliken charges =  -1.00000   1.00000

 Dipole moment (field-independent basis, Debye):
    X=             -7.1961    Y=             -0.3179    Z=              0.4331  Tot=              7.2161
 Quadrupole moment (field-independent basis, Debye-Ang):
   XX=           -110.0706   YY=            -79.0240   ZZ=            -77.9982
   XY=             13.4967   XZ=             -1.0477   YZ=             -2.5817

 Summary of Natural Population Analysis:

                                       Natural Population
                Natural  -----------------------------------------------
    Atom  No    Charge         Core      Valence    Rydberg      Total
 -----------------------------------------------------------------------
      C    1   -0.28750      0.99960     2.28110    0.00679     3.28750
      C    2    0.13654      0.99956     1.84970    0.01420     2.86346
      C    3   -0.21926      0.99955     2.21099    0.00871     3.21926
      C    4    0.13686      0.99953     1.85391    0.00970     2.86314
      C    5   -0.18767      0.99935     2.17827    0.01005     3.18767
      C    6    0.14429      0.99966     1.83675    0.01931     2.85571
      N    7   -0.18895      0.99978     2.67845    0.01071     3.68895
      C    8   -0.02261      0.99954     2.01161    0.01146     3.02261
      O    9   -0.31447      0.99988     3.30547    0.00912     4.31447
      C   10   -0.29730      0.99961     2.29116    0.00653     3.29730
      H   11    0.10375      0.00000     0.39513    0.00112     0.39625
      H   12    0.09632      0.00000     0.40280    0.00088     0.40368
      H   13    0.09629      0.00000     0.40302    0.00069     0.40371
      H   14    0.11057      0.00000     0.38871    0.00072     0.38943
      H   15    0.11164      0.00000     0.38665    0.00171     0.38836
      H   16    0.10390      0.00000     0.39526    0.00083     0.39610
      H   17    0.09205      0.00000     0.40673    0.00122     0.40795
      H   18    0.08606      0.00000     0.41178    0.00216     0.41394
      H   19    0.09661      0.00000     0.40245    0.00094     0.40339
      H   20    0.09544      0.00000     0.40381    0.00075     0.40456
      H   21    0.10743      0.00000     0.39160    0.00097     0.39257
 =======================================================================
   * Total *    0.00000      9.99607    26.88536    0.11856    37.00000

 Normal termination of Gaussian 16 at Tue Dec  8 13:04:38 2020.
