 Gaussian 16, Revision A.03,

 -----------------------------------------------------------
 # opt freq B3LYP/6-31G(d) empiricaldispersion=gd3bj scf=xqc
 -----------------------------------------------------------

 ------------------------------
 CID_79895903_JID_5219_neutraal
 ------------------------------
 Symbolic Z-matrix:
 Charge =  0 Multiplicity = 1

 SCF Done:  E(RB3LYP) =  -692.383720955     A.U. after   12 cycles
 SCF Done:  E(RB3LYP) =  -692.388339645     A.U. after   11 cycles
 SCF Done:  E(RB3LYP) =  -692.388777615     A.U. after   10 cycles
 SCF Done:  E(RB3LYP) =  -692.388937752     A.U. after   10 cycles
 SCF Done:  E(RB3LYP) =  -692.389044401     A.U. after    9 cycles
 SCF Done:  E(RB3LYP) =  -692.389142613     A.U. after   10 cycles
 SCF Done:  E(RB3LYP) =  -692.389200145     A.U. after   10 cycles
 SCF Done:  E(RB3LYP) =  -692.389208037     A.U. after    9 cycles
 SCF Done:  E(RB3LYP) =  -692.389242899     A.U. after    9 cycles
 SCF Done:  E(RB3LYP) =  -692.389408650     A.U. after   10 cycles
 SCF Done:  E(RB3LYP) =  -692.390645898     A.U. after    9 cycles
 SCF Done:  E(RB3LYP) =  -692.390645765     A.U. after    9 cycles
 SCF Done:  E(RB3LYP) =  -692.390643570     A.U. after   10 cycles
 SCF Done:  E(RB3LYP) =  -692.390647253     A.U. after    9 cycles
 SCF Done:  E(RB3LYP) =  -692.390647318     A.U. after    7 cycles
 SCF Done:  E(RB3LYP) =  -692.390647321     A.U. after    6 cycles
 Optimization completed.
    -- Stationary point found.
 Normal termination of Gaussian 16 at Thu Dec 10 15:51:01 2020.

 --------------------------------------------------------------------
 #N Geom=AllCheck Guess=TCheck SCRF=Check GenChk RB3LYP/6-31G(d) Freq
 --------------------------------------------------------------------

 Structure from the checkpoint file:  "JID_5219.chk"
 ------------------------------
 CID_79895903_JID_5219_neutraal
 ------------------------------
 Charge =  0 Multiplicity = 1

 SCF Done:  E(RB3LYP) =  -692.390647321     A.U. after    1 cycles

  Exact polarizability: 149.246   0.350 130.539   2.063   3.027 114.049
 Approx polarizability: 182.713   0.278 180.122   2.297   0.638 177.259

                      1                      2                      3
                      A                      A                      A
 Frequencies --     22.6578                35.4135                52.3939
 Red. masses --      4.1129                 3.7296                 3.6533
 Frc consts  --      0.0012                 0.0028                 0.0059
 IR Inten    --      0.1738                 3.4153                 0.2973

                      4                      5                      6
                      A                      A                      A
 Frequencies --     74.2856                82.2655               141.4647
 Red. masses --      3.0831                 3.3056                 3.1748
 Frc consts  --      0.0100                 0.0132                 0.0374
 IR Inten    --      1.9665                 2.0632                 1.3506

                      7                      8                      9
                      A                      A                      A
 Frequencies --    157.7898               190.7899               202.0855
 Red. masses --      2.3741                 2.3111                 2.8257
 Frc consts  --      0.0348                 0.0496                 0.0680
 IR Inten    --     12.9239                 2.6173                 1.2695

                     10                     11                     12
                      A                      A                      A
 Frequencies --    246.6776               284.2535               298.1584
 Red. masses --      1.5012                 1.8492                 2.0091
 Frc consts  --      0.0538                 0.0880                 0.1052
 IR Inten    --     40.3356                 7.6886                 6.7136

                     13                     14                     15
                      A                      A                      A
 Frequencies --    322.0900               330.0543               361.6470
 Red. masses --      2.4442                 3.5733                 2.6646
 Frc consts  --      0.1494                 0.2293                 0.2053
 IR Inten    --      3.4469                 3.1060                 0.5851

                     16                     17                     18
                      A                      A                      A
 Frequencies --    401.5382               416.6138               455.8246
 Red. masses --      2.5937                 2.2459                 2.0033
 Frc consts  --      0.2464                 0.2297                 0.2452
 IR Inten    --      0.6002                 7.5140                 4.3336

                     19                     20                     21
                      A                      A                      A
 Frequencies --    477.1189               489.8663               552.4875
 Red. masses --      3.2807                 1.9925                 2.3585
 Frc consts  --      0.4400                 0.2817                 0.4242
 IR Inten    --      2.2404                 8.8731                 7.2175

                     22                     23                     24
                      A                      A                      A
 Frequencies --    558.7887               648.3025               680.2494
 Red. masses --      2.6381                 2.4518                 1.5777
 Frc consts  --      0.4853                 0.6071                 0.4301
 IR Inten    --      3.2168                 2.6596                45.8943

                     25                     26                     27
                      A                      A                      A
 Frequencies --    691.9840               777.6647               793.6592
 Red. masses --      3.3991                 1.5759                 3.1987
 Frc consts  --      0.9590                 0.5615                 1.1871
 IR Inten    --     46.4286                 4.3518                 8.1895

                     28                     29                     30
                      A                      A                      A
 Frequencies --    832.7699               844.7365               868.3685
 Red. masses --      2.3355                 2.0620                 1.3849
 Frc consts  --      0.9543                 0.8669                 0.6153
 IR Inten    --      2.8139                 3.8889               146.2822

                     31                     32                     33
                      A                      A                      A
 Frequencies --    877.3644               885.2529               911.1406
 Red. masses --      1.9574                 2.3240                 2.0975
 Frc consts  --      0.8877                 1.0731                 1.0259
 IR Inten    --     15.2351                 9.2201                 8.5232

                     34                     35                     36
                      A                      A                      A
 Frequencies --    937.4046               954.1975               965.1570
 Red. masses --      3.0972                 1.9483                 2.1783
 Frc consts  --      1.6035                 1.0452                 1.1955
 IR Inten    --     19.8274                 0.8049                 8.7599

                     37                     38                     39
                      A                      A                      A
 Frequencies --    980.6226               982.9844               985.6746
 Red. masses --      1.7675                 1.9809                 1.7700
 Frc consts  --      1.0014                 1.1277                 1.0132
 IR Inten    --     12.5302                 8.3346                 4.3363

                     40                     41                     42
                      A                      A                      A
 Frequencies --   1026.1199              1065.0431              1078.9897
 Red. masses --      1.5626                 1.7821                 2.2468
 Frc consts  --      0.9694                 1.1910                 1.5412
 IR Inten    --      7.3029                14.9984                13.2885

                     43                     44                     45
                      A                      A                      A
 Frequencies --   1082.2052              1101.5278              1111.9758
 Red. masses --      2.2651                 2.8387                 4.3806
 Frc consts  --      1.5630                 2.0294                 3.1914
 IR Inten    --      5.3575                66.8843                28.0896

                     46                     47                     48
                      A                      A                      A
 Frequencies --   1130.4654              1136.6044              1158.4175
 Red. masses --      2.5229                 2.9861                 1.6540
 Frc consts  --      1.8996                 2.2729                 1.3077
 IR Inten    --     20.9222                55.6741                 8.4802

                     49                     50                     51
                      A                      A                      A
 Frequencies --   1159.7170              1180.6614              1197.3352
 Red. masses --      2.7569                 2.6107                 2.0517
 Frc consts  --      2.1846                 2.1442                 1.7330
 IR Inten    --     43.4288                79.0792                21.5507

                     52                     53                     54
                      A                      A                      A
 Frequencies --   1204.4697              1214.1573              1237.1021
 Red. masses --      1.4810                 1.5702                 1.2902
 Frc consts  --      1.2659                 1.3638                 1.1633
 IR Inten    --      6.9510                 7.0472                 2.3479

                     55                     56                     57
                      A                      A                      A
 Frequencies --   1254.4761              1270.5603              1280.8931
 Red. masses --      1.3605                 1.4526                 1.3790
 Frc consts  --      1.2615                 1.3816                 1.3330
 IR Inten    --      2.5723                10.8145                17.2427

                     58                     59                     60
                      A                      A                      A
 Frequencies --   1296.8346              1300.0692              1326.0837
 Red. masses --      1.3158                 1.3172                 1.3459
 Frc consts  --      1.3038                 1.3117                 1.3945
 IR Inten    --      8.0254                 3.3721                23.5103

                     61                     62                     63
                      A                      A                      A
 Frequencies --   1336.8818              1350.9826              1359.7309
 Red. masses --      1.2896                 1.4041                 1.2571
 Frc consts  --      1.3580                 1.5099                 1.3694
 IR Inten    --      2.9175                10.0155                 1.3891

                     64                     65                     66
                      A                      A                      A
 Frequencies --   1369.3820              1384.0406              1387.3238
 Red. masses --      1.2528                 1.3632                 1.3525
 Frc consts  --      1.3841                 1.5386                 1.5338
 IR Inten    --      3.1986                 1.3957                 3.9415

                     67                     68                     69
                      A                      A                      A
 Frequencies --   1398.5815              1408.1200              1420.5306
 Red. masses --      1.3409                 1.3358                 1.3729
 Frc consts  --      1.5453                 1.5606                 1.6323
 IR Inten    --     19.6465                 7.5222                 5.3249

                     70                     71                     72
                      A                      A                      A
 Frequencies --   1427.6483              1430.7219              1449.7213
 Red. masses --      1.4085                 1.3518                 1.4225
 Frc consts  --      1.6914                 1.6303                 1.7615
 IR Inten    --      4.2752                 9.7407                 8.9467

                     73                     74                     75
                      A                      A                      A
 Frequencies --   1497.3956              1501.7281              1505.6493
 Red. masses --      1.0959                 1.1049                 1.0940
 Frc consts  --      1.4478                 1.4681                 1.4612
 IR Inten    --      0.0952                 4.1929                 8.0092

                     76                     77                     78
                      A                      A                      A
 Frequencies --   1511.5060              1518.0521              1527.2340
 Red. masses --      1.1459                 1.0930                 1.1802
 Frc consts  --      1.5425                 1.4840                 1.6219
 IR Inten    --     13.3639                 4.8536                20.9633

                     79                     80                     81
                      A                      A                      A
 Frequencies --   1532.6987              1542.3349              1543.0224
 Red. masses --      1.1000                 1.0885                 1.0855
 Frc consts  --      1.5225                 1.5256                 1.5227
 IR Inten    --      4.2517                 1.4802                 4.7007

                     82                     83                     84
                      A                      A                      A
 Frequencies --   1552.8847              1701.0181              2952.7454
 Red. masses --      1.0982                 1.0881                 1.0734
 Frc consts  --      1.5603                 1.8549                 5.5140
 IR Inten    --      0.9297                30.8198                94.9087

                     85                     86                     87
                      A                      A                      A
 Frequencies --   2994.9138              3019.4146              3026.3136
 Red. masses --      1.0719                 1.0792                 1.0676
 Frc consts  --      5.6647                 5.7969                 5.7609
 IR Inten    --     41.5628                 1.8502                82.9794

                     88                     89                     90
                      A                      A                      A
 Frequencies --   3032.2858              3038.3861              3041.8803
 Red. masses --      1.0702                 1.0617                 1.0608
 Frc consts  --      5.7974                 5.7747                 5.7834
 IR Inten    --     16.5042                23.4423                41.9382

                     91                     92                     93
                      A                      A                      A
 Frequencies --   3045.4004              3046.6786              3071.0037
 Red. masses --      1.0639                 1.0654                 1.0786
 Frc consts  --      5.8134                 5.8268                 5.9934
 IR Inten    --     14.2160                42.0844                 3.9355

                     94                     95                     96
                      A                      A                      A
 Frequencies --   3073.1390              3076.0232              3080.0531
 Red. masses --      1.0907                 1.0946                 1.0931
 Frc consts  --      6.0690                 6.1022                 6.1098
 IR Inten    --     54.1663                34.4924                43.5012

                     97                     98                     99
                      A                      A                      A
 Frequencies --   3090.1372              3102.3283              3108.5066
 Red. masses --      1.1041                 1.0991                 1.0934
 Frc consts  --      6.2119                 6.2326                 6.2251
 IR Inten    --     88.9861                41.5425                46.3621

                    100                    101                    102
                      A                      A                      A
 Frequencies --   3111.1345              3113.1541              3140.2068
 Red. masses --      1.0968                 1.0934                 1.1023
 Frc consts  --      6.2547                 6.2433                 6.4040
 IR Inten    --     33.4173                33.0587                21.0083

                    103                    104                    105
                      A                      A                      A
 Frequencies --   3470.8710              3501.2446              3553.2715
 Red. masses --      1.0499                 1.0735                 1.0921
 Frc consts  --      7.4519                 7.7535                 8.1242
 IR Inten    --      1.6998                 1.0648                 0.7274

 - Thermochemistry -
 -------------------
 Temperature   298.150 Kelvin.  Pressure   1.00000 Atm.
 Atom     1 has atomic number  6 and mass  12.00000

 Molecular mass:   214.16813 amu.
 Principal axes and moments of inertia in atomic units:
                           1         2         3
     Eigenvalues --  1866.561015636.922456591.75408
           X            0.99997  -0.00746   0.00185
           Y            0.00741   0.99963   0.02636
           Z           -0.00204  -0.02634   0.99965
 This molecule is an asymmetric top.
 Rotational symmetry number  1.
 Warning -- assumption of classical behavior for rotation
           may cause significant error
 Rotational temperatures (Kelvin)      0.04640     0.01537     0.01314
 Rotational constants (GHZ):           0.96688     0.32016     0.27379
 Zero-point vibrational energy     884828.6 (Joules/Mol)
                                  211.47911 (Kcal/Mol)
 Warning -- explicit consideration of  22 degrees of freedom as
           vibrations may cause significant error
 Vibrational temperatures:     32.60    50.95    75.38   106.88   118.36
          (Kelvin)            203.54   227.02   274.50   290.76   354.91
                              408.98   428.98   463.42   474.87   520.33
                              577.72   599.41   655.83   686.47   704.81
                              794.91   803.97   932.76   978.73   995.61
                             1118.89  1141.90  1198.17  1215.39  1249.39
                             1262.33  1273.68  1310.93  1348.72  1372.88
                             1388.65  1410.90  1414.30  1418.17  1476.36
                             1532.36  1552.43  1557.05  1584.85  1599.89
                             1626.49  1635.32  1666.70  1668.57  1698.71
                             1722.70  1732.96  1746.90  1779.91  1804.91
                             1828.05  1842.92  1865.86  1870.51  1907.94
                             1923.47  1943.76  1956.35  1970.24  1991.33
                             1996.05  2012.25  2025.97  2043.83  2054.07
                             2058.49  2085.83  2154.42  2160.65  2166.29
                             2174.72  2184.14  2197.35  2205.21  2219.08
                             2220.07  2234.25  2447.39  4248.34  4309.01
                             4344.26  4354.19  4362.78  4371.56  4376.59
                             4381.65  4383.49  4418.49  4421.56  4425.71
                             4431.51  4446.02  4463.56  4472.45  4476.23
                             4479.13  4518.06  4993.81  5037.51  5112.37

 Zero-point correction=                           0.337013 (Hartree/Particle)
 Thermal correction to Energy=                    0.352288
 Thermal correction to Enthalpy=                  0.353232
 Thermal correction to Gibbs Free Energy=         0.293071
 Sum of electronic and zero-point Energies=           -692.053634
 Sum of electronic and thermal Energies=              -692.038360
 Sum of electronic and thermal Enthalpies=            -692.037416
 Sum of electronic and thermal Free Energies=         -692.097577

                     E (Thermal)             CV                S
                      KCal/Mol        Cal/Mol-Kelvin    Cal/Mol-Kelvin
 Total                  221.064             58.833            126.619
 Electronic               0.000              0.000              0.000
 Translational            0.889              2.981             41.988
 Rotational               0.889              2.981             32.606
 Vibrational            219.286             52.871             52.026
 Vibration     1          0.593              1.985              6.386
 Vibration     2          0.594              1.982              5.500
 Vibration     3          0.596              1.977              4.725
 Vibration     4          0.599              1.966              4.036
 Vibration     5          0.600              1.961              3.836
 Vibration     6          0.615              1.912              2.784
 Vibration     7          0.621              1.894              2.576
 Vibration     8          0.634              1.853              2.220
 Vibration     9          0.639              1.837              2.114
 Vibration    10          0.661              1.768              1.754
 Vibration    11          0.683              1.703              1.508
 Vibration    12          0.691              1.677              1.427
 Vibration    13          0.707              1.631              1.299
 Vibration    14          0.713              1.615              1.260
 Vibration    15          0.736              1.551              1.115
 Vibration    16          0.767              1.467              0.957
 Vibration    17          0.780              1.434              0.904
 Vibration    18          0.814              1.348              0.778
 Vibration    19          0.834              1.301              0.718
 Vibration    20          0.846              1.273              0.684
 Vibration    21          0.908              1.134              0.539
 Vibration    22          0.914              1.120              0.526

                           ! Non-Optimized Parameters !
 Normal termination of Gaussian 16 at Thu Dec 10 16:05:03 2020.

 ----------------------------------------------------------------------
 # B3LYP/6-311++G(d,p) empiricaldispersion=gd3bj scf=xqc pop=npa geom=c
 heck
 ----------------------------------------------------------------------

 --------------------------------------
 CID_79895903_JID_5219_Energie_neutraal
 --------------------------------------
 Structure from the checkpoint file:  "JID_5219.chk"
 Charge =  0 Multiplicity = 1

 SCF Done:  E(RB3LYP) =  -692.598906601     A.U. after   14 cycles
 Normal termination of Gaussian 16 at Thu Dec 10 16:12:06 2020.

 ----------------------------------------------------------------------
 # B3LYP/6-311++G(d,p) empiricaldispersion=gd3bj scf=xqc pop=npa geom=c
 heck
 ----------------------------------------------------------------------

 ------------------------------------
 CID_79895903_JID_5219_Energie_kation
 ------------------------------------
 Structure from the checkpoint file:  "JID_5219.chk"
 Charge =  1 Multiplicity = 2

 SCF Done:  E(UB3LYP) =  -692.301965444     A.U. after   29 cycles
 Normal termination of Gaussian 16 at Thu Dec 10 16:33:22 2020.
 Gaussian 16:  ES64L-G16RevA.03 25-Dec-2016

 ----------------------------------------------------------------------
 # B3LYP/6-311++G(d,p) empiricaldispersion=gd3bj scf=xqc pop=npa geom=c
 heck
 ----------------------------------------------------------------------

 -----------------------------------
 CID_79895903_JID_5219_Energie_anion
 -----------------------------------
 Structure from the checkpoint file:  "JID_5219.chk"
 Charge = -1 Multiplicity = 2

                         Standard orientation:
 ---------------------------------------------------------------------
 Center     Atomic      Atomic             Coordinates (Angstroms)
 Number     Number       Type             X           Y           Z
 ---------------------------------------------------------------------
      1          6           0       -0.289036    2.379732   -0.276703
      2          6           0       -1.787072    2.203346   -0.041290
      3          8           0       -2.295059    1.026816   -0.660293
      4          6           0       -1.643580   -0.191632   -0.267329
      5          6           0       -2.323371   -1.292046   -1.092019
      6          6           0       -3.577120   -1.570760   -0.269844
      7          8           0       -3.136255   -1.510175    1.087580
      8          6           0       -2.040665   -0.599282    1.176981
      9          6           0       -0.130405   -0.091838   -0.494089
     10          6           0        0.488137    1.141778    0.190676
     11          7           0        1.919871    1.332113   -0.041873
     12          6           0        2.849129    0.732204    0.913300
     13          6           0        2.940315   -0.804719    0.982559
     14          6           0        3.346946   -1.468194   -0.335148
     15          7           0        4.695637   -1.050655   -0.739571
     16          1           0        0.078750    3.268431    0.247809
     17          1           0       -0.103189    2.530229   -1.348810
     18          1           0       -1.992776    2.191021    1.041459
     19          1           0       -2.360494    3.028777   -0.472769
     20          1           0       -2.520116   -0.950306   -2.111119
     21          1           0       -1.683051   -2.180821   -1.124935
     22          1           0       -4.010611   -2.561357   -0.435290
     23          1           0       -4.344420   -0.807758   -0.464674
     24          1           0       -1.214482   -1.103370    1.695451
     25          1           0       -2.330018    0.275255    1.772083
     26          1           0        0.049601   -0.010344   -1.575640
     27          1           0        0.346764   -1.015662   -0.154308
     28          1           0        0.357593    1.045068    1.278491
     29          1           0        2.157277    1.078663   -0.998277
     30          1           0        3.846166    1.136515    0.696216
     31          1           0        2.584323    1.115523    1.906544
     32          1           0        3.684708   -1.068300    1.744350
     33          1           0        1.980216   -1.220448    1.313975
     34          1           0        3.368158   -2.554620   -0.191739
     35          1           0        2.572703   -1.272283   -1.099554
     36          1           0        4.989444   -1.583472   -1.556136
     37          1           0        4.685738   -0.075606   -1.033880
 ---------------------------------------------------------------------

 SCF Done:  E(UB3LYP) =  -692.587024776     A.U. after   30 cycles

 The electronic state is 2-A.
 Alpha  occ. eigenvalues --  -19.03552 -19.03235 -14.19850 -14.18711 -10.14281
 Alpha  occ. eigenvalues --  -10.12765 -10.12513 -10.12449 -10.10942 -10.09491
 Alpha  occ. eigenvalues --  -10.08621 -10.07959 -10.07490 -10.07267 -10.06298
 Alpha  occ. eigenvalues --   -0.95978  -0.93922  -0.81365  -0.77672  -0.71296
 Alpha  occ. eigenvalues --   -0.69758  -0.65795  -0.64674  -0.60783  -0.56552
 Alpha  occ. eigenvalues --   -0.54765  -0.52317  -0.50493  -0.47480  -0.46266
 Alpha  occ. eigenvalues --   -0.42124  -0.41332  -0.40551  -0.38776  -0.37770
 Alpha  occ. eigenvalues --   -0.37130  -0.36142  -0.35495  -0.34934  -0.34269
 Alpha  occ. eigenvalues --   -0.32446  -0.31945  -0.31419  -0.30561  -0.29094
 Alpha  occ. eigenvalues --   -0.28554  -0.27435  -0.26597  -0.25979  -0.25850
 Alpha  occ. eigenvalues --   -0.24716  -0.24410  -0.23877  -0.23283  -0.20818
 Alpha  occ. eigenvalues --   -0.17097  -0.16750  -0.14061  -0.12512   0.04288
 Alpha virt. eigenvalues --    0.06187   0.06724   0.07060   0.08276   0.08582
 Alpha virt. eigenvalues --    0.09008   0.09200   0.09746   0.10615   0.10628
 Alpha virt. eigenvalues --    0.11215   0.11394   0.11890   0.12267   0.13182

  Beta  occ. eigenvalues --  -19.03547 -19.03235 -14.19831 -14.18660 -10.14282
  Beta  occ. eigenvalues --  -10.12754 -10.12505 -10.12434 -10.10937 -10.09479
  Beta  occ. eigenvalues --  -10.08591 -10.07943 -10.07474 -10.07254 -10.06289
  Beta  occ. eigenvalues --   -0.95972  -0.93916  -0.81334  -0.77587  -0.71279
  Beta  occ. eigenvalues --   -0.69731  -0.65771  -0.64623  -0.60751  -0.56497
  Beta  occ. eigenvalues --   -0.54717  -0.52283  -0.50454  -0.47416  -0.46231
  Beta  occ. eigenvalues --   -0.42108  -0.41294  -0.40514  -0.38729  -0.37723
  Beta  occ. eigenvalues --   -0.37102  -0.36120  -0.35466  -0.34901  -0.34226
  Beta  occ. eigenvalues --   -0.32401  -0.31916  -0.31389  -0.30530  -0.29057
  Beta  occ. eigenvalues --   -0.28534  -0.27408  -0.26571  -0.25947  -0.25816
  Beta  occ. eigenvalues --   -0.24684  -0.24393  -0.23840  -0.23256  -0.20804
  Beta  occ. eigenvalues --   -0.17080  -0.16740  -0.14009  -0.12491
  Beta virt. eigenvalues --    0.06219   0.07121   0.07280   0.07451   0.08662
  Beta virt. eigenvalues --    0.08927   0.09259   0.09570   0.10052   0.10843
  Beta virt. eigenvalues --    0.10989   0.11305   0.11752   0.12182   0.12637

 Mulliken charges and spin densities:
               1          2
     1  C    0.113237  -0.180018
     2  C    0.078506  -0.261715
     3  O   -0.009619   0.041783
     4  C   -0.777587   0.010782
     5  C    0.443189  -0.495785
     6  C    0.071197  -0.333690
     7  O   -0.156481   0.031310
     8  C    0.015972  -0.401334
     9  C    0.175861  -0.212696
    10  C   -0.925483  -0.031417
    11  N    0.153537   0.080597
    12  C    0.259997  -0.639046
    13  C   -0.648127   0.619825
    14  C    1.599113  -2.108813
    15  N   -0.500236   0.142274
    16  H   -0.114255   0.287962
    17  H    0.043677   0.115054
    18  H    0.050203   0.049429
    19  H   -0.072947   0.257853
    20  H   -0.057502   0.234456
    21  H   -0.227268   0.392902
    22  H   -0.053838   0.240601
    23  H    0.153293  -0.006998
    24  H   -0.138059   0.358647
    25  H    0.076602   0.079782
    26  H   -0.242356   0.429243
    27  H    1.128445  -0.948644
    28  H    0.084521   0.071811
    29  H    0.009885   0.256964
    30  H   -0.031400   0.214325
    31  H   -0.016864   0.136717
    32  H   -0.010424   0.173728
    33  H   -0.048163   0.178540
    34  H   -0.420993   0.577437
    35  H   -0.658778   0.833429
    36  H   -0.268090   0.518870
    37  H   -0.078767   0.285833
 Sum of Mulliken charges =  -1.00000   1.00000

 Dipole moment (field-independent basis, Debye):
    X=             -6.4850    Y=              3.1503    Z=              3.1896  Tot=              7.8837
 Quadrupole moment (field-independent basis, Debye-Ang):
   XX=           -183.2199   YY=           -141.1004   ZZ=           -132.9027
   XY=              7.5031   XZ=             13.1115   YZ=             -1.5978

 Summary of Natural Population Analysis:

                                       Natural Population
                Natural  -----------------------------------------------
    Atom  No    Charge         Core      Valence    Rydberg      Total
 -----------------------------------------------------------------------
      C    1   -0.20402      0.99961     2.19460    0.00981     3.20402
      C    2   -0.00820      0.99956     1.99745    0.01119     3.00820
      O    3   -0.31113      0.99987     3.30161    0.00964     4.31113
      C    4    0.12844      0.99950     1.85471    0.01735     2.87156
      C    5   -0.20825      0.99958     2.19838    0.01029     3.20825
      C    6   -0.00818      0.99960     1.99753    0.01105     3.00818
      O    7   -0.30306      0.99990     3.29474    0.00843     4.30306
      C    8   -0.02007      0.99951     2.00914    0.01141     3.02007
      C    9   -0.21166      0.99955     2.19950    0.01260     3.21166
      C   10   -0.00899      0.99957     1.99684    0.01258     3.00899
      N   11   -0.34469      0.99973     2.83260    0.01235     3.84469
      C   12   -0.08496      0.99961     2.07463    0.01072     3.08496
      C   13   -0.20276      0.99962     2.19560    0.00755     3.20276
      C   14   -0.09321      0.99963     2.08134    0.01225     3.09321
      N   15   -0.42499      0.99977     2.91409    0.01113     3.92499
      H   16    0.10508      0.00000     0.39367    0.00126     0.39492
      H   17    0.09877      0.00000     0.39993    0.00130     0.40123
      H   18    0.07490      0.00000     0.42358    0.00151     0.42510
      H   19    0.09174      0.00000     0.40714    0.00112     0.40826
      H   20    0.11132      0.00000     0.38743    0.00125     0.38868
      H   21    0.10431      0.00000     0.39431    0.00138     0.39569
      H   22    0.08871      0.00000     0.40994    0.00136     0.41129
      H   23    0.08070      0.00000     0.41768    0.00163     0.41930
      H   24    0.08890      0.00000     0.40939    0.00171     0.41110
      H   25    0.08650      0.00000     0.41194    0.00156     0.41350
      H   26    0.10274      0.00000     0.39531    0.00195     0.39726
      H   27    0.10713      0.00000     0.39087    0.00200     0.39287
      H   28    0.08941      0.00000     0.40861    0.00199     0.41059
      H   29    0.17534      0.00000     0.32094    0.00373     0.32466
      H   30    0.09367      0.00000     0.40511    0.00122     0.40633
      H   31    0.09045      0.00000     0.40836    0.00119     0.40955
      H   32    0.09979      0.00000     0.39886    0.00136     0.40021
      H   33    0.09381      0.00000     0.40469    0.00150     0.40619
      H   34    0.09245      0.00000     0.40602    0.00153     0.40755
      H   35    0.07902      0.00000     0.41781    0.00317     0.42098
      H   36    0.17956      0.00000     0.31665    0.00379     0.32044
      H   37    0.17144      0.00000     0.32599    0.00257     0.32856
 =======================================================================
   * Total *    0.00000     14.99462    43.79696    0.20842    59.00000

 Normal termination of Gaussian 16 at Thu Dec 10 16:55:04 2020.
