 Gaussian 16, Revision A.03,

 -----------------------------------------------------------
 # opt freq B3LYP/6-31G(d) empiricaldispersion=gd3bj scf=xqc
 -----------------------------------------------------------

 -------------------------------
 CID_116641651_JID_5574_neutraal
 -------------------------------
 Symbolic Z-matrix:
 Charge =  0 Multiplicity = 1

 SCF Done:  E(RB3LYP) =  -702.200338427     A.U. after   15 cycles
 SCF Done:  E(RB3LYP) =  -702.205065021     A.U. after   13 cycles
 SCF Done:  E(RB3LYP) =  -702.205019083     A.U. after   13 cycles
 SCF Done:  E(RB3LYP) =  -702.206405996     A.U. after   12 cycles
 SCF Done:  E(RB3LYP) =  -702.207155760     A.U. after   12 cycles
 SCF Done:  E(RB3LYP) =  -702.207323828     A.U. after   12 cycles
 SCF Done:  E(RB3LYP) =  -702.207465589     A.U. after   11 cycles
 SCF Done:  E(RB3LYP) =  -702.207553148     A.U. after   11 cycles
 SCF Done:  E(RB3LYP) =  -702.207638513     A.U. after   11 cycles
 SCF Done:  E(RB3LYP) =  -702.207690790     A.U. after   11 cycles
 SCF Done:  E(RB3LYP) =  -702.207743828     A.U. after    8 cycles
 SCF Done:  E(RB3LYP) =  -702.207744299     A.U. after    8 cycles
 SCF Done:  E(RB3LYP) =  -702.207744535     A.U. after    8 cycles
 SCF Done:  E(RB3LYP) =  -702.207744652     A.U. after    8 cycles
 SCF Done:  E(RB3LYP) =  -702.207744673     A.U. after    7 cycles
 Optimization completed.
    -- Stationary point found.
 Normal termination of Gaussian 16 at Thu Dec 10 16:32:07 2020.

 --------------------------------------------------------------------
 #N Geom=AllCheck Guess=TCheck SCRF=Check GenChk RB3LYP/6-31G(d) Freq
 --------------------------------------------------------------------

 Structure from the checkpoint file:  "JID_5574.chk"
 -------------------------------
 CID_116641651_JID_5574_neutraal
 -------------------------------
 Charge =  0 Multiplicity = 1

 SCF Done:  E(RB3LYP) =  -702.207744673     A.U. after    1 cycles

  Exact polarizability: 146.621   9.722 126.371  -2.936   8.830 105.739
 Approx polarizability: 193.302  21.971 188.579   0.769  29.250 176.906

                      1                      2                      3
                      A                      A                      A
 Frequencies --     21.0549                35.3463                61.1916
 Red. masses --      4.0631                 4.7159                 3.7422
 Frc consts  --      0.0011                 0.0035                 0.0083
 IR Inten    --      0.4577                 2.1361                 5.1569

                      4                      5                      6
                      A                      A                      A
 Frequencies --     70.1114                85.8469                92.6588
 Red. masses --      4.1491                 2.9444                 5.7958
 Frc consts  --      0.0120                 0.0128                 0.0293
 IR Inten    --      0.3985                 0.0634                 8.8330

                      7                      8                      9
                      A                      A                      A
 Frequencies --    131.2702               152.8731               191.3438
 Red. masses --      4.6362                 3.1203                 2.7307
 Frc consts  --      0.0471                 0.0430                 0.0589
 IR Inten    --      1.5410                 1.3557                 2.7113

                     10                     11                     12
                      A                      A                      A
 Frequencies --    227.1653               247.2609               252.8610
 Red. masses --      1.0539                 1.8258                 2.7341
 Frc consts  --      0.0320                 0.0658                 0.1030
 IR Inten    --      0.0806                 2.6575                 1.7081

                     13                     14                     15
                      A                      A                      A
 Frequencies --    284.1812               325.2376               338.0024
 Red. masses --      1.8982                 2.5085                 1.2260
 Frc consts  --      0.0903                 0.1563                 0.0825
 IR Inten    --      4.5747                 1.5959                63.3283

                     16                     17                     18
                      A                      A                      A
 Frequencies --    375.6294               389.2891               418.0806
 Red. masses --      3.3048                 3.0800                 2.3676
 Frc consts  --      0.2747                 0.2750                 0.2438
 IR Inten    --     19.6786                 1.2038                 3.5868

                     19                     20                     21
                      A                      A                      A
 Frequencies --    435.7889               477.8998               517.9272
 Red. masses --      2.4959                 2.5367                 2.7775
 Frc consts  --      0.2793                 0.3413                 0.4390
 IR Inten    --      4.6193                 5.1235                 5.1891

                     22                     23                     24
                      A                      A                      A
 Frequencies --    522.9408               594.1410               633.6120
 Red. masses --      3.0722                 2.9904                 2.3362
 Frc consts  --      0.4950                 0.6219                 0.5526
 IR Inten    --     24.0561                15.6013                22.4670

                     25                     26                     27
                      A                      A                      A
 Frequencies --    673.0160               698.6382               733.6208
 Red. masses --      2.7044                 3.7127                 3.7007
 Frc consts  --      0.7217                 1.0677                 1.1735
 IR Inten    --     44.8630                39.8185                 4.4595

                     28                     29                     30
                      A                      A                      A
 Frequencies --    799.5954               813.9225               853.2180
 Red. masses --      1.4723                 3.2424                 4.1489
 Frc consts  --      0.5546                 1.2656                 1.7795
 IR Inten    --     23.8677                 2.3541                 8.6754

                     31                     32                     33
                      A                      A                      A
 Frequencies --    869.5176               892.7326               921.9366
 Red. masses --      2.0117                 2.6528                 1.2980
 Frc consts  --      0.8961                 1.2457                 0.6500
 IR Inten    --     43.5717                 0.1388               118.9294

                     34                     35                     36
                      A                      A                      A
 Frequencies --    933.5645               947.1492               962.6067
 Red. masses --      1.9688                 1.2389                 1.3997
 Frc consts  --      1.0110                 0.6548                 0.7642
 IR Inten    --      7.2979                 3.5573                 0.5930

                     37                     38                     39
                      A                      A                      A
 Frequencies --    973.6430              1016.2207              1047.0943
 Red. masses --      2.0782                 1.9606                 5.1244
 Frc consts  --      1.1607                 1.1929                 3.3103
 IR Inten    --     13.0092                 2.1779                 5.2341

                     40                     41                     42
                      A                      A                      A
 Frequencies --   1069.5325              1071.7323              1131.9700
 Red. masses --      2.9482                 2.7128                 2.0218
 Frc consts  --      1.9870                 1.8359                 1.5264
 IR Inten    --     44.6305                 6.3529                 7.7757

                     43                     44                     45
                      A                      A                      A
 Frequencies --   1140.3219              1159.7841              1173.2925
 Red. masses --      2.4532                 2.1452                 1.4123
 Frc consts  --      1.8795                 1.7001                 1.1455
 IR Inten    --     18.8591                17.6541                 4.3217

                     46                     47                     48
                      A                      A                      A
 Frequencies --   1188.8460              1203.2859              1205.5515
 Red. masses --      1.3358                 1.9394                 2.3055
 Frc consts  --      1.1124                 1.6545                 1.9742
 IR Inten    --      1.7224                26.8694                 6.1466

                     49                     50                     51
                      A                      A                      A
 Frequencies --   1232.6881              1293.7342              1329.1369
 Red. masses --      1.2326                 7.1518                 1.9415
 Frc consts  --      1.1035                 7.0528                 2.0209
 IR Inten    --      4.1958                24.9358                11.1814

                     52                     53                     54
                      A                      A                      A
 Frequencies --   1356.6390              1359.6331              1361.7669
 Red. masses --      1.3019                 1.3882                 1.3909
 Frc consts  --      1.4117                 1.5120                 1.5197
 IR Inten    --      2.4392                31.2403                 5.0956

                     55                     56                     57
                      A                      A                      A
 Frequencies --   1372.5860              1385.1331              1399.1437
 Red. masses --      1.5608                 1.3483                 3.0495
 Frc consts  --      1.7326                 1.5242                 3.5173
 IR Inten    --     11.0493                 7.4023                21.7911

                     58                     59                     60
                      A                      A                      A
 Frequencies --   1418.6755              1430.9771              1449.3039
 Red. masses --      3.2138                 1.2600                 1.4116
 Frc consts  --      3.8109                 1.5202                 1.7469
 IR Inten    --     92.9264                 4.0247                16.0929

                     61                     62                     63
                      A                      A                      A
 Frequencies --   1451.1636              1481.7537              1499.8142
 Red. masses --      1.2400                 2.4230                 1.3030
 Frc consts  --      1.5386                 3.1344                 1.7269
 IR Inten    --     10.4052                21.3193                16.6797

                     64                     65                     66
                      A                      A                      A
 Frequencies --   1503.8489              1513.1877              1516.0180
 Red. masses --      1.3206                 1.0496                 1.2143
 Frc consts  --      1.7597                 1.4159                 1.6444
 IR Inten    --     43.7752                 2.9082                 6.8692

                     67                     68                     69
                      A                      A                      A
 Frequencies --   1518.3562              1532.6637              1540.1834
 Red. masses --      1.1094                 1.0747                 1.1241
 Frc consts  --      1.5069                 1.4874                 1.5711
 IR Inten    --     11.4490                 6.9591                 7.6938

                     70                     71                     72
                      A                      A                      A
 Frequencies --   1544.2729              1599.1555              1705.1381
 Red. masses --      1.0946                 6.0807                 1.0843
 Frc consts  --      1.5380                 9.1619                 1.8575
 IR Inten    --      1.8851                11.5283                38.2192

                     73                     74                     75
                      A                      A                      A
 Frequencies --   1790.4656              2937.8762              3047.2444
 Red. masses --      8.0467                 1.0740                 1.0386
 Frc consts  --     15.1984                 5.4618                 5.6820
 IR Inten    --    397.8805                94.8645                16.5557

                     76                     77                     78
                      A                      A                      A
 Frequencies --   3052.7601              3053.0356              3066.1017
 Red. masses --      1.0659                 1.0401                 1.0821
 Frc consts  --      5.8526                 5.7122                 5.9938
 IR Inten    --     13.6942                22.3596                76.0859

                     79                     80                     81
                      A                      A                      A
 Frequencies --   3099.8629              3109.6130              3112.0616
 Red. masses --      1.1028                 1.0748                 1.0773
 Frc consts  --      6.2436                 6.1235                 6.1472
 IR Inten    --     18.4217                12.6553                10.5865

                     82                     83                     84
                      A                      A                      A
 Frequencies --   3116.1072              3137.3234              3139.6846
 Red. masses --      1.0970                 1.1036                 1.0911
 Frc consts  --      6.2761                 6.3998                 6.3368
 IR Inten    --      7.1203                22.5052                25.2929

                     85                     86                     87
                      A                      A                      A
 Frequencies --   3150.8885              3167.1024              3298.3479
 Red. masses --      1.1008                 1.1085                 1.0995
 Frc consts  --      6.4393                 6.5512                 7.0478
 IR Inten    --     16.2135                 2.9204                 2.2398

                     88                     89                     90
                      A                      A                      A
 Frequencies --   3459.5662              3549.0245              3565.4561
 Red. masses --      1.0500                 1.0928                 1.0750
 Frc consts  --      7.4043                 8.1095                 8.0520
 IR Inten    --     28.4596                 8.3105                15.4094

 - Thermochemistry -
 -------------------
 Temperature   298.150 Kelvin.  Pressure   1.00000 Atm.
 Atom     1 has atomic number  6 and mass  12.00000

 Molecular mass:   211.14331 amu.
 Principal axes and moments of inertia in atomic units:
                           1         2         3
     Eigenvalues --  1941.407984960.470925858.22970
           X            0.99965  -0.02062  -0.01635
           Y            0.02044   0.99973  -0.01114
           Z            0.01658   0.01080   0.99980
 This molecule is an asymmetric top.
 Rotational symmetry number  1.
 Warning -- assumption of classical behavior for rotation
           may cause significant error
 Rotational temperatures (Kelvin)      0.04461     0.01746     0.01478
 Rotational constants (GHZ):           0.92960     0.36382     0.30807
 Zero-point vibrational energy     723800.5 (Joules/Mol)
                                  172.99248 (Kcal/Mol)
 Warning -- explicit consideration of  23 degrees of freedom as
           vibrations may cause significant error
 Vibrational temperatures:     30.29    50.86    88.04   100.87   123.51
          (Kelvin)            133.32   188.87   219.95   275.30   326.84
                              355.75   363.81   408.87   467.94   486.31
                              540.45   560.10   601.52   627.00   687.59
                              745.18   752.40   854.84   911.63   968.32
                             1005.18  1055.52  1150.44  1171.05  1227.59
                             1251.04  1284.44  1326.46  1343.19  1362.74
                             1384.98  1400.86  1462.11  1506.54  1538.82
                             1541.98  1628.65  1640.67  1668.67  1688.11
                             1710.48  1731.26  1734.52  1773.56  1861.39
                             1912.33  1951.90  1956.21  1959.28  1974.85
                             1992.90  2013.06  2041.16  2058.86  2085.22
                             2087.90  2131.91  2157.90  2163.70  2177.14
                             2181.21  2184.58  2205.16  2215.98  2221.86
                             2300.83  2453.31  2576.08  4226.95  4384.31
                             4392.24  4392.64  4411.44  4460.01  4474.04
                             4477.56  4483.38  4513.91  4517.31  4533.43
                             4556.75  4745.59  4977.54  5106.25  5129.90

 Zero-point correction=                           0.275681 (Hartree/Particle)
 Thermal correction to Energy=                    0.291475
 Thermal correction to Enthalpy=                  0.292420
 Thermal correction to Gibbs Free Energy=         0.230921
 Sum of electronic and zero-point Energies=           -701.932064
 Sum of electronic and thermal Energies=              -701.916269
 Sum of electronic and thermal Enthalpies=            -701.915325
 Sum of electronic and thermal Free Energies=         -701.976823

                     E (Thermal)             CV                S
                      KCal/Mol        Cal/Mol-Kelvin    Cal/Mol-Kelvin
 Total                  182.904             58.002            129.434
 Electronic               0.000              0.000              0.000
 Translational            0.889              2.981             41.946
 Rotational               0.889              2.981             32.401
 Vibrational            181.126             52.040             55.088
 Vibration     1          0.593              1.985              6.532
 Vibration     2          0.594              1.982              5.504
 Vibration     3          0.597              1.973              4.418
 Vibration     4          0.598              1.968              4.150
 Vibration     5          0.601              1.959              3.753
 Vibration     6          0.602              1.954              3.603
 Vibration     7          0.612              1.922              2.927
 Vibration     8          0.619              1.899              2.636
 Vibration     9          0.634              1.852              2.215
 Vibration    10          0.651              1.800              1.901
 Vibration    11          0.661              1.767              1.750
 Vibration    12          0.664              1.758              1.711
 Vibration    13          0.683              1.703              1.508
 Vibration    14          0.709              1.625              1.284
 Vibration    15          0.718              1.600              1.222
 Vibration    16          0.746              1.522              1.057
 Vibration    17          0.757              1.493              1.003
 Vibration    18          0.781              1.431              0.899
 Vibration    19          0.796              1.392              0.840
 Vibration    20          0.834              1.299              0.716
 Vibration    21          0.873              1.210              0.615
 Vibration    22          0.878              1.199              0.603
 Vibration    23          0.952              1.044              0.460

 Optimization completed.
    -- Stationary point found.
 Normal termination of Gaussian 16 at Thu Dec 10 16:43:10 2020.

 ----------------------------------------------------------------------
 # B3LYP/6-311++G(d,p) empiricaldispersion=gd3bj scf=xqc pop=npa geom=c
 heck
 ----------------------------------------------------------------------

 ---------------------------------------
 CID_116641651_JID_5574_Energie_neutraal
 ---------------------------------------
 Structure from the checkpoint file:  "JID_5574.chk"
 Charge =  0 Multiplicity = 1

 SCF Done:  E(RB3LYP) =  -702.415444065     A.U. after   15 cycles
 Normal termination of Gaussian 16 at Thu Dec 10 16:48:01 2020.

 ----------------------------------------------------------------------
 # B3LYP/6-311++G(d,p) empiricaldispersion=gd3bj scf=xqc pop=npa geom=c
 heck
 ----------------------------------------------------------------------

 -------------------------------------
 CID_116641651_JID_5574_Energie_kation
 -------------------------------------
 Structure from the checkpoint file:  "JID_5574.chk"
 Charge =  1 Multiplicity = 2

 SCF Done:  E(UB3LYP) =  -702.101370894     A.U. after   32 cycles
 Normal termination of Gaussian 16 at Thu Dec 10 17:06:04 2020.
 Gaussian 16:  ES64L-G16RevA.03 25-Dec-2016

 ----------------------------------------------------------------------
 # B3LYP/6-311++G(d,p) empiricaldispersion=gd3bj scf=xqc pop=npa geom=c
 heck
 ----------------------------------------------------------------------

 ------------------------------------
 CID_116641651_JID_5574_Energie_anion
 ------------------------------------
 Structure from the checkpoint file:  "JID_5574.chk"
 Charge = -1 Multiplicity = 2

                         Standard orientation:
 ---------------------------------------------------------------------
 Center     Atomic      Atomic             Coordinates (Angstroms)
 Number     Number       Type             X           Y           Z
 ---------------------------------------------------------------------
      1          6           0       -0.834578    1.961219   -0.661168
      2          6           0       -2.026146    1.381974    0.110629
      3          6           0       -3.130859    2.419215    0.327158
      4          7           0       -2.587258    0.218514   -0.586630
      5          6           0       -2.387638   -1.109215   -0.369550
      6          8           0       -2.818109   -1.974950   -1.122443
      7          6           0       -1.580107   -1.512594    0.874926
      8          7           0       -0.178433   -1.153210    0.736633
      9          6           0        0.693030   -1.515986   -0.240032
     10          6           0        1.856653   -0.835845    0.058486
     11          7           0        1.624592   -0.097481    1.189929
     12          7           0        0.397899   -0.285407    1.596211
     13          6           0        3.166892   -0.806533   -0.668619
     14          6           0        3.649696    0.619257   -0.979447
     15          7           0        4.141028    1.263448    0.238540
     16          1           0       -1.152005    2.321145   -1.647663
     17          1           0       -0.055052    1.208283   -0.802773
     18          1           0       -0.399472    2.804083   -0.114191
     19          1           0       -1.668323    1.041862    1.083988
     20          1           0       -3.527876    2.772329   -0.633130
     21          1           0       -3.958531    1.995451    0.904201
     22          1           0       -2.738220    3.288240    0.864719
     23          1           0       -3.072462    0.403345   -1.458763
     24          1           0       -1.934430   -1.031090    1.788424
     25          1           0       -1.679555   -2.594751    0.973694
     26          1           0        0.416297   -2.193184   -1.033442
     27          1           0        3.942002   -1.300105   -0.069334
     28          1           0        3.061482   -1.372433   -1.600926
     29          1           0        4.480106    0.557048   -1.693673
     30          1           0        2.829330    1.160111   -1.488661
     31          1           0        4.385046    2.232295    0.041099
     32          1           0        3.390079    1.276963    0.928889
 ---------------------------------------------------------------------

 SCF Done:  E(UB3LYP) =  -702.404200914     A.U. after   33 cycles
 SCF Done:  E(UB3LYP) =  -702.404200914     a.u. after    1 cycles

 The electronic state is 2-A.
 Alpha  occ. eigenvalues --  -19.00156 -14.31023 -14.27073 -14.24419 -14.23505
 Alpha  occ. eigenvalues --  -14.19085 -10.18855 -10.14322 -10.11929 -10.11867
 Alpha  occ. eigenvalues --  -10.10907 -10.09894 -10.08549 -10.06426 -10.05779
 Alpha  occ. eigenvalues --   -1.00549  -0.95237  -0.83859  -0.82550  -0.78609
 Alpha  occ. eigenvalues --   -0.72462  -0.68628  -0.66820  -0.64044  -0.59231
 Alpha  occ. eigenvalues --   -0.54446  -0.53001  -0.51755  -0.50360  -0.48768
 Alpha  occ. eigenvalues --   -0.44318  -0.41205  -0.39857  -0.38578  -0.38456
 Alpha  occ. eigenvalues --   -0.37510  -0.36217  -0.35073  -0.34226  -0.33832
 Alpha  occ. eigenvalues --   -0.32715  -0.32048  -0.29715  -0.28978  -0.28518
 Alpha  occ. eigenvalues --   -0.28265  -0.28040  -0.27289  -0.25522  -0.25090
 Alpha  occ. eigenvalues --   -0.23581  -0.20688  -0.18269  -0.17330  -0.16480
 Alpha  occ. eigenvalues --   -0.16192  -0.14561   0.04451
 Alpha virt. eigenvalues --    0.06326   0.06366   0.07627   0.08061   0.08634
 Alpha virt. eigenvalues --    0.09044   0.09415   0.09515   0.10087   0.10716
 Alpha virt. eigenvalues --    0.11186   0.11810   0.12277   0.12873   0.13126

  Beta  occ. eigenvalues --  -19.00149 -14.30953 -14.26929 -14.24391 -14.23450
  Beta  occ. eigenvalues --  -14.19077 -10.18833 -10.14318 -10.11921 -10.11837
  Beta  occ. eigenvalues --  -10.10921 -10.09877 -10.08537 -10.06373 -10.05735
  Beta  occ. eigenvalues --   -1.00396  -0.95210  -0.83799  -0.82442  -0.78588
  Beta  occ. eigenvalues --   -0.72373  -0.68580  -0.66772  -0.63978  -0.59141
  Beta  occ. eigenvalues --   -0.54401  -0.52885  -0.51660  -0.50286  -0.48713
  Beta  occ. eigenvalues --   -0.44264  -0.41107  -0.39816  -0.38504  -0.38324
  Beta  occ. eigenvalues --   -0.37421  -0.36163  -0.35024  -0.34166  -0.33791
  Beta  occ. eigenvalues --   -0.32678  -0.31938  -0.29642  -0.28927  -0.28467
  Beta  occ. eigenvalues --   -0.28209  -0.27992  -0.27242  -0.25469  -0.25017
  Beta  occ. eigenvalues --   -0.23459  -0.20344  -0.18143  -0.17231  -0.16430
  Beta  occ. eigenvalues --   -0.15917  -0.14536
  Beta virt. eigenvalues --    0.06595   0.07011   0.07246   0.08000   0.08880
  Beta virt. eigenvalues --    0.08985   0.09436   0.09747   0.09883   0.10486
  Beta virt. eigenvalues --    0.10893   0.11730   0.12156   0.12397   0.13133

 Mulliken charges and spin densities:
               1          2
     1  C    0.217631  -0.855598
     2  C   -0.775441   0.685713
     3  C    1.302283  -1.781979
     4  N   -0.122948   0.084666
     5  C   -0.165562   0.134138
     6  O   -0.318080   0.007805
     7  C    0.091188  -0.285598
     8  N    0.232449  -0.030552
     9  C   -0.804492   0.366260
    10  C    0.540955  -0.143065
    11  N   -0.494720   0.060466
    12  N    0.225223   0.080568
    13  C   -0.196645  -0.346226
    14  C    0.367119  -0.776048
    15  N   -0.439069   0.056646
    16  H   -0.416081   0.570537
    17  H    0.325283  -0.164620
    18  H   -0.101366   0.262070
    19  H    0.302857  -0.154618
    20  H   -0.397000   0.553350
    21  H   -0.452179   0.611317
    22  H   -0.253512   0.404525
    23  H    0.059687   0.239264
    24  H    0.058833   0.137778
    25  H    0.236526  -0.019533
    26  H   -0.047798   0.246147
    27  H    0.184613  -0.008991
    28  H   -0.088426   0.238312
    29  H   -0.168349   0.327053
    30  H   -0.243425   0.368060
    31  H    0.110005   0.105772
    32  H    0.230442   0.026382
 Sum of Mulliken charges =  -1.00000   1.00000

 Dipole moment (field-independent basis, Debye):
    X=              2.5126    Y=             -5.3283    Z=              2.9456  Tot=              6.5864
 Quadrupole moment (field-independent basis, Debye-Ang):
   XX=           -170.0327   YY=           -133.3502   ZZ=           -130.8374
   XY=              7.1679   XZ=             -7.0032   YZ=             -1.8758

 Summary of Natural Population Analysis:

                                       Natural Population
                Natural  -----------------------------------------------
    Atom  No    Charge         Core      Valence    Rydberg      Total
 -----------------------------------------------------------------------
      C    1   -0.28668      0.99963     2.28007    0.00697     3.28668
      C    2   -0.02115      0.99960     2.01044    0.01111     3.02115
      C    3   -0.28519      0.99965     2.27957    0.00597     3.28519
      N    4   -0.31020      0.99965     2.79932    0.01123     3.81020
      C    5    0.33654      0.99967     1.64109    0.02270     2.66346
      O    6   -0.32321      0.99988     3.31722    0.00612     4.32321
      C    7   -0.12526      0.99957     2.11559    0.01010     3.12526
      N    8   -0.09974      0.99966     2.58768    0.01240     3.59974
      C    9   -0.02277      0.99948     2.01317    0.01011     3.02277
      C   10    0.04413      0.99956     1.94220    0.01410     2.95587
      N   11   -0.14973      0.99971     2.63588    0.01414     3.64973
      N   12   -0.02483      0.99977     2.51032    0.01474     3.52483
      C   13   -0.20844      0.99959     2.19885    0.01001     3.20844
      C   14   -0.08466      0.99965     2.07402    0.01099     3.08466
      N   15   -0.43189      0.99977     2.92193    0.01019     3.93189
      H   16    0.10014      0.00000     0.39797    0.00190     0.39986
      H   17    0.10305      0.00000     0.39449    0.00246     0.39695
      H   18    0.10301      0.00000     0.39575    0.00124     0.39699
      H   19    0.10221      0.00000     0.39478    0.00301     0.39779
      H   20    0.10098      0.00000     0.39669    0.00232     0.39902
      H   21    0.10200      0.00000     0.39650    0.00150     0.39800
      H   22    0.10398      0.00000     0.39480    0.00122     0.39602
      H   23    0.19686      0.00000     0.30025    0.00289     0.30314
      H   24    0.11632      0.00000     0.38243    0.00125     0.38368
      H   25    0.10982      0.00000     0.38922    0.00096     0.39018
      H   26    0.11427      0.00000     0.38479    0.00094     0.38573
      H   27    0.10620      0.00000     0.39248    0.00131     0.39380
      H   28    0.10573      0.00000     0.39330    0.00097     0.39427
      H   29    0.08772      0.00000     0.41104    0.00125     0.41228
      H   30    0.08194      0.00000     0.41590    0.00216     0.41806
      H   31    0.17143      0.00000     0.32714    0.00143     0.32857
      H   32    0.18745      0.00000     0.30975    0.00281     0.31255
 =======================================================================
   * Total *    0.00003     14.99485    41.80463    0.20049    56.99997

 Normal termination of Gaussian 16 at Thu Dec 10 17:27:42 2020.
