 Gaussian 16, Revision A.03,

 -----------------------------------------------------------
 # opt freq B3LYP/6-31G(d) empiricaldispersion=gd3bj scf=xqc
 -----------------------------------------------------------

 ------------------------------
 CID_82870517_JID_3094_neutraal
 ------------------------------
 Symbolic Z-matrix:
 Charge =  0 Multiplicity = 1

 SCF Done:  E(RB3LYP) =  -575.458340078     A.U. after   14 cycles
 SCF Done:  E(RB3LYP) =  -575.460895923     A.U. after   12 cycles
 SCF Done:  E(RB3LYP) =  -575.461417803     A.U. after   12 cycles
 SCF Done:  E(RB3LYP) =  -575.461444806     A.U. after   12 cycles
 SCF Done:  E(RB3LYP) =  -575.461618778     A.U. after   12 cycles
 SCF Done:  E(RB3LYP) =  -575.461826381     A.U. after   12 cycles
 SCF Done:  E(RB3LYP) =  -575.462499761     A.U. after   16 cycles
 SCF Done:  E(RB3LYP) =  -575.462926221     A.U. after   15 cycles
 SCF Done:  E(RB3LYP) =  -575.462712956     A.U. after   15 cycles
 SCF Done:  E(RB3LYP) =  -575.463307755     A.U. after   15 cycles
 SCF Done:  E(RB3LYP) =  -575.463494329     A.U. after    9 cycles
 SCF Done:  E(RB3LYP) =  -575.463493782     A.U. after   10 cycles
 SCF Done:  E(RB3LYP) =  -575.463494741     A.U. after    9 cycles
 SCF Done:  E(RB3LYP) =  -575.463494736     A.U. after    7 cycles
 SCF Done:  E(RB3LYP) =  -575.463494764     A.U. after    6 cycles
 Optimization completed.
    -- Stationary point found.
 Normal termination of Gaussian 16 at Wed Dec  9 22:37:30 2020.

 --------------------------------------------------------------------
 #N Geom=AllCheck Guess=TCheck SCRF=Check GenChk RB3LYP/6-31G(d) Freq
 --------------------------------------------------------------------

 Structure from the checkpoint file:  "JID_3094.chk"
 ------------------------------
 CID_82870517_JID_3094_neutraal
 ------------------------------
 Charge =  0 Multiplicity = 1

 SCF Done:  E(RB3LYP) =  -575.463494764     A.U. after    1 cycles

  Exact polarizability: 137.159  -5.584 115.097 -12.558  -3.285  92.781
 Approx polarizability: 175.929 -15.975 183.877 -24.664  -9.498 141.564

                      1                      2                      3
                      A                      A                      A
 Frequencies --     19.9709                42.1133                47.3015
 Red. masses --      3.4869                 3.8874                 1.2345
 Frc consts  --      0.0008                 0.0041                 0.0016
 IR Inten    --      0.3726                 2.0209                 0.5349

                      4                      5                      6
                      A                      A                      A
 Frequencies --     64.7659                70.6225               108.4935
 Red. masses --      3.4128                 2.4817                 2.8575
 Frc consts  --      0.0084                 0.0073                 0.0198
 IR Inten    --      0.0980                 0.0544                 4.5402

                      7                      8                      9
                      A                      A                      A
 Frequencies --    124.1120               170.8637               185.2190
 Red. masses --      1.1554                 3.3882                 3.7173
 Frc consts  --      0.0105                 0.0583                 0.0751
 IR Inten    --      0.2370                10.2174                 2.6041

                     10                     11                     12
                      A                      A                      A
 Frequencies --    231.7746               235.5157               300.6034
 Red. masses --      1.3570                 2.1420                 4.0897
 Frc consts  --      0.0429                 0.0700                 0.2177
 IR Inten    --      0.7111                 2.2345                 0.7494

                     13                     14                     15
                      A                      A                      A
 Frequencies --    328.2183               361.8170               418.4054
 Red. masses --      2.3113                 2.1799                 2.6039
 Frc consts  --      0.1467                 0.1681                 0.2686
 IR Inten    --      1.4361                 0.8926                 5.7007

                     16                     17                     18
                      A                      A                      A
 Frequencies --    433.4120               480.5396               516.3525
 Red. masses --      2.0687                 2.1431                 3.8679
 Frc consts  --      0.2290                 0.2916                 0.6076
 IR Inten    --      2.1272                 0.3005                 5.6678

                     19                     20                     21
                      A                      A                      A
 Frequencies --    603.1915               622.7303               642.3896
 Red. masses --      3.7966                 4.8951                 4.5024
 Frc consts  --      0.8139                 1.1184                 1.0947
 IR Inten    --     10.4824                 0.8938                 1.8604

                     22                     23                     24
                      A                      A                      A
 Frequencies --    720.7369               750.7098               771.0758
 Red. masses --      4.3167                 1.3378                 3.2562
 Frc consts  --      1.3212                 0.4442                 1.1407
 IR Inten    --      6.2935                30.7692                16.1356

                     25                     26                     27
                      A                      A                      A
 Frequencies --    819.8139               828.3233               843.3663
 Red. masses --      1.7281                 1.3788                 3.0681
 Frc consts  --      0.6843                 0.5574                 1.2857
 IR Inten    --      1.0068                 1.6143                 0.4572

                     28                     29                     30
                      A                      A                      A
 Frequencies --    865.0625               926.2539               964.3200
 Red. masses --      1.8297                 1.9506                 1.9854
 Frc consts  --      0.8067                 0.9860                 1.0878
 IR Inten    --      3.7393                 0.0223                14.2998

                     31                     32                     33
                      A                      A                      A
 Frequencies --    982.5373              1009.7735              1023.4111
 Red. masses --      1.5803                 1.5776                 3.4245
 Frc consts  --      0.8988                 0.9477                 2.1132
 IR Inten    --      3.2136                 4.2765                 3.7948

                     34                     35                     36
                      A                      A                      A
 Frequencies --   1027.7399              1067.9284              1084.1481
 Red. masses --      4.0270                 1.5058                 1.7573
 Frc consts  --      2.5061                 1.0118                 1.2169
 IR Inten    --      6.2332                 8.3546                 3.0927

                     37                     38                     39
                      A                      A                      A
 Frequencies --   1091.7081              1125.0206              1158.0780
 Red. masses --      1.3677                 1.8279                 1.8426
 Frc consts  --      0.9604                 1.3631                 1.4560
 IR Inten    --     17.5721                 2.9459                 9.6458

                     40                     41                     42
                      A                      A                      A
 Frequencies --   1161.7047              1190.4913              1229.9309
 Red. masses --      1.3118                 1.9550                 1.6906
 Frc consts  --      1.0431                 1.6325                 1.5068
 IR Inten    --      2.6992                51.8408                32.3425

                     43                     44                     45
                      A                      A                      A
 Frequencies --   1263.6731              1272.2314              1302.7344
 Red. masses --      1.4173                 1.3930                 1.5484
 Frc consts  --      1.3335                 1.3284                 1.5482
 IR Inten    --      4.8971                 2.6436                10.4753

                     46                     47                     48
                      A                      A                      A
 Frequencies --   1332.6658              1366.2485              1390.0056
 Red. masses --      3.9933                 1.5943                 1.4252
 Frc consts  --      4.1785                 1.7534                 1.6224
 IR Inten    --     13.4620                12.5971                17.3345

                     49                     50                     51
                      A                      A                      A
 Frequencies --   1406.4474              1414.0448              1424.2705
 Red. masses --      1.5262                 2.0002                 2.0274
 Frc consts  --      1.7787                 2.3564                 2.4232
 IR Inten    --      5.5569                39.4147                48.8631

                     52                     53                     54
                      A                      A                      A
 Frequencies --   1440.7343              1460.5756              1477.2435
 Red. masses --      1.3192                 3.1103                 1.2976
 Frc consts  --      1.6134                 3.9094                 1.6683
 IR Inten    --     15.2155                15.5512                 8.7451

                     55                     56                     57
                      A                      A                      A
 Frequencies --   1482.8498              1495.1595              1505.0818
 Red. masses --      1.1224                 1.0569                 1.0799
 Frc consts  --      1.4540                 1.3920                 1.4413
 IR Inten    --      7.2635                11.3065                18.6557

                     58                     59                     60
                      A                      A                      A
 Frequencies --   1505.3931              1506.2931              1521.1809
 Red. masses --      1.0564                 1.1121                 2.2664
 Frc consts  --      1.4106                 1.4866                 3.0899
 IR Inten    --      1.0043                 2.8339                 1.7449

                     61                     62                     63
                      A                      A                      A
 Frequencies --   1526.8425              1537.4026              1551.5702
 Red. masses --      1.0627                 1.0489                 1.3093
 Frc consts  --      1.4596                 1.4607                 1.8570
 IR Inten    --      5.9393                 5.6364                 8.0900

                     64                     65                     66
                      A                      A                      A
 Frequencies --   1577.9188              1814.2597              3007.7582
 Red. masses --      5.1662                10.1178                 1.0690
 Frc consts  --      7.5786                19.6217                 5.6977
 IR Inten    --     38.0090               126.7852                16.0094

                     67                     68                     69
                      A                      A                      A
 Frequencies --   3044.1620              3047.9486              3057.3324
 Red. masses --      1.0642                 1.0395                 1.0396
 Frc consts  --      5.8107                 5.6895                 5.7253
 IR Inten    --     26.1294                 3.5681                14.9250

                     70                     71                     72
                      A                      A                      A
 Frequencies --   3059.6298              3067.9510              3072.9172
 Red. masses --      1.0789                 1.0343                 1.0881
 Frc consts  --      5.9506                 5.7359                 6.0536
 IR Inten    --      4.3265                55.3100                31.4783

                     73                     74                     75
                      A                      A                      A
 Frequencies --   3095.4898              3106.7143              3121.3685
 Red. masses --      1.1007                 1.0987                 1.1013
 Frc consts  --      6.2139                 6.2480                 6.3216
 IR Inten    --     17.5371                12.6490                33.9734

                     76                     77                     78
                      A                      A                      A
 Frequencies --   3136.8952              3138.6443              3164.4890
 Red. masses --      1.1031                 1.1025                 1.1053
 Frc consts  --      6.3954                 6.3988                 6.5213
 IR Inten    --     15.7007                25.2429                 9.9596

                     79                     80                     81
                      A                      A                      A
 Frequencies --   3164.7202              3262.4159              3280.7002
 Red. masses --      1.1022                 1.0904                 1.1048
 Frc consts  --      6.5039                 6.8377                 7.0060
 IR Inten    --     13.8963                 3.0930                 2.9080

 - Thermochemistry -
 -------------------
 Temperature   298.150 Kelvin.  Pressure   1.00000 Atm.
 Atom     1 has atomic number  6 and mass  12.00000

 Molecular mass:   180.12626 amu.
 Principal axes and moments of inertia in atomic units:
                           1         2         3
     Eigenvalues --  1113.677054804.450035136.21855
           X            0.99994   0.00934  -0.00648
           Y           -0.00934   0.99996   0.00045
           Z            0.00649  -0.00039   0.99998
 This molecule is an asymmetric top.
 Rotational symmetry number  1.
 Warning -- assumption of classical behavior for rotation
           may cause significant error
 Rotational temperatures (Kelvin)      0.07777     0.01803     0.01686
 Rotational constants (GHZ):           1.62052     0.37564     0.35138
 Zero-point vibrational energy     658272.2 (Joules/Mol)
                                  157.33082 (Kcal/Mol)
 Warning -- explicit consideration of  19 degrees of freedom as
           vibrations may cause significant error
 Vibrational temperatures:     28.73    60.59    68.06    93.18   101.61
          (Kelvin)            156.10   178.57   245.83   266.49   333.47
                              338.85   432.50   472.23   520.57   601.99
                              623.58   691.39   742.92   867.86   895.97
                              924.26  1036.98  1080.10  1109.41  1179.53
                             1191.77  1213.42  1244.63  1332.67  1387.44
                             1413.65  1452.84  1472.46  1478.69  1536.51
                             1559.85  1570.72  1618.65  1666.22  1671.43
                             1712.85  1769.60  1818.14  1830.46  1874.34
                             1917.41  1965.73  1999.91  2023.56  2034.50
                             2049.21  2072.90  2101.44  2125.42  2133.49
                             2151.20  2165.48  2165.92  2167.22  2188.64
                             2196.79  2211.98  2232.36  2270.27  2610.32
                             4327.49  4379.87  4385.32  4398.82  4402.12
                             4414.10  4421.24  4453.72  4469.87  4490.95
                             4513.29  4515.81  4552.99  4553.33  4693.89
                             4720.20

 Zero-point correction=                           0.250723 (Hartree/Particle)
 Thermal correction to Energy=                    0.265095
 Thermal correction to Enthalpy=                  0.266039
 Thermal correction to Gibbs Free Energy=         0.207111
 Sum of electronic and zero-point Energies=           -575.212772
 Sum of electronic and thermal Energies=              -575.198399
 Sum of electronic and thermal Enthalpies=            -575.197455
 Sum of electronic and thermal Free Energies=         -575.256384

                     E (Thermal)             CV                S
                      KCal/Mol        Cal/Mol-Kelvin    Cal/Mol-Kelvin
 Total                  166.350             51.224            124.026
 Electronic               0.000              0.000              0.000
 Translational            0.889              2.981             41.472
 Rotational               0.889              2.981             31.686
 Vibrational            164.572             45.262             50.868
 Vibration     1          0.593              1.986              6.637
 Vibration     2          0.595              1.980              5.157
 Vibration     3          0.595              1.979              4.927
 Vibration     4          0.597              1.971              4.306
 Vibration     5          0.598              1.968              4.136
 Vibration     6          0.606              1.942              3.296
 Vibration     7          0.610              1.929              3.035
 Vibration     8          0.626              1.878              2.426
 Vibration     9          0.631              1.860              2.275
 Vibration    10          0.653              1.792              1.865
 Vibration    11          0.655              1.786              1.837
 Vibration    12          0.693              1.673              1.414
 Vibration    13          0.711              1.619              1.269
 Vibration    14          0.736              1.551              1.114
 Vibration    15          0.781              1.430              0.897
 Vibration    16          0.794              1.397              0.848
 Vibration    17          0.837              1.293              0.709
 Vibration    18          0.871              1.214              0.618
 Vibration    19          0.962              1.025              0.444

 Optimization completed.
    -- Stationary point found.
 Normal termination of Gaussian 16 at Wed Dec  9 22:44:28 2020.

 ----------------------------------------------------------------------
 # B3LYP/6-311++G(d,p) empiricaldispersion=gd3bj scf=xqc pop=npa geom=c
 heck
 ----------------------------------------------------------------------

 --------------------------------------
 CID_82870517_JID_3094_Energie_neutraal
 --------------------------------------
 Structure from the checkpoint file:  "JID_3094.chk"
 Charge =  0 Multiplicity = 1

 SCF Done:  E(RB3LYP) =  -575.624374966     A.U. after   14 cycles
 Normal termination of Gaussian 16 at Wed Dec  9 22:48:25 2020.

 ----------------------------------------------------------------------
 # B3LYP/6-311++G(d,p) empiricaldispersion=gd3bj scf=xqc pop=npa geom=c
 heck
 ----------------------------------------------------------------------

 ------------------------------------
 CID_82870517_JID_3094_Energie_kation
 ------------------------------------
 Structure from the checkpoint file:  "JID_3094.chk"
 Charge =  1 Multiplicity = 2

 SCF Done:  E(UB3LYP) =  -575.315287881     A.U. after   31 cycles
 Normal termination of Gaussian 16 at Wed Dec  9 22:59:51 2020.
 Gaussian 16:  ES64L-G16RevA.03 25-Dec-2016

 ----------------------------------------------------------------------
 # B3LYP/6-311++G(d,p) empiricaldispersion=gd3bj scf=xqc pop=npa geom=c
 heck
 ----------------------------------------------------------------------

 -----------------------------------
 CID_82870517_JID_3094_Energie_anion
 -----------------------------------
 Structure from the checkpoint file:  "JID_3094.chk"
 Charge = -1 Multiplicity = 2

                         Standard orientation:
 ---------------------------------------------------------------------
 Center     Atomic      Atomic             Coordinates (Angstroms)
 Number     Number       Type             X           Y           Z
 ---------------------------------------------------------------------
      1          6           0        0.891200   -1.675524    0.944508
      2          6           0        1.138319   -1.072260   -0.442590
      3          6           0       -0.141501   -1.092610   -1.314126
      4          6           0       -1.265996   -0.245251   -0.794509
      5          7           0       -2.181820   -0.760142    0.034882
      6          7           0       -3.005575    0.269027    0.339633
      7          6           0       -2.642464    1.421603   -0.281525
      8          6           0       -1.515373    1.131236   -1.026270
      9          6           0       -4.157904    0.031829    1.183026
     10          6           0        1.720426    0.341580   -0.338264
     11          6           0        3.147323    0.397794    0.190911
     12          8           0        3.865468   -0.583580    0.238956
     13          6           0        3.635673    1.761842    0.646221
     14          1           0        0.147688   -1.093157    1.499309
     15          1           0        1.820176   -1.708939    1.520856
     16          1           0        0.506422   -2.697743    0.859950
     17          1           0        1.885487   -1.691458   -0.953327
     18          1           0        0.114659   -0.762045   -2.328955
     19          1           0       -0.493392   -2.127316   -1.390843
     20          1           0       -3.206031    2.334567   -0.150720
     21          1           0       -0.951310    1.809685   -1.649873
     22          1           0       -4.899078   -0.582569    0.661697
     23          1           0       -3.843448   -0.486953    2.091822
     24          1           0       -4.605762    0.991813    1.448516
     25          1           0        1.744199    0.821984   -1.330210
     26          1           0        1.079320    0.987800    0.275801
     27          1           0        3.392981    2.535637   -0.091740
     28          1           0        3.125087    2.038640    1.577797
     29          1           0        4.712813    1.735063    0.822363
 ---------------------------------------------------------------------

 SCF Done:  E(UB3LYP) =  -575.614089215     A.U. after   33 cycles
 SCF Done:  E(UB3LYP) =  -575.614089215     a.u. after    1 cycles

 The electronic state is 2-A.
 Alpha  occ. eigenvalues --  -19.01798 -14.28975 -14.22387 -10.16620 -10.11289
 Alpha  occ. eigenvalues --  -10.10474 -10.09418 -10.08180 -10.07932 -10.07794
 Alpha  occ. eigenvalues --  -10.07698 -10.06251 -10.05731  -0.95086  -0.94920
 Alpha  occ. eigenvalues --   -0.75351  -0.71557  -0.68463  -0.66386  -0.62655
 Alpha  occ. eigenvalues --   -0.59901  -0.57567  -0.50558  -0.48389  -0.45254
 Alpha  occ. eigenvalues --   -0.43352  -0.41531  -0.38830  -0.37688  -0.37292
 Alpha  occ. eigenvalues --   -0.36182  -0.34616  -0.34159  -0.33325  -0.32386
 Alpha  occ. eigenvalues --   -0.31491  -0.30668  -0.29837  -0.29337  -0.28513
 Alpha  occ. eigenvalues --   -0.27329  -0.26080  -0.24674  -0.23739  -0.23262
 Alpha  occ. eigenvalues --   -0.19379  -0.15957  -0.15087  -0.14460   0.04062
 Alpha virt. eigenvalues --    0.05724   0.06765   0.07696   0.07796   0.08703
 Alpha virt. eigenvalues --    0.09044   0.09544   0.10435   0.10555   0.10711
 Alpha virt. eigenvalues --    0.11751   0.11831   0.12187   0.12730   0.13220

  Beta  occ. eigenvalues --  -19.01769 -14.28975 -14.22378 -10.16583 -10.11241
  Beta  occ. eigenvalues --  -10.10450 -10.09418 -10.08179 -10.07900 -10.07778
  Beta  occ. eigenvalues --  -10.07692 -10.06238 -10.05726  -0.95024  -0.94910
  Beta  occ. eigenvalues --   -0.75335  -0.71534  -0.68435  -0.66320  -0.62618
  Beta  occ. eigenvalues --   -0.59862  -0.57524  -0.50526  -0.48342  -0.45208
  Beta  occ. eigenvalues --   -0.43278  -0.41471  -0.38790  -0.37647  -0.37223
  Beta  occ. eigenvalues --   -0.36151  -0.34558  -0.34116  -0.33271  -0.32356
  Beta  occ. eigenvalues --   -0.31456  -0.30633  -0.29795  -0.29308  -0.28488
  Beta  occ. eigenvalues --   -0.27293  -0.25984  -0.24649  -0.23708  -0.23247
  Beta  occ. eigenvalues --   -0.19369  -0.15925  -0.15069  -0.14449
  Beta virt. eigenvalues --    0.06460   0.06841   0.07182   0.07949   0.08516
  Beta virt. eigenvalues --    0.08897   0.09781   0.10024   0.10645   0.10732
  Beta virt. eigenvalues --    0.11008   0.11995   0.12243   0.12405   0.12968

 Mulliken charges and spin densities:
               1          2
     1  C   -0.605704  -0.114930
     2  C    0.764451  -0.009816
     3  C   -0.224866  -0.606432
     4  C    0.454933  -0.766835
     5  N   -0.478610   0.372540
     6  N    0.196070  -0.032339
     7  C    0.247497  -0.434310
     8  C    0.240792  -0.107312
     9  C    1.097129  -1.371472
    10  C   -0.026008  -0.450924
    11  C   -0.547373   0.573764
    12  O   -0.260672   0.008610
    13  C    0.443574  -1.075998
    14  H    0.021818   0.148314
    15  H    0.126791   0.017558
    16  H    0.122831  -0.002967
    17  H    0.209969   0.025996
    18  H   -0.002767   0.151969
    19  H    0.145157   0.035587
    20  H   -1.224501   1.411208
    21  H   -0.527803   0.709310
    22  H   -0.218581   0.391435
    23  H   -0.106723   0.270971
    24  H   -0.661008   0.815719
    25  H   -0.133568   0.311506
    26  H    0.468871  -0.285610
    27  H   -0.409410   0.583231
    28  H   -0.062495   0.221582
    29  H   -0.049795   0.209642
 Sum of Mulliken charges =  -1.00000   1.00000

 Dipole moment (field-independent basis, Debye):
    X=              3.6089    Y=             -5.2856    Z=             -0.3176  Tot=              6.4081
 Quadrupole moment (field-independent basis, Debye-Ang):
   XX=           -174.3650   YY=           -127.0400   ZZ=           -109.1230
   XY=             11.2937   XZ=              8.1188   YZ=              3.2808

 Summary of Natural Population Analysis:

                                       Natural Population
                Natural  -----------------------------------------------
    Atom  No    Charge         Core      Valence    Rydberg      Total
 -----------------------------------------------------------------------
      C    1   -0.28784      0.99965     2.28332    0.00487     3.28784
      C    2   -0.10746      0.99960     2.09798    0.00988     3.10746
      C    3   -0.19971      0.99958     2.19102    0.00911     3.19971
      C    4    0.07073      0.99959     1.91360    0.01609     2.92927
      N    5   -0.16360      0.99969     2.65280    0.01111     3.66360
      N    6   -0.10652      0.99967     2.59391    0.01294     3.60652
      C    7   -0.00012      0.99955     1.98830    0.01227     3.00012
      C    8   -0.16393      0.99951     2.15496    0.00947     3.16393
      C    9   -0.17040      0.99963     2.16229    0.00848     3.17040
      C   10   -0.24326      0.99956     2.23444    0.00926     3.24326
      C   11    0.30328      0.99969     1.67637    0.02066     2.69672
      O   12   -0.29158      0.99987     3.28528    0.00643     4.29158
      C   13   -0.33460      0.99962     2.32964    0.00534     3.33460
      H   14    0.10237      0.00000     0.39664    0.00099     0.39763
      H   15    0.10220      0.00000     0.39700    0.00080     0.39780
      H   16    0.09769      0.00000     0.40152    0.00078     0.40231
      H   17    0.10131      0.00000     0.39701    0.00168     0.39869
      H   18    0.10256      0.00000     0.39645    0.00099     0.39744
      H   19    0.10595      0.00000     0.39301    0.00104     0.39405
      H   20    0.10800      0.00000     0.38884    0.00316     0.39200
      H   21    0.11109      0.00000     0.38745    0.00146     0.38891
      H   22    0.09841      0.00000     0.40021    0.00138     0.40159
      H   23    0.10181      0.00000     0.39689    0.00130     0.39819
      H   24    0.10516      0.00000     0.39170    0.00313     0.39484
      H   25    0.11580      0.00000     0.38221    0.00200     0.38420
      H   26    0.11170      0.00000     0.38675    0.00155     0.38830
      H   27    0.11296      0.00000     0.38467    0.00237     0.38704
      H   28    0.11061      0.00000     0.38840    0.00099     0.38939
      H   29    0.10739      0.00000     0.39165    0.00096     0.39261
 =======================================================================
   * Total *   -0.00000     12.99520    35.84432    0.16047    49.00000

 Normal termination of Gaussian 16 at Wed Dec  9 23:09:47 2020.
