 Gaussian 16, Revision A.03,

 -----------------------------------------------------------
 # opt freq B3LYP/6-31G(d) empiricaldispersion=gd3bj scf=xqc
 -----------------------------------------------------------

 -----------------------------
 CID_53420638_JID_325_neutraal
 -----------------------------
 Symbolic Z-matrix:
 Charge =  0 Multiplicity = 1

 SCF Done:  E(RB3LYP) =  -463.665910045     A.U. after   13 cycles
 SCF Done:  E(RB3LYP) =  -463.669138125     A.U. after   12 cycles
 SCF Done:  E(RB3LYP) =  -463.669621904     A.U. after   12 cycles
 SCF Done:  E(RB3LYP) =  -463.670323829     A.U. after   10 cycles
 SCF Done:  E(RB3LYP) =  -463.670931751     A.U. after   11 cycles
 SCF Done:  E(RB3LYP) =  -463.671771058     A.U. after   12 cycles
 SCF Done:  E(RB3LYP) =  -463.672356133     A.U. after   11 cycles
 SCF Done:  E(RB3LYP) =  -463.672880168     A.U. after   11 cycles
 SCF Done:  E(RB3LYP) =  -463.673029311     A.U. after   11 cycles
 SCF Done:  E(RB3LYP) =  -463.673089495     A.U. after   10 cycles
 SCF Done:  E(RB3LYP) =  -463.673117561     A.U. after    9 cycles
 SCF Done:  E(RB3LYP) =  -463.673118613     A.U. after    7 cycles
 SCF Done:  E(RB3LYP) =  -463.673119371     A.U. after    8 cycles
 SCF Done:  E(RB3LYP) =  -463.673119838     A.U. after    8 cycles
 SCF Done:  E(RB3LYP) =  -463.673120065     A.U. after    7 cycles
 SCF Done:  E(RB3LYP) =  -463.673120157     A.U. after    7 cycles
 Optimization completed.
    -- Stationary point found.

 1\1\GINC-NODE102\FOpt\RB3LYP\6-31G(d)\C8H14O2\VSC10255\08-Dec-2020\0\\
 # opt freq B3LYP/6-31G(d) empiricaldispersion=gd3bj scf=xqc\\CID_53420
 638_JID_325_neutraal\\0,1\C,1.2056066649,-0.0758816981,-0.1765118919\O
 ,1.2823007104,0.8723428352,0.8794844069\C,1.4398073741,0.400783808,2.2
 07157756\C,0.8266967977,-0.9603976049,2.4378997352\C,1.3655139616,-1.9
 068162801,3.2090527206\C,0.7946058941,-3.2525374321,3.4664262038\C,-0.
 3116639288,-3.8385175629,2.6279171267\C,1.0844760896,-4.3907061286,2.4
 999987175\O,2.7788686784,0.4884411109,2.6569080615\C,3.7629454492,-0.0

 Normal termination of Gaussian 16 at Tue Dec  8 10:25:49 2020.

 --------------------------------------------------------------------
 #N Geom=AllCheck Guess=TCheck SCRF=Check GenChk RB3LYP/6-31G(d) Freq
 --------------------------------------------------------------------

 Structure from the checkpoint file:  "JID_325.chk"
 -----------------------------
 CID_53420638_JID_325_neutraal
 -----------------------------
 Charge =  0 Multiplicity = 1

 SCF Done:  E(RB3LYP) =  -463.673120157     A.U. after    1 cycles

  Exact polarizability: 105.762  -4.492  86.130   1.768  -2.589  73.596
 Approx polarizability: 133.911 -12.367 127.026   7.749  -5.164 107.121

                      1                      2                      3
                      A                      A                      A
 Frequencies --     39.5691                80.6732                90.6020
 Red. masses --      2.6444                 3.3357                 2.3463
 Frc consts  --      0.0024                 0.0128                 0.0113
 IR Inten    --      0.3152                 0.5076                 1.2383

                      4                      5                      6
                      A                      A                      A
 Frequencies --    114.3061               155.9962               166.8526
 Red. masses --      1.1459                 3.0456                 3.3297
 Frc consts  --      0.0088                 0.0437                 0.0546
 IR Inten    --      0.2137                 3.4552                 5.8049

                      7                      8                      9
                      A                      A                      A
 Frequencies --    172.8584               230.4586               259.1417
 Red. masses --      2.6133                 1.4124                 2.0592
 Frc consts  --      0.0460                 0.0442                 0.0815
 IR Inten    --      0.8472                 0.2293                 4.1137

                     10                     11                     12
                      A                      A                      A
 Frequencies --    292.9828               332.3674               398.0590
 Red. masses --      3.2738                 2.7489                 2.6718
 Frc consts  --      0.1656                 0.1789                 0.2494
 IR Inten    --      6.3229                 0.8206                 2.2922

                     13                     14                     15
                      A                      A                      A
 Frequencies --    456.6319               504.6231               569.7523
 Red. masses --      3.7347                 4.2821                 3.6709
 Frc consts  --      0.4588                 0.6424                 0.7021
 IR Inten    --      4.4502                 0.9919                 1.2567

                     16                     17                     18
                      A                      A                      A
 Frequencies --    746.1650               794.5807               805.4881
 Red. masses --      2.0317                 1.5316                 1.7967
 Frc consts  --      0.6665                 0.5697                 0.6868
 IR Inten    --      8.5739                 9.7620                 1.6714

                     19                     20                     21
                      A                      A                      A
 Frequencies --    826.0887               847.6178               922.0955
 Red. masses --      1.8196                 1.8423                 3.9768
 Frc consts  --      0.7316                 0.7799                 1.9922
 IR Inten    --     10.5457                 8.5328                19.9512

                     22                     23                     24
                      A                      A                      A
 Frequencies --    940.1787               944.7528              1025.1620
 Red. masses --      2.9641                 3.8902                 1.2721
 Frc consts  --      1.5437                 2.0458                 0.7877
 IR Inten    --     13.4873                47.3380                16.9710

                     25                     26                     27
                      A                      A                      A
 Frequencies --   1034.2886              1046.8044              1064.5018
 Red. masses --      2.2485                 2.2634                 1.3305
 Frc consts  --      1.4172                 1.4613                 0.8883
 IR Inten    --      3.8331                31.9099                 9.7605

                     28                     29                     30
                      A                      A                      A
 Frequencies --   1087.8599              1112.0610              1130.5339
 Red. masses --      1.3719                 3.2540                 1.5432
 Frc consts  --      0.9566                 2.3710                 1.1621
 IR Inten    --      5.9154               154.8978                43.7001

                     31                     32                     33
                      A                      A                      A
 Frequencies --   1142.0213              1173.7014              1187.9980
 Red. masses --      1.2712                 1.8945                 1.2973
 Frc consts  --      0.9768                 1.5376                 1.0787
 IR Inten    --      9.2820                73.0390                 3.5100

                     34                     35                     36
                      A                      A                      A
 Frequencies --   1195.1759              1211.1730              1224.2539
 Red. masses --      1.9988                 1.3869                 1.4692
 Frc consts  --      1.6823                 1.1987                 1.2974
 IR Inten    --     80.5189                 1.9764                24.2249

                     37                     38                     39
                      A                      A                      A
 Frequencies --   1234.9007              1239.7763              1307.6533
 Red. masses --      1.5789                 1.8518                 1.4188
 Frc consts  --      1.4187                 1.6770                 1.4294
 IR Inten    --     23.1423                 4.2601                16.6112

                     40                     41                     42
                      A                      A                      A
 Frequencies --   1343.0906              1374.4390              1416.0658
 Red. masses --      1.2755                 1.3854                 1.2403
 Frc consts  --      1.3556                 1.5420                 1.4654
 IR Inten    --      2.9576                67.7960                 3.4905

                     43                     44                     45
                      A                      A                      A
 Frequencies --   1424.8278              1492.3585              1493.4748
 Red. masses --      1.5859                 1.1256                 1.1247
 Frc consts  --      1.8970                 1.4770                 1.4781
 IR Inten    --      2.6889                 0.6600                 2.6206

                     46                     47                     48
                      A                      A                      A
 Frequencies --   1499.7073              1521.1953              1524.0253
 Red. masses --      1.1154                 1.0664                 1.0591
 Frc consts  --      1.4781                 1.4540                 1.4493
 IR Inten    --      1.0386                 1.2485                 4.3383

                     49                     50                     51
                      A                      A                      A
 Frequencies --   1532.8091              1535.2155              1551.9260
 Red. masses --      1.3275                 1.0713                 1.0494
 Frc consts  --      1.8376                 1.4876                 1.4892
 IR Inten    --      0.8282                10.2945                 7.3839

                     52                     53                     54
                      A                      A                      A
 Frequencies --   1750.9073              3025.2641              3029.1741
 Red. masses --      6.2870                 1.0364                 1.0386
 Frc consts  --     11.3559                 5.5886                 5.6148
 IR Inten    --     21.6940                25.2885                67.6372

                     55                     56                     57
                      A                      A                      A
 Frequencies --   3061.6330              3089.5632              3091.5655
 Red. masses --      1.0854                 1.1011                 1.0981
 Frc consts  --      5.9942                 6.1928                 6.1836
 IR Inten    --     36.3118                38.3830                56.3571

                     58                     59                     60
                      A                      A                      A
 Frequencies --   3135.8142              3139.5406              3140.9727
 Red. masses --      1.1027                 1.0862                 1.1009
 Frc consts  --      6.3884                 6.3079                 6.3992
 IR Inten    --     48.2409                12.8692                28.7574

                     61                     62                     63
                      A                      A                      A
 Frequencies --   3148.1067              3156.3192              3169.2288
 Red. masses --      1.0528                 1.0586                 1.0890
 Frc consts  --      6.1472                 6.2135                 6.4442
 IR Inten    --     20.7110                 9.0458                 6.0833

                     64                     65                     66
                      A                      A                      A
 Frequencies --   3176.1588              3225.5347              3239.6036
 Red. masses --      1.0868                 1.1196                 1.1162
 Frc consts  --      6.4594                 6.8632                 6.9018
 IR Inten    --     22.3451                 0.4404                25.8535

 - Thermochemistry -
 -------------------
 Temperature   298.150 Kelvin.  Pressure   1.00000 Atm.
 Atom     1 has atomic number  6 and mass  12.00000

 Molecular mass:   142.09938 amu.
 Principal axes and moments of inertia in atomic units:
                           1         2         3
     Eigenvalues --   831.181512470.545062759.89655
           X            0.99992   0.00119  -0.01222
           Y           -0.00137   0.99989  -0.01475
           Z            0.01220   0.01477   0.99982
 This molecule is an asymmetric top.
 Rotational symmetry number  1.
 Warning -- assumption of classical behavior for rotation
           may cause significant error
 Rotational temperatures (Kelvin)      0.10421     0.03506     0.03138
 Rotational constants (GHZ):           2.17130     0.73050     0.65392
 Zero-point vibrational energy     552664.1 (Joules/Mol)
                                  132.08990 (Kcal/Mol)
 Warning -- explicit consideration of  15 degrees of freedom as
           vibrations may cause significant error
 Vibrational temperatures:     56.93   116.07   130.36   164.46   224.44
          (Kelvin)            240.06   248.70   331.58   372.85   421.54
                              478.20   572.72   656.99   726.04   819.75
                             1073.57  1143.22  1158.92  1188.56  1219.53
                             1326.69  1352.71  1359.29  1474.98  1488.11
                             1506.12  1531.58  1565.19  1600.01  1626.59
                             1643.11  1688.69  1709.26  1719.59  1742.61
                             1761.43  1776.75  1783.76  1881.42  1932.41
                             1977.51  2037.40  2050.01  2147.17  2148.78
                             2157.74  2188.66  2192.73  2205.37  2208.83
                             2232.88  2519.17  4352.68  4358.31  4405.01
                             4445.19  4448.07  4511.74  4517.10  4519.16
                             4529.42  4541.24  4559.81  4569.78  4640.83
                             4661.07

 Zero-point correction=                           0.210499 (Hartree/Particle)
 Thermal correction to Energy=                    0.221982
 Thermal correction to Enthalpy=                  0.222926
 Thermal correction to Gibbs Free Energy=         0.172604
 Sum of electronic and zero-point Energies=           -463.462622
 Sum of electronic and thermal Energies=              -463.451139
 Sum of electronic and thermal Enthalpies=            -463.450194
 Sum of electronic and thermal Free Energies=         -463.500516

                     E (Thermal)             CV                S
                      KCal/Mol        Cal/Mol-Kelvin    Cal/Mol-Kelvin
 Total                  139.296             41.006            105.911
 Electronic               0.000              0.000              0.000
 Translational            0.889              2.981             40.765
 Rotational               0.889              2.981             30.117
 Vibrational            137.518             35.044             35.028
 Vibration     1          0.594              1.981              5.281
 Vibration     2          0.600              1.962              3.874
 Vibration     3          0.602              1.956              3.647
 Vibration     4          0.607              1.938              3.194
 Vibration     5          0.620              1.896              2.598
 Vibration     6          0.624              1.883              2.471
 Vibration     7          0.626              1.876              2.404
 Vibration     8          0.652              1.794              1.875
 Vibration     9          0.668              1.747              1.668
 Vibration    10          0.688              1.687              1.457
 Vibration    11          0.714              1.611              1.249
 Vibration    12          0.764              1.474              0.970
 Vibration    13          0.815              1.346              0.776
 Vibration    14          0.860              1.240              0.647
 Vibration    15          0.926              1.097              0.505

 Optimization completed.
    -- Stationary point found.

 1\1\GINC-NODE102\Freq\RB3LYP\6-31G(d)\C8H14O2\VSC10255\08-Dec-2020\0\\
 #N Geom=AllCheck Guess=TCheck SCRF=Check GenChk RB3LYP/6-31G(d) Freq\\
 CID_53420638_JID_325_neutraal\\0,1\C,1.2056066649,-0.0758816981,-0.176
 5118919\O,1.2823007104,0.8723428352,0.8794844069\C,1.4398073741,0.4007
 83808,2.207157756\C,0.8266967977,-0.9603976049,2.4378997352\C,1.365513
 9616,-1.9068162801,3.2090527206\C,0.7946058941,-3.2525374321,3.4664262
 038\C,-0.3116639288,-3.8385175629,2.6279171267\C,1.0844760896,-4.39070
 61286,2.4999987175\O,2.7788686784,0.4884411109,2.6569080615\C,3.762945

 Normal termination of Gaussian 16 at Tue Dec  8 10:30:11 2020.

 ----------------------------------------------------------------------
 # B3LYP/6-311++G(d,p) empiricaldispersion=gd3bj scf=xqc pop=npa geom=c
 heck
 ----------------------------------------------------------------------

 -------------------------------------
 CID_53420638_JID_325_Energie_neutraal
 -------------------------------------
 Structure from the checkpoint file:  "JID_325.chk"
 Charge =  0 Multiplicity = 1

 SCF Done:  E(RB3LYP) =  -463.809452963     A.U. after   14 cycles
 Normal termination of Gaussian 16 at Tue Dec  8 10:32:34 2020.

 ----------------------------------------------------------------------
 # B3LYP/6-311++G(d,p) empiricaldispersion=gd3bj scf=xqc pop=npa geom=c
 heck
 ----------------------------------------------------------------------

 -----------------------------------
 CID_53420638_JID_325_Energie_kation
 -----------------------------------
 Structure from the checkpoint file:  "JID_325.chk"
 Charge =  1 Multiplicity = 2

 SCF Done:  E(UB3LYP) =  -463.488042185     A.U. after   23 cycles
 Normal termination of Gaussian 16 at Tue Dec  8 10:38:51 2020.
 Gaussian 16:  ES64L-G16RevA.03 25-Dec-2016

 ----------------------------------
 CID_53420638_JID_325_Energie_anion
 ----------------------------------
 Structure from the checkpoint file:  "JID_325.chk"
 Charge = -1 Multiplicity = 2

                         Standard orientation:
 ---------------------------------------------------------------------
 Center     Atomic      Atomic             Coordinates (Angstroms)
 Number     Number       Type             X           Y           Z
 ---------------------------------------------------------------------
      1          6           0       -1.666798    1.800942    0.730614
      2          8           0       -2.188791    1.038806   -0.349576
      3          6           0       -1.403937   -0.016111   -0.879717
      4          6           0        0.082854    0.217708   -0.750325
      5          6           0        0.972294   -0.736290   -0.468380
      6          6           0        2.439159   -0.550752   -0.337897
      7          6           0        3.075339    0.807160   -0.190745
      8          6           0        3.027662   -0.119313    0.996629
      9          8           0       -1.808750   -1.284832   -0.400638
     10          6           0       -1.944600   -1.406202    1.006166
     11          1           0       -2.522843    2.312949    1.178242
     12          1           0       -0.947070    2.556896    0.388348
     13          1           0       -1.182870    1.184101    1.496165
     14          1           0       -1.676467   -0.050282   -1.941082
     15          1           0        0.414903    1.229579   -0.973829
     16          1           0        0.604631   -1.748072   -0.303166
     17          1           0        3.029632   -1.296284   -0.869249
     18          1           0        4.031272    0.973471   -0.678576
     19          1           0        2.430992    1.680775   -0.173912
     20          1           0        2.324558    0.117787    1.790055
     21          1           0        3.946913   -0.591401    1.331796
     22          1           0       -1.011025   -1.174953    1.537282
     23          1           0       -2.745017   -0.759994    1.385317
     24          1           0       -2.209125   -2.449223    1.196246
 ---------------------------------------------------------------------

 SCF Done:  E(UB3LYP) =  -463.792606992     A.U. after   31 cycles

 The electronic state is 2-A.
 Alpha  occ. eigenvalues --  -19.03055 -19.02755 -10.17368 -10.10965 -10.10916
 Alpha  occ. eigenvalues --  -10.08011 -10.07624 -10.06851 -10.06807 -10.06777
 Alpha  occ. eigenvalues --   -0.96935  -0.91103  -0.76153  -0.68412  -0.63433
 Alpha  occ. eigenvalues --   -0.58355  -0.55104  -0.49945  -0.48763  -0.44305
 Alpha  occ. eigenvalues --   -0.41572  -0.40712  -0.39882  -0.37910  -0.36644
 Alpha  occ. eigenvalues --   -0.33486  -0.33074  -0.32519  -0.29666  -0.28951
 Alpha  occ. eigenvalues --   -0.27195  -0.26248  -0.23218  -0.22578  -0.21692
 Alpha  occ. eigenvalues --   -0.19581  -0.17862  -0.16892  -0.14644   0.04741
 Alpha virt. eigenvalues --    0.06706   0.07527   0.08095   0.09057   0.09501
 Alpha virt. eigenvalues --    0.09678   0.10162   0.10579   0.11791   0.12510
 Alpha virt. eigenvalues --    0.12838   0.13858   0.14231   0.14829   0.15913

  Beta  occ. eigenvalues --  -19.03045 -19.02750 -10.17367 -10.10924 -10.10886
  Beta  occ. eigenvalues --  -10.08000 -10.07623 -10.06816 -10.06782 -10.06749
  Beta  occ. eigenvalues --   -0.96917  -0.91083  -0.76126  -0.68382  -0.63397
  Beta  occ. eigenvalues --   -0.58296  -0.55056  -0.49853  -0.48706  -0.44260
  Beta  occ. eigenvalues --   -0.41538  -0.40689  -0.39842  -0.37868  -0.36586
  Beta  occ. eigenvalues --   -0.33453  -0.33035  -0.32483  -0.29634  -0.28916
  Beta  occ. eigenvalues --   -0.27160  -0.26206  -0.23187  -0.22542  -0.21661
  Beta  occ. eigenvalues --   -0.19543  -0.17839  -0.16869  -0.14589
  Beta virt. eigenvalues --    0.07187   0.07939   0.08209   0.08390   0.09645
  Beta virt. eigenvalues --    0.10031   0.10115   0.10619   0.11391   0.12220
  Beta virt. eigenvalues --    0.12964   0.13195   0.14236   0.14466   0.15106

 Mulliken charges and spin densities:
               1          2
     1  C    0.976593  -1.298054
     2  O   -0.125313   0.027376
     3  C   -1.379488   0.525675
     4  C    0.586609  -0.243920
     5  C    1.003009  -0.990840
     6  C   -1.969388   1.904671
     7  C    1.082388  -1.375006
     8  C    1.380272  -1.916737
     9  O   -0.105848   0.008932
    10  C    0.566534  -0.850016
    11  H   -0.381101   0.523603
    12  H   -0.267526   0.406729
    13  H   -0.222854   0.389675
    14  H    0.027415   0.167311
    15  H   -0.094987   0.220334
    16  H    0.189006  -0.013713
    17  H   -0.779786   1.008457
    18  H   -0.525356   0.688414
    19  H    0.002519   0.106568
    20  H   -0.237785   0.387666
    21  H   -0.282143   0.431123
    22  H   -0.145854   0.297914
    23  H   -0.173043   0.324358
    24  H   -0.123870   0.269481
 Sum of Mulliken charges =  -1.00000   1.00000

 Dipole moment (field-independent basis, Debye):
    X=             -4.0659    Y=             -1.2875    Z=             -2.8374  Tot=              5.1225
 Quadrupole moment (field-independent basis, Debye-Ang):
   XX=           -138.9235   YY=           -100.1064   ZZ=            -96.6380
   XY=              3.7645   XZ=              3.7150   YZ=             -4.0201

 Summary of Natural Population Analysis:

                                       Natural Population
                Natural  -----------------------------------------------
    Atom  No    Charge         Core      Valence    Rydberg      Total
 -----------------------------------------------------------------------
      C    1   -0.10499      0.99960     2.09519    0.01020     3.10499
      O    2   -0.30280      0.99988     3.29400    0.00892     4.30280
      C    3    0.21284      0.99955     1.76791    0.01971     2.78716
      C    4   -0.12873      0.99949     2.12055    0.00869     3.12873
      C    5   -0.07638      0.99950     2.06615    0.01074     3.07638
      C    6   -0.13436      0.99959     2.12265    0.01212     3.13436
      C    7   -0.19693      0.99962     2.18743    0.00987     3.19693
      C    8   -0.18720      0.99962     2.17859    0.00899     3.18720
      O    9   -0.30316      0.99988     3.29425    0.00903     4.30316
      C   10   -0.10806      0.99960     2.09802    0.01044     3.10806
      H   11    0.09185      0.00000     0.40690    0.00125     0.40815
      H   12    0.08244      0.00000     0.41590    0.00166     0.41756
      H   13    0.08695      0.00000     0.41073    0.00232     0.41305
      H   14    0.08649      0.00000     0.41203    0.00148     0.41351
      H   15    0.09988      0.00000     0.39871    0.00141     0.40012
      H   16    0.10061      0.00000     0.39787    0.00152     0.39939
      H   17    0.10801      0.00000     0.39036    0.00162     0.39199
      H   18    0.10531      0.00000     0.39292    0.00178     0.39469
      H   19    0.10230      0.00000     0.39640    0.00130     0.39770
      H   20    0.10384      0.00000     0.39458    0.00158     0.39616
      H   21    0.10359      0.00000     0.39415    0.00226     0.39641
      H   22    0.08410      0.00000     0.41425    0.00165     0.41590
      H   23    0.08517      0.00000     0.41344    0.00139     0.41483
      H   24    0.08924      0.00000     0.40970    0.00105     0.41076
 =======================================================================
   * Total *    0.00000      9.99634    28.87268    0.13098    39.00000

 Normal termination of Gaussian 16 at Tue Dec  8 10:47:54 2020.
