 Gaussian 16, Revision A.03,

 -----------------------------------------------------------
 # opt freq B3LYP/6-31G(d) empiricaldispersion=gd3bj scf=xqc
 -----------------------------------------------------------

 ------------------------------
 CID_79821818_JID_7536_neutraal
 ------------------------------
 Symbolic Z-matrix:
 Charge =  0 Multiplicity = 1

 SCF Done:  E(RB3LYP) =  -741.337856806     A.U. after   15 cycles
 SCF Done:  E(RB3LYP) =  -741.343579611     A.U. after   12 cycles
 SCF Done:  E(RB3LYP) =  -741.344650848     A.U. after   11 cycles
 SCF Done:  E(RB3LYP) =  -741.345296518     A.U. after   12 cycles
 SCF Done:  E(RB3LYP) =  -741.345567939     A.U. after   12 cycles
 SCF Done:  E(RB3LYP) =  -741.345841725     A.U. after   12 cycles
 SCF Done:  E(RB3LYP) =  -741.345924152     A.U. after   10 cycles
 SCF Done:  E(RB3LYP) =  -741.345941876     A.U. after    8 cycles
 SCF Done:  E(RB3LYP) =  -741.345963384     A.U. after   10 cycles
 SCF Done:  E(RB3LYP) =  -741.345967559     A.U. after    8 cycles
 SCF Done:  E(RB3LYP) =  -741.345969047     A.U. after    8 cycles
 SCF Done:  E(RB3LYP) =  -741.345969181     A.U. after    7 cycles
 Optimization completed.
    -- Stationary point found.
 Normal termination of Gaussian 16 at Sun Dec 13 12:27:29 2020.

 --------------------------------------------------------------------
 #N Geom=AllCheck Guess=TCheck SCRF=Check GenChk RB3LYP/6-31G(d) Freq
 --------------------------------------------------------------------

 Structure from the checkpoint file:  "JID_7536.chk"
 ------------------------------
 CID_79821818_JID_7536_neutraal
 ------------------------------
 Charge =  0 Multiplicity = 1

 SCF Done:  E(RB3LYP) =  -741.345969181     A.U. after    1 cycles

  Exact polarizability: 250.985   6.517 139.806   0.572  -0.630  98.652
 Approx polarizability: 331.072  11.319 248.474  -2.116  -1.163 143.625

                      1                      2                      3
                      A                      A                      A
 Frequencies --     13.3678                57.7673                85.8029
 Red. masses --      4.3139                 3.4288                 4.3048
 Frc consts  --      0.0005                 0.0067                 0.0187
 IR Inten    --      0.9999                 5.5255                 0.0705

                      4                      5                      6
                      A                      A                      A
 Frequencies --     92.1338               142.1222               162.7365
 Red. masses --      3.5206                 2.6228                 3.1929
 Frc consts  --      0.0176                 0.0312                 0.0498
 IR Inten    --      2.8809                 3.2363                 6.8395

                      7                      8                      9
                      A                      A                      A
 Frequencies --    192.5116               222.9460               230.5614
 Red. masses --      2.1721                 2.5292                 2.7511
 Frc consts  --      0.0474                 0.0741                 0.0862
 IR Inten    --      0.7258                 0.4890                 4.3915

                     10                     11                     12
                      A                      A                      A
 Frequencies --    248.3391               272.1935               361.3123
 Red. masses --      2.9419                 2.3866                 3.7722
 Frc consts  --      0.1069                 0.1042                 0.2901
 IR Inten    --      1.2383                 3.0960                 1.1815

                     13                     14                     15
                      A                      A                      A
 Frequencies --    378.7893               389.0247               398.2366
 Red. masses --      2.2401                 2.0920                 2.6434
 Frc consts  --      0.1894                 0.1865                 0.2470
 IR Inten    --     46.1983                 5.0800                12.5582

                     16                     17                     18
                      A                      A                      A
 Frequencies --    422.6051               449.2876               459.0619
 Red. masses --      2.8528                 2.2046                 3.5752
 Frc consts  --      0.3002                 0.2622                 0.4439
 IR Inten    --      4.1397                32.8151                35.8952

                     19                     20                     21
                      A                      A                      A
 Frequencies --    480.2401               496.6794               533.8432
 Red. masses --      2.8847                 3.0238                 2.0015
 Frc consts  --      0.3920                 0.4395                 0.3361
 IR Inten    --      2.7878                55.1971                40.1120

                     22                     23                     24
                      A                      A                      A
 Frequencies --    549.5267               628.3578               669.6647
 Red. masses --      2.2024                 4.1266                 2.9577
 Frc consts  --      0.3919                 0.9600                 0.7815
 IR Inten    --     38.1639                12.0851                15.5175

                     25                     26                     27
                      A                      A                      A
 Frequencies --    692.0668               733.7010               752.4350
 Red. masses --      2.9104                 2.6101                 5.6557
 Frc consts  --      0.8213                 0.8278                 1.8866
 IR Inten    --      7.4017                36.2167                 2.0590

                     28                     29                     30
                      A                      A                      A
 Frequencies --    782.1393               782.5861               802.5455
 Red. masses --      5.2791                 8.5170                 1.8171
 Frc consts  --      1.9027                 3.0733                 0.6896
 IR Inten    --      1.6222                 4.5106                35.2190

                     31                     32                     33
                      A                      A                      A
 Frequencies --    809.5067               822.2015               838.8852
 Red. masses --      1.9245                 1.5732                 4.2483
 Frc consts  --      0.7430                 0.6266                 1.7615
 IR Inten    --     71.0631                 0.9064                 0.1591

                     34                     35                     36
                      A                      A                      A
 Frequencies --    872.0963               893.3095               924.4438
 Red. masses --      3.5097                 2.4289                 2.2900
 Frc consts  --      1.5727                 1.1420                 1.1531
 IR Inten    --      4.8443                 0.0004                 1.4012

                     37                     38                     39
                      A                      A                      A
 Frequencies --    932.2659               971.8119              1006.4911
 Red. masses --      1.2793                 5.0659                 4.6765
 Frc consts  --      0.6551                 2.8189                 2.7912
 IR Inten    --      1.7532                 0.9679                 3.5634

                     40                     41                     42
                      A                      A                      A
 Frequencies --   1039.8754              1067.5286              1071.9783
 Red. masses --      1.4729                 2.4599                 1.7154
 Frc consts  --      0.9384                 1.6517                 1.1614
 IR Inten    --      0.2565                15.3857                11.4253

                     43                     44                     45
                      A                      A                      A
 Frequencies --   1097.6554              1102.6815              1106.9164
 Red. masses --      1.7428                 1.6940                 1.9502
 Frc consts  --      1.2372                 1.2136                 1.4079
 IR Inten    --     10.5755                 3.3849                 3.1871

                     46                     47                     48
                      A                      A                      A
 Frequencies --   1153.5890              1157.5167              1165.3648
 Red. masses --      3.1609                 1.4348                 1.3175
 Frc consts  --      2.4783                 1.1327                 1.0542
 IR Inten    --     13.6278                20.4529                 4.6770

                     49                     50                     51
                      A                      A                      A
 Frequencies --   1202.0879              1202.8297              1214.0030
 Red. masses --      1.2493                 2.1629                 1.0895
 Frc consts  --      1.0636                 1.8438                 0.9461
 IR Inten    --      2.7424                20.2331                12.5591

                     52                     53                     54
                      A                      A                      A
 Frequencies --   1215.1434              1245.3443              1275.9016
 Red. masses --      1.7142                 3.4111                 1.3187
 Frc consts  --      1.4913                 3.1169                 1.2649
 IR Inten    --     50.0973                28.7790                 4.4058

                     55                     56                     57
                      A                      A                      A
 Frequencies --   1314.0283              1324.0246              1340.1655
 Red. masses --      3.6352                 1.2582                 1.4170
 Frc consts  --      3.6982                 1.2995                 1.4995
 IR Inten    --    123.6892                42.7093                 0.2689

                     58                     59                     60
                      A                      A                      A
 Frequencies --   1362.0372              1363.4930              1364.8650
 Red. masses --      2.1583                 1.9934                 1.3323
 Frc consts  --      2.3591                 2.1835                 1.4623
 IR Inten    --      1.4081               104.0017                25.7499

                     61                     62                     63
                      A                      A                      A
 Frequencies --   1389.5925              1402.8370              1408.7224
 Red. masses --      1.3268                 1.4560                 4.8319
 Frc consts  --      1.5095                 1.6882                 5.6497
 IR Inten    --     11.8025                61.7396                 1.6993

                     64                     65                     66
                      A                      A                      A
 Frequencies --   1427.6245              1446.6161              1449.0021
 Red. masses --      3.7674                 1.6295                 1.9327
 Frc consts  --      4.5240                 2.0091                 2.3908
 IR Inten    --    147.1467                 3.4780                30.1936

                     67                     68                     69
                      A                      A                      A
 Frequencies --   1470.7379              1497.8834              1501.1634
 Red. masses --      1.9837                 1.1332                 1.4416
 Frc consts  --      2.5281                 1.4980                 1.9141
 IR Inten    --    106.3802                 6.6414                12.5188

                     70                     71                     72
                      A                      A                      A
 Frequencies --   1507.5752              1513.0715              1514.5646
 Red. masses --      1.2344                 1.1175                 1.0571
 Frc consts  --      1.6530                 1.5073                 1.4287
 IR Inten    --      0.0047                13.1327                 6.5012

                     73                     74                     75
                      A                      A                      A
 Frequencies --   1536.5805              1546.2251              1550.5543
 Red. masses --      1.1093                 1.1134                 1.1050
 Frc consts  --      1.5431                 1.5684                 1.5653
 IR Inten    --      0.7889                13.5065                20.3493

                     76                     77                     78
                      A                      A                      A
 Frequencies --   1569.7713              1591.5658              1638.3183
 Red. masses --      3.0136                 3.7579                 6.1420
 Frc consts  --      4.3753                 5.6085                 9.7130
 IR Inten    --     19.4869               224.2048               228.7536

                     79                     80                     81
                      A                      A                      A
 Frequencies --   1683.1000              2899.1119              2908.7354
 Red. masses --      7.1848                 1.0741                 1.0721
 Frc consts  --     11.9919                 5.3190                 5.3444
 IR Inten    --     69.8273                24.7586               213.7207

                     82                     83                     84
                      A                      A                      A
 Frequencies --   2994.7721              3058.4262              3059.6958
 Red. masses --      1.0534                 1.0611                 1.0627
 Frc consts  --      5.5664                 5.8481                 5.8617
 IR Inten    --     98.8608                11.2569                25.7360

                     85                     86                     87
                      A                      A                      A
 Frequencies --   3068.9033              3084.6258              3085.7344
 Red. masses --      1.0875                 1.0853                 1.0863
 Frc consts  --      6.0345                 6.0845                 6.0941
 IR Inten    --     47.5281                67.5220                44.2199

                     88                     89                     90
                      A                      A                      A
 Frequencies --   3097.8064              3105.6822              3107.4319
 Red. masses --      1.0852                 1.1047                 1.1043
 Frc consts  --      6.1359                 6.2777                 6.2825
 IR Inten    --      8.5301                15.4175                51.7865

                     91                     92                     93
                      A                      A                      A
 Frequencies --   3139.6976              3193.3254              3229.5748
 Red. masses --      1.0974                 1.0903                 1.0921
 Frc consts  --      6.3736                 6.5505                 6.7110
 IR Inten    --     26.5221                12.3899                13.1042

                     94                     95                     96
                      A                      A                      A
 Frequencies --   3507.4958              3606.5914              3668.9910
 Red. masses --      1.0747                 1.0759                 1.0799
 Frc consts  --      7.7901                 8.2458                 8.5647
 IR Inten    --      1.3191                27.4589                51.5976

 - Thermochemistry -
 -------------------
 Temperature   298.150 Kelvin.  Pressure   1.00000 Atm.
 Atom     1 has atomic number  6 and mass  12.00000

 Molecular mass:   231.14840 amu.
 Principal axes and moments of inertia in atomic units:
                           1         2         3
     Eigenvalues --  1140.931548752.292979164.55075
           X            0.99999   0.00306   0.00209
           Y           -0.00306   0.99999  -0.00150
           Z           -0.00209   0.00150   1.00000
 This molecule is an asymmetric top.
 Rotational symmetry number  1.
 Warning -- assumption of classical behavior for rotation
           may cause significant error
 Rotational temperatures (Kelvin)      0.07592     0.00990     0.00945
 Rotational constants (GHZ):           1.58181     0.20620     0.19693
 Zero-point vibrational energy     768018.9 (Joules/Mol)
                                  183.56092 (Kcal/Mol)
 Warning -- explicit consideration of  22 degrees of freedom as
           vibrations may cause significant error
 Vibrational temperatures:     19.23    83.11   123.45   132.56   204.48
          (Kelvin)            234.14   276.98   320.77   331.73   357.30
                              391.63   519.85   544.99   559.72   572.97
                              608.03   646.42   660.49   690.96   714.61
                              768.08   790.65   904.07   963.50   995.73
                             1055.63  1082.59  1125.32  1125.97  1154.68
                             1164.70  1182.96  1206.97  1254.75  1285.27
                             1330.07  1341.32  1398.22  1448.12  1496.15
                             1535.94  1542.34  1579.28  1586.51  1592.61
                             1659.76  1665.41  1676.70  1729.54  1730.60
                             1746.68  1748.32  1791.77  1835.74  1890.59
                             1904.98  1928.20  1959.67  1961.76  1963.74
                             1999.31  2018.37  2026.84  2054.03  2081.36
                             2084.79  2116.06  2155.12  2159.84  2169.06
                             2176.97  2179.12  2210.80  2224.67  2230.90
                             2258.55  2289.91  2357.17  2421.61  4171.18
                             4185.02  4308.81  4400.39  4402.22  4415.47
                             4438.09  4439.68  4457.05  4468.38  4470.90
                             4517.32  4594.48  4646.64  5046.50  5189.08
                             5278.86

 Zero-point correction=                           0.292523 (Hartree/Particle)
 Thermal correction to Energy=                    0.307205
 Thermal correction to Enthalpy=                  0.308149
 Thermal correction to Gibbs Free Energy=         0.249789
 Sum of electronic and zero-point Energies=           -741.053446
 Sum of electronic and thermal Energies=              -741.038765
 Sum of electronic and thermal Enthalpies=            -741.037820
 Sum of electronic and thermal Free Energies=         -741.096181

                     E (Thermal)             CV                S
                      KCal/Mol        Cal/Mol-Kelvin    Cal/Mol-Kelvin
 Total                  192.774             58.224            122.829
 Electronic               0.000              0.000              0.000
 Translational            0.889              2.981             42.216
 Rotational               0.889              2.981             32.881
 Vibrational            190.996             52.262             47.732
 Vibration     1          0.593              1.987              7.434
 Vibration     2          0.596              1.974              4.532
 Vibration     3          0.601              1.959              3.754
 Vibration     4          0.602              1.955              3.614
 Vibration     5          0.616              1.911              2.775
 Vibration     6          0.623              1.888              2.518
 Vibration     7          0.634              1.850              2.204
 Vibration     8          0.649              1.806              1.935
 Vibration     9          0.652              1.794              1.875
 Vibration    10          0.662              1.766              1.742
 Vibration    11          0.675              1.725              1.582
 Vibration    12          0.735              1.552              1.116
 Vibration    13          0.749              1.515              1.044
 Vibration    14          0.757              1.494              1.004
 Vibration    15          0.765              1.474              0.969
 Vibration    16          0.785              1.421              0.883
 Vibration    17          0.808              1.362              0.798
 Vibration    18          0.817              1.341              0.769
 Vibration    19          0.837              1.294              0.709
 Vibration    20          0.852              1.257              0.666
 Vibration    21          0.889              1.175              0.579
 Vibration    22          0.905              1.141              0.545

                           ! Non-Optimized Parameters !
 Normal termination of Gaussian 16 at Sun Dec 13 12:39:04 2020.

 ----------------------------------------------------------------------
 # B3LYP/6-311++G(d,p) empiricaldispersion=gd3bj scf=xqc pop=npa geom=c
 heck
 ----------------------------------------------------------------------

 --------------------------------------
 CID_79821818_JID_7536_Energie_neutraal
 --------------------------------------
 Structure from the checkpoint file:  "JID_7536.chk"
 Charge =  0 Multiplicity = 1

 SCF Done:  E(RB3LYP) =  -741.548809542     A.U. after   15 cycles
 Normal termination of Gaussian 16 at Sun Dec 13 12:44:53 2020.

 ----------------------------------------------------------------------
 # B3LYP/6-311++G(d,p) empiricaldispersion=gd3bj scf=xqc pop=npa geom=c
 heck
 ----------------------------------------------------------------------

 ------------------------------------
 CID_79821818_JID_7536_Energie_kation
 ------------------------------------
 Structure from the checkpoint file:  "JID_7536.chk"
 Charge =  1 Multiplicity = 2

 SCF Done:  E(UB3LYP) =  -741.287144922     A.U. after   33 cycles
 SCF Done:  E(UB3LYP) =  -741.287162712     a.u. after    4 cycles
 Normal termination of Gaussian 16 at Sun Dec 13 13:53:32 2020.
 Gaussian 16:  ES64L-G16RevA.03 25-Dec-2016

 ----------------------------------------------------------------------
 # B3LYP/6-311++G(d,p) empiricaldispersion=gd3bj scf=xqc pop=npa geom=c
 heck
 ----------------------------------------------------------------------

 -----------------------------------
 CID_79821818_JID_7536_Energie_anion
 -----------------------------------
 Structure from the checkpoint file:  "JID_7536.chk"
 Charge = -1 Multiplicity = 2

                         Standard orientation:
 ---------------------------------------------------------------------
 Center     Atomic      Atomic             Coordinates (Angstroms)
 Number     Number       Type             X           Y           Z
 ---------------------------------------------------------------------
      1          6           0        5.818520    0.232148    0.228980
      2          7           0        4.691533   -0.598771   -0.135945
      3          6           0        3.385557   -0.145214   -0.081680
      4          7           0        2.449202   -1.104450   -0.047109
      5          6           0        1.181080   -0.686541   -0.037800
      6          6           0        0.796902    0.677387   -0.052528
      7          6           0        1.766648    1.672462   -0.075260
      8          6           0        3.089855    1.245794   -0.088983
      9          7           0       -0.588873    0.652663   -0.026861
     10          6           0       -0.973765   -0.675985    0.000568
     11          7           0        0.057611   -1.497154   -0.003912
     12          6           0       -2.398258   -1.150254    0.031683
     13          6           0       -3.210969   -0.768975   -1.230676
     14          6           0       -3.743564    0.665554   -1.193184
     15          7           0       -4.520098    0.869163    0.027275
     16          6           0       -3.706567    0.710082    1.230042
     17          6           0       -3.171686   -0.722262    1.303663
     18          1           0        5.716240    0.693993    1.224624
     19          1           0        5.964831    1.035860   -0.502970
     20          1           0        6.721747   -0.382683    0.223776
     21          1           0        4.755528   -1.582537    0.089809
     22          1           0        1.521670    2.731022   -0.080290
     23          1           0        3.891413    1.974049   -0.110996
     24          1           0       -1.206477    1.448493   -0.032254
     25          1           0       -2.296306   -2.238876    0.050035
     26          1           0       -2.605460   -0.926169   -2.129875
     27          1           0       -4.074030   -1.442256   -1.288727
     28          1           0       -2.901480    1.381934   -1.292067
     29          1           0       -4.396836    0.837941   -2.055461
     30          1           0       -4.952643    1.789533    0.016984
     31          1           0       -4.333405    0.913913    2.105009
     32          1           0       -2.862514    1.429463    1.277079
     33          1           0       -4.031937   -1.392715    1.413321
     34          1           0       -2.538508   -0.846288    2.188917
 ---------------------------------------------------------------------

 SCF Done:  E(UB3LYP) =  -741.542112360     A.U. after   33 cycles
 SCF Done:  E(UB3LYP) =  -741.542118492     a.u. after    4 cycles

 The electronic state is 2-A.
 Alpha  occ. eigenvalues --  -14.26901 -14.23267 -14.20499 -14.20300 -14.19802
 Alpha  occ. eigenvalues --  -10.14876 -10.14651 -10.12555 -10.11694 -10.11218
 Alpha  occ. eigenvalues --  -10.10195 -10.10166 -10.09937 -10.09797 -10.08401
 Alpha  occ. eigenvalues --  -10.08356 -10.08157  -0.92611  -0.87179  -0.82270
 Alpha  occ. eigenvalues --   -0.81083  -0.77935  -0.71992  -0.70349  -0.66749
 Alpha  occ. eigenvalues --   -0.64911  -0.60715  -0.57592  -0.54202  -0.53754
 Alpha  occ. eigenvalues --   -0.52071  -0.50700  -0.47737  -0.43953  -0.43588
 Alpha  occ. eigenvalues --   -0.42905  -0.41300  -0.37544  -0.37221  -0.37029
 Alpha  occ. eigenvalues --   -0.36408  -0.35846  -0.35043  -0.33661  -0.32742
 Alpha  occ. eigenvalues --   -0.32374  -0.31997  -0.30974  -0.30087  -0.29997
 Alpha  occ. eigenvalues --   -0.28124  -0.26610  -0.25621  -0.23810  -0.23174
 Alpha  occ. eigenvalues --   -0.22120  -0.19770  -0.19419  -0.16409  -0.15179
 Alpha  occ. eigenvalues --   -0.13893  -0.10864   0.03704
 Alpha virt. eigenvalues --    0.05029   0.05711   0.06695   0.07505   0.07538
 Alpha virt. eigenvalues --    0.08169   0.09253   0.09526   0.09761   0.10126
 Alpha virt. eigenvalues --    0.10334   0.10828   0.11203   0.11514   0.12631

  Beta  occ. eigenvalues --  -14.26871 -14.23265 -14.20467 -14.20290 -14.19802
  Beta  occ. eigenvalues --  -10.14869 -10.14651 -10.12551 -10.11666 -10.11219
  Beta  occ. eigenvalues --  -10.10164 -10.10134 -10.09939 -10.09770 -10.08399
  Beta  occ. eigenvalues --  -10.08351 -10.08148  -0.92590  -0.87167  -0.82226
  Beta  occ. eigenvalues --   -0.81063  -0.77912  -0.71973  -0.70316  -0.66710
  Beta  occ. eigenvalues --   -0.64887  -0.60676  -0.57554  -0.54147  -0.53709
  Beta  occ. eigenvalues --   -0.52027  -0.50666  -0.47686  -0.43919  -0.43545
  Beta  occ. eigenvalues --   -0.42847  -0.41252  -0.37505  -0.37189  -0.37008
  Beta  occ. eigenvalues --   -0.36381  -0.35815  -0.35009  -0.33632  -0.32696
  Beta  occ. eigenvalues --   -0.32338  -0.31973  -0.30947  -0.30057  -0.29961
  Beta  occ. eigenvalues --   -0.28095  -0.26568  -0.25605  -0.23784  -0.23136
  Beta  occ. eigenvalues --   -0.22094  -0.19759  -0.19396  -0.16399  -0.15146
  Beta  occ. eigenvalues --   -0.13826  -0.10844
  Beta virt. eigenvalues --    0.05595   0.05782   0.06359   0.07329   0.07913
  Beta virt. eigenvalues --    0.07954   0.08664   0.09477   0.09734   0.10110
  Beta virt. eigenvalues --    0.10373   0.10679   0.10938   0.11314   0.11886

 Mulliken charges and spin densities:
               1          2
     1  C    0.490027  -0.825858
     2  N   -0.157565   0.064923
     3  C   -0.737595   0.583605
     4  N   -0.215447   0.029254
     5  C   -0.473360   0.259391
     6  C    3.114444  -2.455058
     7  C   -0.944136   0.102435
     8  C   -0.075553   0.180425
     9  N   -0.229362   0.088094
    10  C    0.180424  -0.232211
    11  N   -0.107242  -0.001981
    12  C   -0.196689   0.392336
    13  C   -0.598452   0.123455
    14  C    0.772190  -1.164665
    15  N   -0.285017   0.137199
    16  C    0.756146  -1.148417
    17  C   -0.627718   0.153351
    18  H   -0.052086   0.203225
    19  H   -0.144662   0.290586
    20  H   -0.272261   0.412791
    21  H    0.234498   0.029092
    22  H   -1.065795   1.248030
    23  H    0.205394  -0.031950
    24  H    0.635796  -0.342892
    25  H    0.210809   0.034759
    26  H    0.127844   0.035641
    27  H    0.125114   0.020280
    28  H   -0.643841   0.755122
    29  H   -0.234989   0.410836
    30  H   -0.199214   0.463968
    31  H   -0.234349   0.410797
    32  H   -0.616318   0.725422
    33  H    0.133120   0.011723
    34  H    0.125843   0.036292
 Sum of Mulliken charges =  -1.00000   1.00000

 Dipole moment (field-independent basis, Debye):
    X=              1.0921    Y=             -5.2213    Z=              0.3898  Tot=              5.3485
 Quadrupole moment (field-independent basis, Debye-Ang):
   XX=           -199.5910   YY=           -152.7444   ZZ=           -129.5510
   XY=             15.9866   XZ=              0.6636   YZ=             -0.6628

 Summary of Natural Population Analysis:

                                       Natural Population
                Natural  -----------------------------------------------
    Atom  No    Charge         Core      Valence    Rydberg      Total
 -----------------------------------------------------------------------
      C    1   -0.18087      0.99966     2.17310    0.00811     3.18087
      N    2   -0.31670      0.99968     2.80643    0.01059     3.81670
      C    3    0.19561      0.99955     1.78895    0.01588     2.80439
      N    4   -0.25406      0.99964     2.74480    0.00963     3.75406
      C    5    0.17525      0.99947     1.80692    0.01836     2.82475
      C    6    0.02976      0.99944     1.95906    0.01173     2.97024
      C    7   -0.08344      0.99953     2.07418    0.00973     3.08344
      C    8   -0.15149      0.99954     2.14327    0.00868     3.15149
      N    9   -0.28299      0.99962     2.77474    0.00863     3.78299
      C   10    0.21938      0.99959     1.76071    0.02032     2.78062
      N   11   -0.26313      0.99967     2.75515    0.00831     3.76313
      C   12   -0.13294      0.99954     2.12368    0.00972     3.13294
      C   13   -0.18811      0.99961     2.17993    0.00857     3.18811
      C   14   -0.08910      0.99962     2.07740    0.01208     3.08910
      N   15   -0.34331      0.99974     2.83034    0.01323     3.84331
      C   16   -0.08906      0.99962     2.07733    0.01211     3.08906
      C   17   -0.18831      0.99961     2.18019    0.00851     3.18831
      H   18    0.08781      0.00000     0.41078    0.00141     0.41219
      H   19    0.09309      0.00000     0.40555    0.00135     0.40691
      H   20    0.09831      0.00000     0.40083    0.00086     0.40169
      H   21    0.18921      0.00000     0.30773    0.00306     0.31079
      H   22    0.10833      0.00000     0.38984    0.00182     0.39167
      H   23    0.10528      0.00000     0.39352    0.00120     0.39472
      H   24    0.21047      0.00000     0.28434    0.00519     0.28953
      H   25    0.11488      0.00000     0.38361    0.00151     0.38512
      H   26    0.10315      0.00000     0.39594    0.00091     0.39685
      H   27    0.09942      0.00000     0.39942    0.00116     0.40058
      H   28    0.07679      0.00000     0.42043    0.00279     0.42321
      H   29    0.09783      0.00000     0.40099    0.00118     0.40217
      H   30    0.18209      0.00000     0.31277    0.00514     0.31791
      H   31    0.09794      0.00000     0.40087    0.00119     0.40206
      H   32    0.07659      0.00000     0.42074    0.00267     0.42341
      H   33    0.09942      0.00000     0.39941    0.00117     0.40058
      H   34    0.10288      0.00000     0.39621    0.00091     0.39712
 =======================================================================
   * Total *    0.00000     16.99313    44.77918    0.22769    62.00000

 Normal termination of Gaussian 16 at Sun Dec 13 14:55:57 2020.
