 Gaussian 16, Revision A.03,

 -----------------------------------------------------------
 # opt freq B3LYP/6-31G(d) empiricaldispersion=gd3bj scf=xqc
 -----------------------------------------------------------

 -------------------------------
 CID_113953682_JID_8684_neutraal
 -------------------------------
 Symbolic Z-matrix:
 Charge =  0 Multiplicity = 1

 SCF Done:  E(RB3LYP) =  -1160.59396693     A.U. after   15 cycles
 SCF Done:  E(RB3LYP) =  -1160.60320235     A.U. after   13 cycles
 SCF Done:  E(RB3LYP) =  -1160.60517319     A.U. after   13 cycles
 SCF Done:  E(RB3LYP) =  -1160.60650450     A.U. after   13 cycles
 SCF Done:  E(RB3LYP) =  -1160.60762685     A.U. after   14 cycles
 SCF Done:  E(RB3LYP) =  -1160.60822255     A.U. after   13 cycles
 SCF Done:  E(RB3LYP) =  -1160.60854270     A.U. after   13 cycles
 SCF Done:  E(RB3LYP) =  -1160.60873038     A.U. after   12 cycles
 SCF Done:  E(RB3LYP) =  -1160.60887674     A.U. after   12 cycles
 SCF Done:  E(RB3LYP) =  -1160.60904176     A.U. after   13 cycles
 SCF Done:  E(RB3LYP) =  -1160.60953754     A.U. after   10 cycles
 SCF Done:  E(RB3LYP) =  -1160.60953854     A.U. after   10 cycles
 SCF Done:  E(RB3LYP) =  -1160.60953879     A.U. after    9 cycles
 SCF Done:  E(RB3LYP) =  -1160.60953894     A.U. after    7 cycles
 SCF Done:  E(RB3LYP) =  -1160.60953894     A.U. after    7 cycles
 Optimization completed.
    -- Stationary point found.
 Normal termination of Gaussian 16 at Fri Dec 11 21:37:46 2020.

 --------------------------------------------------------------------
 #N Geom=AllCheck Guess=TCheck SCRF=Check GenChk RB3LYP/6-31G(d) Freq
 --------------------------------------------------------------------

 Structure from the checkpoint file:  "JID_8684.chk"
 -------------------------------
 CID_113953682_JID_8684_neutraal
 -------------------------------
 Charge =  0 Multiplicity = 1

 SCF Done:  E(RB3LYP) =  -1160.60953894     A.U. after    1 cycles

  Exact polarizability: 289.171 -25.419 176.851 -16.285  -4.449 106.194
 Approx polarizability: 387.409 -51.251 318.814 -34.429  -8.848 164.392

                      1                      2                      3
                      A                      A                      A
 Frequencies --     26.4750                29.9775                59.2359
 Red. masses --      4.6469                 5.9032                 3.8068
 Frc consts  --      0.0019                 0.0031                 0.0079
 IR Inten    --      1.1336                 1.3431                 0.5635

                      4                      5                      6
                      A                      A                      A
 Frequencies --     76.5589                79.0018                82.3182
 Red. masses --      5.8365                 1.9836                 4.7475
 Frc consts  --      0.0202                 0.0073                 0.0190
 IR Inten    --      0.2301                 2.8730                 0.2922

                      7                      8                      9
                      A                      A                      A
 Frequencies --    152.4701               199.8763               202.0996
 Red. masses --      5.3750                 1.5428                 1.6098
 Frc consts  --      0.0736                 0.0363                 0.0387
 IR Inten    --      4.5225                 0.9546                 0.7385

                     10                     11                     12
                      A                      A                      A
 Frequencies --    227.2374               239.1998               246.4025
 Red. masses --      2.8045                 1.5913                 4.3745
 Frc consts  --      0.0853                 0.0536                 0.1565
 IR Inten    --      5.2070                 0.8987                 1.5574

                     13                     14                     15
                      A                      A                      A
 Frequencies --    266.8904               289.6570               327.9839
 Red. masses --      3.7002                 3.2224                 2.8347
 Frc consts  --      0.1553                 0.1593                 0.1797
 IR Inten    --      4.2860                 2.6968                 2.5511

                     16                     17                     18
                      A                      A                      A
 Frequencies --    361.2101               385.2328               399.2349
 Red. masses --      2.5944                 1.4314                 3.0847
 Frc consts  --      0.1994                 0.1252                 0.2897
 IR Inten    --      8.7534               143.2978                25.3165

                     19                     20                     21
                      A                      A                      A
 Frequencies --    423.1225               427.0441               435.8160
 Red. masses --      2.9220                 2.5794                 3.4880
 Frc consts  --      0.3082                 0.2771                 0.3903
 IR Inten    --     14.3044                 5.3640                24.2402

                     22                     23                     24
                      A                      A                      A
 Frequencies --    455.3663               456.6363               489.0605
 Red. masses --      3.7812                 2.8005                 2.9182
 Frc consts  --      0.4620                 0.3440                 0.4112
 IR Inten    --      3.5309                 6.9771                 3.6475

                     25                     26                     27
                      A                      A                      A
 Frequencies --    511.2115               533.9743               551.0046
 Red. masses --      3.7090                 5.2156                 2.7104
 Frc consts  --      0.5711                 0.8762                 0.4848
 IR Inten    --      8.1449                29.5055                 6.2754

                     28                     29                     30
                      A                      A                      A
 Frequencies --    576.7847               644.2916               664.4355
 Red. masses --      4.0014                 4.5814                 9.9001
 Frc consts  --      0.7843                 1.1205                 2.5751
 IR Inten    --      2.3911                 0.1403                 1.8413

                     31                     32                     33
                      A                      A                      A
 Frequencies --    667.6445               679.3880               730.7542
 Red. masses --      1.0822                 3.8544                 3.0036
 Frc consts  --      0.2842                 1.0482                 0.9450
 IR Inten    --      1.4538                 5.6287                 0.9830

                     34                     35                     36
                      A                      A                      A
 Frequencies --    791.8555               815.3419               872.4007
 Red. masses --      6.2462                 4.7413                 1.5828
 Frc consts  --      2.3076                 1.8571                 0.7097
 IR Inten    --      1.9289                23.5295                10.5207

                     37                     38                     39
                      A                      A                      A
 Frequencies --    879.0358               882.9249               897.9145
 Red. masses --      1.8077                 1.9206                 2.2085
 Frc consts  --      0.8230                 0.8821                 1.0491
 IR Inten    --      1.6313                 4.7522                28.7226

                     40                     41                     42
                      A                      A                      A
 Frequencies --    903.5324               925.1885               968.5949
 Red. masses --      2.0822                 2.8243                 1.9607
 Frc consts  --      1.0015                 1.4244                 1.0838
 IR Inten    --     10.0134                17.9246                36.8961

                     43                     44                     45
                      A                      A                      A
 Frequencies --    984.9907              1006.7659              1023.1285
 Red. masses --      1.4030                 2.0797                 2.0743
 Frc consts  --      0.8020                 1.2420                 1.2793
 IR Inten    --      2.6526                25.7306                18.3094

                     46                     47                     48
                      A                      A                      A
 Frequencies --   1037.5417              1041.6715              1063.3160
 Red. masses --      3.0718                 1.9712                 1.9294
 Frc consts  --      1.9483                 1.2602                 1.2853
 IR Inten    --     30.6590                 6.1018                 3.6363

                     49                     50                     51
                      A                      A                      A
 Frequencies --   1126.4382              1154.3836              1160.4778
 Red. masses --      3.9460                 2.0612                 2.0804
 Frc consts  --      2.9500                 1.6183                 1.6507
 IR Inten    --     98.1009                39.4609                52.1523

                     52                     53                     54
                      A                      A                      A
 Frequencies --   1182.4288              1188.9152              1203.9146
 Red. masses --      2.4676                 1.3495                 2.0640
 Frc consts  --      2.0327                 1.1239                 1.7626
 IR Inten    --     37.4626                 3.4243                15.6880

                     55                     56                     57
                      A                      A                      A
 Frequencies --   1224.4134              1242.0578              1251.8536
 Red. masses --      2.6915                 1.6286                 1.5734
 Frc consts  --      2.3774                 1.4803                 1.4528
 IR Inten    --     30.4503                17.8263                 6.6850

                     58                     59                     60
                      A                      A                      A
 Frequencies --   1274.0411              1294.3918              1310.6426
 Red. masses --      2.2384                 3.2398                 1.5124
 Frc consts  --      2.1406                 3.1981                 1.5307
 IR Inten    --    147.2330                18.5694               171.5060

                     61                     62                     63
                      A                      A                      A
 Frequencies --   1327.8888              1348.0736              1371.3879
 Red. masses --      1.6063                 1.6216                 1.3971
 Frc consts  --      1.6688                 1.7363                 1.5481
 IR Inten    --    187.3800                 6.6230                 0.2855

                     64                     65                     66
                      A                      A                      A
 Frequencies --   1378.3530              1385.8308              1395.5098
 Red. masses --      2.4041                 2.3242                 1.5429
 Frc consts  --      2.6910                 2.6299                 1.7704
 IR Inten    --    113.7701               109.2721                13.1975

                     67                     68                     69
                      A                      A                      A
 Frequencies --   1398.6511              1412.7141              1428.9616
 Red. masses --      1.4172                 1.3579                 3.5598
 Frc consts  --      1.6334                 1.5967                 4.2827
 IR Inten    --     18.1385                23.8950                36.8000

                     70                     71                     72
                      A                      A                      A
 Frequencies --   1443.4492              1476.0289              1503.3454
 Red. masses --      1.3151                 2.5236                 1.1139
 Frc consts  --      1.6144                 3.2394                 1.4832
 IR Inten    --      8.2354               175.6734                 1.7613

                     73                     74                     75
                      A                      A                      A
 Frequencies --   1508.2504              1509.3341              1518.1468
 Red. masses --      1.0864                 1.1064                 1.0769
 Frc consts  --      1.4561                 1.4850                 1.4623
 IR Inten    --      3.7616                14.0337                10.4419

                     76                     77                     78
                      A                      A                      A
 Frequencies --   1525.6966              1526.4020              1532.4455
 Red. masses --      1.0765                 1.0680                 1.0942
 Frc consts  --      1.4764                 1.4661                 1.5140
 IR Inten    --      2.1247                 3.7244                 4.3143

                     79                     80                     81
                      A                      A                      A
 Frequencies --   1538.7740              1540.8344              1567.0573
 Red. masses --      1.1186                 1.1103                 3.5495
 Frc consts  --      1.5605                 1.5531                 5.1355
 IR Inten    --     43.1161                 6.3812               139.5037

                     82                     83                     84
                      A                      A                      A
 Frequencies --   1570.4059              1629.5486              1633.8744
 Red. masses --      4.2698                 1.8213                 3.3040
 Frc consts  --      6.2041                 2.8494                 5.1967
 IR Inten    --    135.8243               159.2444               603.0766

                     85                     86                     87
                      A                      A                      A
 Frequencies --   3014.2153              3033.5936              3045.2031
 Red. masses --      1.0365                 1.0744                 1.0683
 Frc consts  --      5.5487                 5.8257                 5.8370
 IR Inten    --     33.5487                37.2778                 8.1172

                     88                     89                     90
                      A                      A                      A
 Frequencies --   3054.5934              3059.5600              3068.1423
 Red. masses --      1.0605                 1.0712                 1.0979
 Frc consts  --      5.8298                 5.9081                 6.0890
 IR Inten    --     23.1706               114.3616                53.7940

                     91                     92                     93
                      A                      A                      A
 Frequencies --   3073.7592              3091.7260              3102.3515
 Red. masses --      1.0372                 1.0998                 1.1026
 Frc consts  --      5.7734                 6.1939                 6.2524
 IR Inten    --      6.9306                39.7777                53.9123

                     94                     95                     96
                      A                      A                      A
 Frequencies --   3132.9956              3145.4634              3156.9461
 Red. masses --      1.0982                 1.1019                 1.1024
 Frc consts  --      6.3514                 6.4233                 6.4733
 IR Inten    --     37.6035                28.1208                15.6705

                     97                     98                     99
                      A                      A                      A
 Frequencies --   3160.1021              3185.0057              3207.8631
 Red. masses --      1.0911                 1.0936                 1.0887
 Frc consts  --      6.4199                 6.5364                 6.6009
 IR Inten    --     15.6454                 3.0384                33.0073

                    100                    101                    102
                      A                      A                      A
 Frequencies --   3219.4125              3553.1222              3704.9410
 Red. masses --      1.0924                 1.0462                 1.1031
 Frc consts  --      6.6708                 7.7818                 8.9212
 IR Inten    --      0.5593                63.5333                86.5228

 - Thermochemistry -
 -------------------
 Temperature   298.150 Kelvin.  Pressure   1.00000 Atm.
 Atom     1 has atomic number  6 and mass  12.00000

 Molecular mass:   266.12013 amu.
 Principal axes and moments of inertia in atomic units:
                           1         2         3
     Eigenvalues --  1979.16565********************
           X            0.99997   0.00681  -0.00223
           Y           -0.00684   0.99987  -0.01451
           Z            0.00213   0.01453   0.99989
 This molecule is an asymmetric top.
 Rotational symmetry number  1.
 Warning -- assumption of classical behavior for rotation
           may cause significant error
 Rotational temperatures (Kelvin)      0.04376     0.00827     0.00747
 Rotational constants (GHZ):           0.91187     0.17239     0.15563
 Zero-point vibrational energy     796029.4 (Joules/Mol)
                                  190.25559 (Kcal/Mol)
 Warning -- explicit consideration of  28 degrees of freedom as
           vibrations may cause significant error
 Vibrational temperatures:     38.09    43.13    85.23   110.15   113.67
          (Kelvin)            118.44   219.37   287.58   290.78   326.94
                              344.16   354.52   384.00   416.75   471.90
                              519.70   554.26   574.41   608.78   614.42
                              627.04   655.17   657.00   703.65   735.52
                              768.27   792.77   829.86   926.99   955.97
                              960.59   977.49  1051.39  1139.30  1173.10
                             1255.19  1264.74  1270.33  1291.90  1299.98
                             1331.14  1393.59  1417.18  1448.51  1472.05
                             1492.79  1498.73  1529.87  1620.69  1660.90
                             1669.67  1701.25  1710.58  1732.16  1761.66
                             1787.04  1801.14  1833.06  1862.34  1885.72
                             1910.54  1939.58  1973.12  1983.14  1993.90
                             2007.83  2012.35  2032.58  2055.96  2076.80
                             2123.68  2162.98  2170.04  2171.60  2184.27
                             2195.14  2196.15  2204.85  2213.95  2216.92
                             2254.65  2259.46  2344.56  2350.78  4336.78
                             4364.66  4381.37  4394.88  4402.02  4414.37
                             4422.45  4448.30  4463.59  4507.68  4525.62
                             4542.14  4546.68  4582.51  4615.40  4632.02
                             5112.15  5330.58

 Zero-point correction=                           0.303192 (Hartree/Particle)
 Thermal correction to Energy=                    0.320512
 Thermal correction to Enthalpy=                  0.321456
 Thermal correction to Gibbs Free Energy=         0.256907
 Sum of electronic and zero-point Energies=          -1160.306347
 Sum of electronic and thermal Energies=             -1160.289027
 Sum of electronic and thermal Enthalpies=           -1160.288083
 Sum of electronic and thermal Free Energies=        -1160.352632

                     E (Thermal)             CV                S
                      KCal/Mol        Cal/Mol-Kelvin    Cal/Mol-Kelvin
 Total                  201.124             66.713            135.855
 Electronic               0.000              0.000              0.000
 Translational            0.889              2.981             42.636
 Rotational               0.889              2.981             33.840
 Vibrational            199.347             60.751             59.379
 Vibration     1          0.593              1.985              6.077
 Vibration     2          0.594              1.984              5.831
 Vibration     3          0.597              1.974              4.482
 Vibration     4          0.599              1.965              3.977
 Vibration     5          0.600              1.963              3.916
 Vibration     6          0.600              1.961              3.835
 Vibration     7          0.619              1.900              2.641
 Vibration     8          0.638              1.840              2.134
 Vibration     9          0.639              1.837              2.114
 Vibration    10          0.651              1.799              1.901
 Vibration    11          0.657              1.781              1.809
 Vibration    12          0.661              1.769              1.756
 Vibration    13          0.672              1.734              1.616
 Vibration    14          0.686              1.693              1.476
 Vibration    15          0.711              1.620              1.270
 Vibration    16          0.735              1.552              1.117
 Vibration    17          0.754              1.502              1.019
 Vibration    18          0.765              1.472              0.965
 Vibration    19          0.785              1.420              0.881
 Vibration    20          0.789              1.411              0.868
 Vibration    21          0.796              1.392              0.840
 Vibration    22          0.814              1.349              0.780
 Vibration    23          0.815              1.346              0.776
 Vibration    24          0.845              1.274              0.686
 Vibration    25          0.866              1.225              0.631
 Vibration    26          0.889              1.175              0.578
 Vibration    27          0.906              1.137              0.542
 Vibration    28          0.933              1.081              0.491

 Optimization completed.
    -- Stationary point found.
 Normal termination of Gaussian 16 at Fri Dec 11 21:53:18 2020.

 ----------------------------------------------------------------------
 # B3LYP/6-311++G(d,p) empiricaldispersion=gd3bj scf=xqc pop=npa geom=c
 heck
 ----------------------------------------------------------------------

 ---------------------------------------
 CID_113953682_JID_8684_Energie_neutraal
 ---------------------------------------
 Structure from the checkpoint file:  "JID_8684.chk"
 Charge =  0 Multiplicity = 1

 SCF Done:  E(RB3LYP) =  -1160.84480553     A.U. after   16 cycles
 Normal termination of Gaussian 16 at Fri Dec 11 21:59:54 2020.

 ----------------------------------------------------------------------
 # B3LYP/6-311++G(d,p) empiricaldispersion=gd3bj scf=xqc pop=npa geom=c
 heck
 ----------------------------------------------------------------------

 -------------------------------------
 CID_113953682_JID_8684_Energie_kation
 -------------------------------------
 Structure from the checkpoint file:  "JID_8684.chk"
 Charge =  1 Multiplicity = 2

 SCF Done:  E(UB3LYP) =  -1160.57288901     A.U. after   33 cycles
 SCF Done:  E(UB3LYP) =  -1160.57288901     a.u. after    1 cycles
 Normal termination of Gaussian 16 at Fri Dec 11 22:18:54 2020.
 Gaussian 16:  ES64L-G16RevA.03 25-Dec-2016

 ----------------------------------------------------------------------
 # B3LYP/6-311++G(d,p) empiricaldispersion=gd3bj scf=xqc pop=npa geom=c
 heck
 ----------------------------------------------------------------------

 ------------------------------------
 CID_113953682_JID_8684_Energie_anion
 ------------------------------------
 Structure from the checkpoint file:  "JID_8684.chk"
 Charge = -1 Multiplicity = 2

                         Standard orientation:
 ---------------------------------------------------------------------
 Center     Atomic      Atomic             Coordinates (Angstroms)
 Number     Number       Type             X           Y           Z
 ---------------------------------------------------------------------
      1          6           0        2.063397    0.958709    1.607494
      2          6           0        2.971036    0.552703    0.445557
      3          6           0        3.690574   -0.781919    0.735585
      4          6           0        2.740067   -1.988954    0.688892
      5          6           0        1.941560   -1.988694   -0.620137
      6          7           0        1.244624   -0.718026   -0.796793
      7          6           0        2.156609    0.423621   -0.864741
      8          6           0       -0.087543   -0.540910   -0.542538
      9          7           0       -0.565869    0.720150   -0.592138
     10          6           0       -1.864054    0.906972   -0.381050
     11          6           0       -2.741397   -0.146639   -0.103029
     12          7           0       -2.265230   -1.408303   -0.037854
     13          6           0       -0.978028   -1.613931   -0.247477
     14          6           0       -4.190475    0.047739    0.138139
     15         16           0       -4.945990    1.540576    0.100152
     16          7           0       -4.847720   -1.095522    0.391059
     17          8           0        3.912580    1.631230    0.363226
     18          6           0        4.791411    1.684701   -0.744011
     19          1           0        1.566404    1.904987    1.379995
     20          1           0        2.667761    1.089614    2.510342
     21          1           0        1.294753    0.208518    1.807691
     22          1           0        4.475950   -0.935798   -0.015613
     23          1           0        4.190087   -0.714265    1.708127
     24          1           0        2.041549   -1.963106    1.533521
     25          1           0        3.309482   -2.922622    0.771687
     26          1           0        1.240091   -2.820633   -0.665416
     27          1           0        2.627635   -2.107275   -1.470406
     28          1           0        1.583291    1.329077   -1.052602
     29          1           0        2.831272    0.248117   -1.711057
     30          1           0       -2.236005    1.925783   -0.426466
     31          1           0       -0.639468   -2.641958   -0.175370
     32          1           0       -4.331153   -1.967267    0.399718
     33          1           0       -5.840714   -1.069033    0.567747
     34          1           0        5.333173    0.743181   -0.910762
     35          1           0        4.278983    1.962321   -1.675627
     36          1           0        5.522536    2.462814   -0.509768
 ---------------------------------------------------------------------

 SCF Done:  E(UB3LYP) =  -1160.86492603     A.U. after   30 cycles

 The electronic state is 2-A.
 Alpha  occ. eigenvalues --  -88.63689 -19.03840 -14.22136 -14.19372 -14.17043
 Alpha  occ. eigenvalues --  -14.16229 -10.13890 -10.13375 -10.11269 -10.10747
 Alpha  occ. eigenvalues --  -10.09760 -10.09248 -10.08738 -10.08430 -10.07206
 Alpha  occ. eigenvalues --  -10.06924 -10.06142 -10.05426  -7.72474  -5.68840
 Alpha  occ. eigenvalues --   -5.68365  -5.68045  -0.95006  -0.86700  -0.82525
 Alpha  occ. eigenvalues --   -0.79579  -0.75739  -0.71648  -0.68202  -0.64422
 Alpha  occ. eigenvalues --   -0.61708  -0.59743  -0.58960  -0.56093  -0.54020
 Alpha  occ. eigenvalues --   -0.50838  -0.50054  -0.45785  -0.44538  -0.42965
 Alpha  occ. eigenvalues --   -0.40688  -0.39866  -0.39725  -0.38588  -0.37894
 Alpha  occ. eigenvalues --   -0.36595  -0.34927  -0.34084  -0.33337  -0.32412
 Alpha  occ. eigenvalues --   -0.32010  -0.30654  -0.29611  -0.29234  -0.28563
 Alpha  occ. eigenvalues --   -0.27609  -0.27047  -0.26528  -0.26144  -0.25089
 Alpha  occ. eigenvalues --   -0.24173  -0.22281  -0.20900  -0.19601  -0.18216
 Alpha  occ. eigenvalues --   -0.16688  -0.16275  -0.11586  -0.09966  -0.07684
 Alpha  occ. eigenvalues --   -0.06390   0.03103
 Alpha virt. eigenvalues --    0.05264   0.06681   0.07678   0.08573   0.08957
 Alpha virt. eigenvalues --    0.09247   0.09572   0.09940   0.10577   0.11127
 Alpha virt. eigenvalues --    0.11356   0.12523   0.12729   0.13222   0.13670

  Beta  occ. eigenvalues --  -88.63632 -19.03832 -14.22056 -14.19287 -14.16921
  Beta  occ. eigenvalues --  -14.15637 -10.13881 -10.13367 -10.11268 -10.10501
  Beta  occ. eigenvalues --  -10.09765 -10.08918 -10.08733 -10.08425 -10.07247
  Beta  occ. eigenvalues --  -10.06977 -10.06142 -10.05342  -7.72423  -5.68820
  Beta  occ. eigenvalues --   -5.68176  -5.68013  -0.94986  -0.86424  -0.82064
  Beta  occ. eigenvalues --   -0.79281  -0.75117  -0.71588  -0.68177  -0.64106
  Beta  occ. eigenvalues --   -0.61651  -0.59362  -0.58944  -0.55929  -0.53958
  Beta  occ. eigenvalues --   -0.50684  -0.49700  -0.45607  -0.44319  -0.42854
  Beta  occ. eigenvalues --   -0.40575  -0.39752  -0.39589  -0.38553  -0.37881
  Beta  occ. eigenvalues --   -0.36487  -0.34803  -0.33960  -0.33282  -0.32256
  Beta  occ. eigenvalues --   -0.31953  -0.30437  -0.29306  -0.28868  -0.28245
  Beta  occ. eigenvalues --   -0.27451  -0.26944  -0.26467  -0.25899  -0.25065
  Beta  occ. eigenvalues --   -0.23211  -0.22025  -0.20523  -0.18565  -0.17333
  Beta  occ. eigenvalues --   -0.16212  -0.15856  -0.11169  -0.09021  -0.06734
  Beta  occ. eigenvalues --   -0.06227
  Beta virt. eigenvalues --    0.05274   0.06650   0.07618   0.08529   0.09006
  Beta virt. eigenvalues --    0.09197   0.09484   0.09567   0.10099   0.10524
  Beta virt. eigenvalues --    0.11150   0.11298   0.12494   0.12690   0.13177

 Mulliken charges and spin densities:
               1          2
     1  C   -0.538226  -0.003779
     2  C   -0.541932   0.094908
     3  C    0.036209  -0.099777
     4  C   -0.319018   0.049287
     5  C   -0.044648  -0.228971
     6  N    0.251267   0.028061
     7  C   -0.388450  -0.021481
     8  C   -0.493730   0.135581
     9  N   -0.117300   0.061681
    10  C   -0.280819   0.014660
    11  C    0.067868   0.008616
    12  N   -0.116183   0.282515
    13  C    0.207875  -0.041539
    14  C    0.039146   0.161536
    15  S   -0.912518   0.136410
    16  N   -0.273184   0.064147
    17  O   -0.029831   0.002870
    18  C   -0.075614  -0.134057
    19  H    0.179522   0.006705
    20  H    0.153477  -0.001144
    21  H    0.160968  -0.000619
    22  H    0.025280   0.062955
    23  H    0.148776   0.025279
    24  H    0.157326  -0.010506
    25  H    0.043389   0.111159
    26  H    0.134951   0.030484
    27  H    0.032035   0.090930
    28  H    0.301971  -0.013028
    29  H    0.130650   0.049581
    30  H    0.127032  -0.001137
    31  H    0.134457   0.004309
    32  H    0.280301  -0.004331
    33  H    0.255539  -0.001270
    34  H    0.037306   0.084490
    35  H    0.102052   0.036820
    36  H    0.124055   0.018654
 Sum of Mulliken charges =  -1.00000   1.00000

 Dipole moment (field-independent basis, Debye):
    X=             11.5467    Y=             -4.3106    Z=              0.2632  Tot=             12.3279
 Quadrupole moment (field-independent basis, Debye-Ang):
   XX=           -202.9155   YY=           -136.1457   ZZ=           -128.5710
   XY=             19.0127   XZ=             -2.3164   YZ=             -3.7476

 Summary of Natural Population Analysis:

                                       Natural Population
                Natural  -----------------------------------------------
    Atom  No    Charge         Core      Valence    Rydberg      Total
 -----------------------------------------------------------------------
      C    1   -0.29076      0.99961     2.28491    0.00624     3.29076
      C    2    0.13694      0.99951     1.84858    0.01496     2.86306
      C    3   -0.20489      0.99958     2.19410    0.01122     3.20489
      C    4   -0.19780      0.99963     2.18997    0.00820     3.19780
      C    5   -0.08034      0.99962     2.06949    0.01122     3.08034
      N    6   -0.24370      0.99965     2.73239    0.01167     3.74370
      C    7   -0.10301      0.99956     2.08941    0.01404     3.10301
      C    8    0.22869      0.99952     1.75662    0.01516     2.77131
      N    9   -0.25140      0.99968     2.74224    0.00948     3.75140
      C   10    0.03880      0.99955     1.94943    0.01222     2.96120
      C   11    0.02763      0.99947     1.95622    0.01668     2.97237
      N   12   -0.14081      0.99967     2.62997    0.01117     3.64081
      C   13   -0.02785      0.99959     2.01692    0.01134     3.02785
      C   14    0.10453      0.99961     1.87769    0.01816     2.89547
      S   15   -0.14158      4.99958     3.12711    0.01489     8.14158
      N   16   -0.37692      0.99967     2.86522    0.01203     3.87692
      O   17   -0.30846      0.99987     3.29749    0.01110     4.30846
      C   18   -0.09859      0.99960     2.09049    0.00850     3.09859
      H   19    0.11029      0.00000     0.38882    0.00089     0.38971
      H   20    0.09736      0.00000     0.40179    0.00086     0.40264
      H   21    0.10691      0.00000     0.39246    0.00063     0.39309
      H   22    0.09507      0.00000     0.40328    0.00165     0.40493
      H   23    0.10067      0.00000     0.39834    0.00099     0.39933
      H   24    0.09916      0.00000     0.39979    0.00105     0.40084
      H   25    0.09615      0.00000     0.40257    0.00128     0.40385
      H   26    0.10312      0.00000     0.39572    0.00116     0.39688
      H   27    0.08875      0.00000     0.41000    0.00126     0.41125
      H   28    0.12359      0.00000     0.37494    0.00147     0.37641
      H   29    0.08992      0.00000     0.40877    0.00130     0.41008
      H   30    0.10192      0.00000     0.39684    0.00123     0.39808
      H   31    0.08058      0.00000     0.41818    0.00123     0.41942
      H   32    0.20213      0.00000     0.29629    0.00158     0.29787
      H   33    0.18957      0.00000     0.30879    0.00164     0.31043
      H   34    0.07701      0.00000     0.42156    0.00143     0.42299
      H   35    0.07933      0.00000     0.41935    0.00132     0.42067
      H   36    0.08795      0.00000     0.41114    0.00090     0.41205
 =======================================================================
   * Total *    0.00000     21.99296    48.76691    0.24013    71.00000

 Normal termination of Gaussian 16 at Fri Dec 11 22:35:46 2020.
