 Gaussian 16, Revision A.03,

 -----------------------------------------------------------
 # opt freq B3LYP/6-31G(d) empiricaldispersion=gd3bj scf=xqc
 -----------------------------------------------------------

 ------------------------------
 CID_12385097_JID_6681_neutraal
 ------------------------------
 Symbolic Z-matrix:
 Charge =  0 Multiplicity = 1

 SCF Done:  E(RB3LYP) =  -687.409084370     A.U. after   15 cycles
 SCF Done:  E(RB3LYP) =  -687.412504297     A.U. after   13 cycles
 SCF Done:  E(RB3LYP) =  -687.413035068     A.U. after   12 cycles
 SCF Done:  E(RB3LYP) =  -687.413192517     A.U. after   12 cycles
 SCF Done:  E(RB3LYP) =  -687.413222975     A.U. after   11 cycles
 SCF Done:  E(RB3LYP) =  -687.413260998     A.U. after   11 cycles
 SCF Done:  E(RB3LYP) =  -687.413275544     A.U. after   11 cycles
 SCF Done:  E(RB3LYP) =  -687.413278896     A.U. after   10 cycles
 SCF Done:  E(RB3LYP) =  -687.413280511     A.U. after   10 cycles
 SCF Done:  E(RB3LYP) =  -687.413280812     A.U. after    9 cycles
 SCF Done:  E(RB3LYP) =  -687.413280986     A.U. after    7 cycles
 SCF Done:  E(RB3LYP) =  -687.413281035     A.U. after    7 cycles
 SCF Done:  E(RB3LYP) =  -687.413281099     A.U. after    7 cycles
 SCF Done:  E(RB3LYP) =  -687.413281157     A.U. after    7 cycles
 SCF Done:  E(RB3LYP) =  -687.413281189     A.U. after    7 cycles
 Optimization completed.
    -- Stationary point found.
 Normal termination of Gaussian 16 at Fri Dec 11 00:20:17 2020.

 --------------------------------------------------------------------
 #N Geom=AllCheck Guess=TCheck SCRF=Check GenChk RB3LYP/6-31G(d) Freq
 --------------------------------------------------------------------

 Structure from the checkpoint file:  "JID_6681.chk"
 ------------------------------
 CID_12385097_JID_6681_neutraal
 ------------------------------
 Charge =  0 Multiplicity = 1

 SCF Done:  E(RB3LYP) =  -687.413281189     A.U. after    1 cycles

  Exact polarizability: 231.750   6.858 165.806   1.246  -3.129  62.636
 Approx polarizability: 329.729   9.456 289.265   2.463  -6.440  98.518

                      1                      2                      3
                      A                      A                      A
 Frequencies --     15.8059                34.4899                46.8841
 Red. masses --      3.7386                 1.0667                 3.2366
 Frc consts  --      0.0006                 0.0007                 0.0042
 IR Inten    --      0.0434                 0.0952                 3.5015

                      4                      5                      6
                      A                      A                      A
 Frequencies --     83.8147               104.5185               129.6074
 Red. masses --      4.4495                 5.2573                 1.0785
 Frc consts  --      0.0184                 0.0338                 0.0107
 IR Inten    --      0.6966                 1.4020                 0.4328

                      7                      8                      9
                      A                      A                      A
 Frequencies --    151.2550               184.9812               190.7847
 Red. masses --      6.7290                 3.6013                 3.4746
 Frc consts  --      0.0907                 0.0726                 0.0745
 IR Inten    --      0.8956                 3.7216                 5.4781

                     10                     11                     12
                      A                      A                      A
 Frequencies --    235.0305               280.0496               308.6372
 Red. masses --      5.6250                 4.4611                 3.8693
 Frc consts  --      0.1831                 0.2061                 0.2172
 IR Inten    --      0.0236                 1.7950                 4.8027

                     13                     14                     15
                      A                      A                      A
 Frequencies --    391.0282               412.5006               433.2342
 Red. masses --      4.3923                 2.9657                 6.4076
 Frc consts  --      0.3957                 0.2973                 0.7086
 IR Inten    --      2.8457                 0.0223                 3.0474

                     16                     17                     18
                      A                      A                      A
 Frequencies --    457.8081               480.6191               552.6440
 Red. masses --      4.4981                 3.4551                 3.7638
 Frc consts  --      0.5555                 0.4702                 0.6773
 IR Inten    --      2.4307                 0.3858                16.9739

                     19                     20                     21
                      A                      A                      A
 Frequencies --    583.9490               618.3226               628.1144
 Red. masses --      4.8539                 5.1326                 2.9816
 Frc consts  --      0.9752                 1.1562                 0.6931
 IR Inten    --     11.0615                47.0337                 0.1222

                     22                     23                     24
                      A                      A                      A
 Frequencies --    636.2127               668.1384               679.5046
 Red. masses --      6.3544                 6.0755                 4.0187
 Frc consts  --      1.5154                 1.5979                 1.0933
 IR Inten    --      0.5238                 2.8017                 1.8660

                     25                     26                     27
                      A                      A                      A
 Frequencies --    706.5292               777.2135               813.0230
 Red. masses --      1.6034                 2.7962                 2.3523
 Frc consts  --      0.4716                 0.9952                 0.9161
 IR Inten    --     34.6685                21.9626                 5.0451

                     28                     29                     30
                      A                      A                      A
 Frequencies --    840.3289               859.7528               923.6151
 Red. masses --      6.5880                 1.2745                 1.4812
 Frc consts  --      2.7410                 0.5550                 0.7445
 IR Inten    --     14.4944                 0.6384                13.7072

                     31                     32                     33
                      A                      A                      A
 Frequencies --    942.7353               946.5247               980.5374
 Red. masses --      1.5130                 5.4348                 1.3469
 Frc consts  --      0.7923                 2.8688                 0.7630
 IR Inten    --      0.8121                 2.3958                 0.6663

                     34                     35                     36
                      A                      A                      A
 Frequencies --    985.4297              1008.3391              1014.4938
 Red. masses --      2.0696                 1.2899                 3.8924
 Frc consts  --      1.1841                 0.7727                 2.3603
 IR Inten    --     18.7147                 0.2933                 2.2352

                     37                     38                     39
                      A                      A                      A
 Frequencies --   1022.2037              1029.5430              1053.3848
 Red. masses --      4.5332                 2.2175                 1.8858
 Frc consts  --      2.7908                 1.3849                 1.2329
 IR Inten    --      1.0706                 7.0455                 0.7873

                     40                     41                     42
                      A                      A                      A
 Frequencies --   1061.7009              1078.3709              1113.0314
 Red. masses --      2.2288                 1.6442                 1.5666
 Frc consts  --      1.4802                 1.1265                 1.1435
 IR Inten    --      3.7933                 6.4267                 1.6260

                     43                     44                     45
                      A                      A                      A
 Frequencies --   1138.9227              1160.2223              1195.7981
 Red. masses --      2.3079                 2.0731                 1.1022
 Frc consts  --      1.7639                 1.6442                 0.9286
 IR Inten    --     16.3225                17.5668                 0.3377

                     46                     47                     48
                      A                      A                      A
 Frequencies --   1221.3678              1251.1293              1277.5529
 Red. masses --      1.1754                 3.6787                 3.6877
 Frc consts  --      1.0331                 3.3927                 3.5462
 IR Inten    --     15.2357                75.7845                18.4819

                     49                     50                     51
                      A                      A                      A
 Frequencies --   1341.7046              1373.5683              1390.8269
 Red. masses --      2.6688                 2.1114                 2.7696
 Frc consts  --      2.8306                 2.3470                 3.1566
 IR Inten    --      8.5540                 8.2232                73.7048

                     52                     53                     54
                      A                      A                      A
 Frequencies --   1403.1699              1421.6993              1443.1196
 Red. masses --      2.0842                 1.8223                 3.0427
 Frc consts  --      2.4177                 2.1701                 3.7335
 IR Inten    --     32.4952               194.0530                14.0297

                     55                     56                     57
                      A                      A                      A
 Frequencies --   1448.7548              1484.4017              1491.1303
 Red. masses --      2.0827                 1.0596                 1.0489
 Frc consts  --      2.5755                 1.3756                 1.3741
 IR Inten    --     50.8653                 9.2032                 9.2768

                     58                     59                     60
                      A                      A                      A
 Frequencies --   1500.1957              1508.7779              1514.1925
 Red. masses --      2.4115                 1.0470                 1.1868
 Frc consts  --      3.1977                 1.4042                 1.6032
 IR Inten    --      6.8507                 6.1381                20.6242

                     61                     62                     63
                      A                      A                      A
 Frequencies --   1548.9775              1596.3239              1628.7085
 Red. masses --      2.3280                 7.7129                 6.6868
 Frc consts  --      3.2910                11.5800                10.4509
 IR Inten    --      3.1963               160.2505               254.1474

                     64                     65                     66
                      A                      A                      A
 Frequencies --   1645.4179              1665.7019              1798.3240
 Red. masses --      5.8663                 5.5414                11.0010
 Frc consts  --      9.3576                 9.0586                20.9613
 IR Inten    --      2.9019                 1.0429               109.5067

                     67                     68                     69
                      A                      A                      A
 Frequencies --   3064.6295              3068.0955              3121.5128
 Red. masses --      1.0377                 1.0359                 1.1003
 Frc consts  --      5.7422                 5.7451                 6.3167
 IR Inten    --      8.6220                 0.2806                 9.8616

                     70                     71                     72
                      A                      A                      A
 Frequencies --   3128.1523              3169.8487              3175.7089
 Red. masses --      1.0984                 1.1022                 1.1051
 Frc consts  --      6.3326                 6.5254                 6.5662
 IR Inten    --      4.1257                 9.6640                16.6094

                     73                     74                     75
                      A                      A                      A
 Frequencies --   3187.5137              3197.7196              3208.6875
 Red. masses --      1.0855                 1.0893                 1.0934
 Frc consts  --      6.4979                 6.5626                 6.6329
 IR Inten    --      0.5066                12.0171                34.7385

                     76                     77                     78
                      A                      A                      A
 Frequencies --   3218.5754              3237.3903              3258.7082
 Red. masses --      1.0951                 1.0920                 1.0905
 Frc consts  --      6.6841                 6.7434                 6.8226
 IR Inten    --     13.2087                 3.9032                 2.0098

 - Thermochemistry -
 -------------------
 Temperature   298.150 Kelvin.  Pressure   1.00000 Atm.
 Atom     1 has atomic number  6 and mass  12.00000

 Molecular mass:   212.09496 amu.
 Principal axes and moments of inertia in atomic units:
                           1         2         3
     Eigenvalues --  1818.218635811.346067597.30074
           X            0.99993   0.01178   0.00035
           Y           -0.01177   0.99993  -0.00189
           Z           -0.00038   0.00189   1.00000
 This molecule is an asymmetric top.
 Rotational symmetry number  1.
 Warning -- assumption of classical behavior for rotation
           may cause significant error
 Rotational temperatures (Kelvin)      0.04764     0.01490     0.01140
 Rotational constants (GHZ):           0.99259     0.31055     0.23755
 Zero-point vibrational energy     585878.4 (Joules/Mol)
                                  140.02830 (Kcal/Mol)
 Warning -- explicit consideration of  20 degrees of freedom as
           vibrations may cause significant error
 Vibrational temperatures:     22.74    49.62    67.46   120.59   150.38
          (Kelvin)            186.48   217.62   266.15   274.50   338.16
                              402.93   444.06   562.60   593.50   623.33
                              658.68   691.50   795.13   840.17   889.63
                              903.72   915.37   961.30   977.66  1016.54
                             1118.24  1169.76  1209.05  1236.99  1328.88
                             1356.39  1361.84  1410.77  1417.81  1450.77
                             1459.63  1470.72  1481.28  1515.59  1527.55
                             1551.54  1601.40  1638.66  1669.30  1720.49
                             1757.28  1800.10  1838.11  1930.41  1976.26
                             2001.09  2018.85  2045.51  2076.33  2084.43
                             2135.72  2145.40  2158.45  2170.79  2178.59
                             2228.63  2296.75  2343.35  2367.39  2396.57
                             2587.39  4409.32  4414.31  4491.16  4500.71
                             4560.71  4569.14  4586.12  4600.81  4616.59
                             4630.81  4657.88  4688.55

 Zero-point correction=                           0.223149 (Hartree/Particle)
 Thermal correction to Energy=                    0.237425
 Thermal correction to Enthalpy=                  0.238369
 Thermal correction to Gibbs Free Energy=         0.179361
 Sum of electronic and zero-point Energies=           -687.190132
 Sum of electronic and thermal Energies=              -687.175856
 Sum of electronic and thermal Enthalpies=            -687.174912
 Sum of electronic and thermal Free Energies=         -687.233920

                     E (Thermal)             CV                S
                      KCal/Mol        Cal/Mol-Kelvin    Cal/Mol-Kelvin
 Total                  148.987             53.017            124.194
 Electronic               0.000              0.000              0.000
 Translational            0.889              2.981             41.959
 Rotational               0.889              2.981             32.751
 Vibrational            147.209             47.056             49.484
 Vibration     1          0.593              1.986              7.102
 Vibration     2          0.594              1.983              5.553
 Vibration     3          0.595              1.979              4.945
 Vibration     4          0.601              1.960              3.800
 Vibration     5          0.605              1.946              3.368
 Vibration     6          0.612              1.924              2.952
 Vibration     7          0.619              1.901              2.656
 Vibration     8          0.631              1.860              2.278
 Vibration     9          0.634              1.853              2.220
 Vibration    10          0.655              1.787              1.840
 Vibration    11          0.680              1.710              1.533
 Vibration    12          0.698              1.657              1.370
 Vibration    13          0.759              1.489              0.996
 Vibration    14          0.776              1.443              0.918
 Vibration    15          0.794              1.398              0.848
 Vibration    16          0.816              1.344              0.773
 Vibration    17          0.837              1.293              0.708
 Vibration    18          0.908              1.134              0.539
 Vibration    19          0.941              1.066              0.478
 Vibration    20          0.978              0.993              0.419

 Optimization completed.
    -- Stationary point found.
 Normal termination of Gaussian 16 at Fri Dec 11 00:27:51 2020.

 ----------------------------------------------------------------------
 # B3LYP/6-311++G(d,p) empiricaldispersion=gd3bj scf=xqc pop=npa geom=c
 heck
 ----------------------------------------------------------------------

 --------------------------------------
 CID_12385097_JID_6681_Energie_neutraal
 --------------------------------------
 Structure from the checkpoint file:  "JID_6681.chk"
 Charge =  0 Multiplicity = 1

 SCF Done:  E(RB3LYP) =  -687.591495196     A.U. after   15 cycles
 Normal termination of Gaussian 16 at Fri Dec 11 00:30:45 2020.

 ----------------------------------------------------------------------
 # B3LYP/6-311++G(d,p) empiricaldispersion=gd3bj scf=xqc pop=npa geom=c
 heck
 ----------------------------------------------------------------------

 ------------------------------------
 CID_12385097_JID_6681_Energie_kation
 ------------------------------------
 Structure from the checkpoint file:  "JID_6681.chk"
 Charge =  1 Multiplicity = 2

 SCF Done:  E(UB3LYP) =  -687.275568973     A.U. after   33 cycles
 SCF Done:  E(UB3LYP) =  -687.275568973     a.u. after    1 cycles
 Normal termination of Gaussian 16 at Fri Dec 11 00:39:25 2020.
 Gaussian 16:  ES64L-G16RevA.03 25-Dec-2016

 ----------------------------------------------------------------------
 # B3LYP/6-311++G(d,p) empiricaldispersion=gd3bj scf=xqc pop=npa geom=c
 heck
 ----------------------------------------------------------------------

 -----------------------------------
 CID_12385097_JID_6681_Energie_anion
 -----------------------------------
 Structure from the checkpoint file:  "JID_6681.chk"
 Charge = -1 Multiplicity = 2

                         Standard orientation:
 ---------------------------------------------------------------------
 Center     Atomic      Atomic             Coordinates (Angstroms)
 Number     Number       Type             X           Y           Z
 ---------------------------------------------------------------------
      1          6           0        1.648487    3.274577    0.076224
      2          6           0        1.291095    1.814394    0.042581
      3          7           0       -0.013446    1.511833    0.037782
      4          6           0       -0.370703    0.215302    0.009164
      5          6           0        0.615163   -0.781926   -0.023183
      6          6           0        1.939985   -0.366018   -0.010693
      7          7           0        2.296411    0.927670    0.024070
      8          6           0        3.044848   -1.396629   -0.041202
      9          8           0        2.764884   -2.582723   -0.076699
     10          6           0        4.466126   -0.889489   -0.025551
     11          6           0       -1.821785   -0.084251    0.005180
     12          6           0       -2.743657    0.965866   -0.132171
     13          6           0       -4.111169    0.710004   -0.143881
     14          6           0       -4.582790   -0.598021   -0.014079
     15          6           0       -3.675360   -1.648756    0.129081
     16          6           0       -2.306198   -1.394934    0.138338
     17          1           0        1.194316    3.795390   -0.773471
     18          1           0        1.253282    3.739637    0.986103
     19          1           0        2.731947    3.400626    0.046110
     20          1           0        0.398307   -1.840744   -0.065653
     21          1           0        4.642695   -0.230454   -0.882280
     22          1           0        4.641324   -0.279937    0.867342
     23          1           0        5.151578   -1.738109   -0.049072
     24          1           0       -2.363351    1.975922   -0.228576
     25          1           0       -4.811685    1.532824   -0.254623
     26          1           0       -5.650597   -0.797450   -0.022337
     27          1           0       -4.033368   -2.668494    0.236561
     28          1           0       -1.618516   -2.224658    0.261665
 ---------------------------------------------------------------------

 SCF Done:  E(UB3LYP) =  -687.628769217     A.U. after   22 cycles

 The electronic state is 2-A.
 Alpha  occ. eigenvalues --  -18.94955 -14.15000 -14.14557 -10.09616 -10.09509
 Alpha  occ. eigenvalues --  -10.06846 -10.06170 -10.06134 -10.05840 -10.05721
 Alpha  occ. eigenvalues --  -10.05612 -10.05077 -10.04711 -10.04418 -10.03628
 Alpha  occ. eigenvalues --  -10.03392  -0.88928  -0.83205  -0.74867  -0.72935
 Alpha  occ. eigenvalues --   -0.66764  -0.63228  -0.62732  -0.60601  -0.58594
 Alpha  occ. eigenvalues --   -0.52768  -0.50344  -0.48141  -0.46004  -0.41572
 Alpha  occ. eigenvalues --   -0.39180  -0.37440  -0.34999  -0.34054  -0.32692
 Alpha  occ. eigenvalues --   -0.31715  -0.30945  -0.30555  -0.30242  -0.29944
 Alpha  occ. eigenvalues --   -0.28102  -0.27085  -0.26881  -0.26790  -0.24828
 Alpha  occ. eigenvalues --   -0.24683  -0.22939  -0.22742  -0.22258  -0.18419
 Alpha  occ. eigenvalues --   -0.15373  -0.14685  -0.14040  -0.11576  -0.11435
 Alpha  occ. eigenvalues --   -0.09519   0.01976
 Alpha virt. eigenvalues --    0.07623   0.07754   0.08805   0.09287   0.09809
 Alpha virt. eigenvalues --    0.10000   0.10700   0.11876   0.12354   0.12943
 Alpha virt. eigenvalues --    0.13275   0.13516   0.14184   0.14892   0.15300

  Beta  occ. eigenvalues --  -18.94526 -14.14674 -14.14132 -10.09702 -10.09352
  Beta  occ. eigenvalues --  -10.06656 -10.06183 -10.06178 -10.05713 -10.05707
  Beta  occ. eigenvalues --  -10.05562 -10.04809 -10.04612 -10.04416 -10.03645
  Beta  occ. eigenvalues --  -10.03480  -0.88175  -0.82656  -0.74514  -0.72375
  Beta  occ. eigenvalues --   -0.66499  -0.63118  -0.62521  -0.60409  -0.58466
  Beta  occ. eigenvalues --   -0.52160  -0.50181  -0.47917  -0.45909  -0.41383
  Beta  occ. eigenvalues --   -0.38875  -0.37214  -0.34795  -0.33952  -0.32603
  Beta  occ. eigenvalues --   -0.31173  -0.30889  -0.30437  -0.29834  -0.29784
  Beta  occ. eigenvalues --   -0.27908  -0.26931  -0.26654  -0.26355  -0.24438
  Beta  occ. eigenvalues --   -0.24132  -0.22879  -0.22607  -0.20580  -0.16904
  Beta  occ. eigenvalues --   -0.14928  -0.14106  -0.12637  -0.11125  -0.10674
  Beta  occ. eigenvalues --   -0.09073
  Beta virt. eigenvalues --    0.07558   0.07607   0.08698   0.08786   0.09263
  Beta virt. eigenvalues --    0.09790   0.10621   0.10690   0.11920   0.12326
  Beta virt. eigenvalues --    0.12935   0.13266   0.13774   0.14567   0.14942

 Mulliken charges and spin densities:
               1          2
     1  C   -0.389858   0.017212
     2  C   -0.027098  -0.047090
     3  N   -0.007268   0.221873
     4  C    0.037896   0.105975
     5  C   -0.622031  -0.064291
     6  C   -0.063629   0.203370
     7  N   -0.025644   0.164483
     8  C   -0.031996   0.079394
     9  O   -0.373051   0.147907
    10  C   -0.602917  -0.001516
    11  C    0.938729  -0.023569
    12  C   -0.043125   0.091564
    13  C   -0.473229  -0.029775
    14  C   -0.260577   0.102358
    15  C   -0.439385  -0.011340
    16  C   -0.290659   0.038408
    17  H    0.131910   0.001315
    18  H    0.137756   0.000685
    19  H    0.137246  -0.001163
    20  H    0.181179   0.004262
    21  H    0.140819   0.007715
    22  H    0.142731   0.007703
    23  H    0.141574  -0.000679
    24  H    0.191300  -0.008193
    25  H    0.133597   0.002242
    26  H    0.104926  -0.007754
    27  H    0.138792   0.000087
    28  H    0.092013  -0.001182
 Sum of Mulliken charges =  -1.00000   1.00000

 Dipole moment (field-independent basis, Debye):
    X=             -3.0287    Y=              1.9959    Z=              0.0648  Tot=              3.6278
 Quadrupole moment (field-independent basis, Debye-Ang):
   XX=           -134.3902   YY=           -116.7804   ZZ=           -101.9707
   XY=              9.8162   XZ=              0.4452   YZ=             -1.2699

 Summary of Natural Population Analysis:

                                       Natural Population
                Natural  -----------------------------------------------
    Atom  No    Charge         Core      Valence    Rydberg      Total
 -----------------------------------------------------------------------
      C    1   -0.29779      0.99963     2.29344    0.00472     3.29779
      C    2    0.19634      0.99964     1.78731    0.01671     2.80366
      N    3   -0.20873      0.99964     2.69617    0.01292     3.70873
      C    4    0.13256      0.99953     1.85544    0.01247     2.86744
      C    5   -0.13491      0.99947     2.12817    0.00726     3.13491
      C    6    0.11414      0.99949     1.87317    0.01320     2.88586
      N    7   -0.21727      0.99966     2.70788    0.00974     3.71727
      C    8    0.28654      0.99966     1.69323    0.02057     2.71346
      O    9   -0.25680      0.99988     3.24947    0.00745     4.25680
      C   10   -0.33169      0.99964     2.32736    0.00469     3.33169
      C   11   -0.02438      0.99939     2.01492    0.01007     3.02438
      C   12   -0.07874      0.99958     2.06920    0.00997     3.07874
      C   13   -0.10899      0.99945     2.10040    0.00914     3.10899
      C   14   -0.09201      0.99960     2.08206    0.01035     3.09201
      C   15   -0.11700      0.99959     2.10800    0.00941     3.11700
      C   16   -0.07606      0.99945     2.06896    0.00765     3.07606
      H   17    0.09979      0.00000     0.39930    0.00090     0.40021
      H   18    0.09988      0.00000     0.39922    0.00090     0.40012
      H   19    0.10120      0.00000     0.39799    0.00081     0.39880
      H   20    0.10934      0.00000     0.38905    0.00162     0.39066
      H   21    0.10901      0.00000     0.39003    0.00096     0.39099
      H   22    0.10899      0.00000     0.39005    0.00096     0.39101
      H   23    0.09667      0.00000     0.40175    0.00158     0.40333
      H   24    0.11518      0.00000     0.38387    0.00095     0.38482
      H   25    0.09253      0.00000     0.40630    0.00117     0.40747
      H   26    0.09060      0.00000     0.40831    0.00109     0.40940
      H   27    0.09329      0.00000     0.40561    0.00109     0.40671
      H   28    0.09833      0.00000     0.39997    0.00170     0.40167
 =======================================================================
   * Total *    0.00001     15.99329    39.82664    0.18006    55.99999

 Normal termination of Gaussian 16 at Fri Dec 11 00:45:09 2020.
