 Gaussian 16, Revision A.03,

 -----------------------------------------------------------
 # opt freq B3LYP/6-31G(d) empiricaldispersion=gd3bj scf=xqc
 -----------------------------------------------------------

 -------------------------------
 CID_146007999_JID_8509_neutraal
 -------------------------------
 Symbolic Z-matrix:
 Charge =  0 Multiplicity = 1

 SCF Done:  E(RB3LYP) =  -808.169710395     A.U. after   15 cycles
 SCF Done:  E(RB3LYP) =  -808.174020638     A.U. after   13 cycles
 SCF Done:  E(RB3LYP) =  -808.174611166     A.U. after   15 cycles
 SCF Done:  E(RB3LYP) =  -808.176682912     A.U. after   13 cycles
 SCF Done:  E(RB3LYP) =  -808.177327748     A.U. after   13 cycles
 SCF Done:  E(RB3LYP) =  -808.177310264     A.U. after   14 cycles
 SCF Done:  E(RB3LYP) =  -808.177998735     A.U. after   14 cycles
 SCF Done:  E(RB3LYP) =  -808.179015769     A.U. after   12 cycles
 SCF Done:  E(RB3LYP) =  -808.179293233     A.U. after   13 cycles
 SCF Done:  E(RB3LYP) =  -808.180530990     A.U. after   13 cycles
 SCF Done:  E(RB3LYP) =  -808.182686797     A.U. after   10 cycles
 SCF Done:  E(RB3LYP) =  -808.182688712     A.U. after   10 cycles
 SCF Done:  E(RB3LYP) =  -808.182690812     A.U. after   10 cycles
 SCF Done:  E(RB3LYP) =  -808.182691887     A.U. after   10 cycles
 SCF Done:  E(RB3LYP) =  -808.182692003     A.U. after    8 cycles
 SCF Done:  E(RB3LYP) =  -808.182692017     A.U. after    6 cycles
 Optimization completed.
    -- Stationary point found.
 Normal termination of Gaussian 16 at Fri Dec 11 21:06:42 2020.

 --------------------------------------------------------------------
 #N Geom=AllCheck Guess=TCheck SCRF=Check GenChk RB3LYP/6-31G(d) Freq
 --------------------------------------------------------------------

 Structure from the checkpoint file:  "JID_8509.chk"
 -------------------------------
 CID_146007999_JID_8509_neutraal
 -------------------------------
 Charge =  0 Multiplicity = 1

 SCF Done:  E(RB3LYP) =  -808.182692017     A.U. after    1 cycles

  Exact polarizability: 233.194  45.004 139.497   7.387 -22.460 133.935
 Approx polarizability: 321.463  74.857 218.207   7.600 -61.411 234.101

                      1                      2                      3
                      A                      A                      A
 Frequencies --     18.7184                24.3089                27.4699
 Red. masses --      4.9159                 4.1816                 3.5478
 Frc consts  --      0.0010                 0.0015                 0.0016
 IR Inten    --      0.1261                 0.4047                 0.4329

                      4                      5                      6
                      A                      A                      A
 Frequencies --     43.5136                66.4088                85.1919
 Red. masses --      3.6902                 4.4742                 3.0963
 Frc consts  --      0.0041                 0.0116                 0.0132
 IR Inten    --      1.5063                 0.7872                 0.9931

                      7                      8                      9
                      A                      A                      A
 Frequencies --     99.3972               108.1058               124.0576
 Red. masses --      4.3146                 3.3294                 4.5595
 Frc consts  --      0.0251                 0.0229                 0.0413
 IR Inten    --      0.4725                 0.1365                 0.9139

                     10                     11                     12
                      A                      A                      A
 Frequencies --    163.1874               196.5205               239.4664
 Red. masses --      3.6248                 3.5107                 1.7567
 Frc consts  --      0.0569                 0.0799                 0.0594
 IR Inten    --      2.5638                 6.3896                 4.5399

                     13                     14                     15
                      A                      A                      A
 Frequencies --    248.7285               265.3308               286.0678
 Red. masses --      1.8307                 2.9957                 2.8823
 Frc consts  --      0.0667                 0.1243                 0.1390
 IR Inten    --      1.4642                 0.8612                 1.8681

                     16                     17                     18
                      A                      A                      A
 Frequencies --    304.6898               323.6910               386.4584
 Red. masses --      4.6900                 2.0951                 3.2579
 Frc consts  --      0.2565                 0.1293                 0.2867
 IR Inten    --      5.4291                 8.7286                 3.8315

                     19                     20                     21
                      A                      A                      A
 Frequencies --    412.4059               414.8932               448.2368
 Red. masses --      2.9827                 2.8465                 2.7958
 Frc consts  --      0.2989                 0.2887                 0.3310
 IR Inten    --      0.1384                 0.8936                 2.9570

                     22                     23                     24
                      A                      A                      A
 Frequencies --    464.9668               479.5185               498.3845
 Red. masses --      2.7344                 4.4467                 3.4727
 Frc consts  --      0.3483                 0.6024                 0.5082
 IR Inten    --      6.8023                 9.3804                 3.9397

                     25                     26                     27
                      A                      A                      A
 Frequencies --    577.1631               611.5526               632.9430
 Red. masses --      2.5211                 3.5498                 3.8679
 Frc consts  --      0.4948                 0.7822                 0.9130
 IR Inten    --      4.5536                 1.6029                 3.9097

                     28                     29                     30
                      A                      A                      A
 Frequencies --    653.1186               657.8156               704.2023
 Red. masses --      5.9324                 1.9586                 2.5698
 Frc consts  --      1.4909                 0.4994                 0.7508
 IR Inten    --      0.6012                 1.5794                 4.9500

                     31                     32                     33
                      A                      A                      A
 Frequencies --    764.6449               765.1980               804.1383
 Red. masses --      2.5383                 2.6142                 1.7914
 Frc consts  --      0.8744                 0.9019                 0.6825
 IR Inten    --      6.2454                 0.2866                13.4283

                     34                     35                     36
                      A                      A                      A
 Frequencies --    819.1225               835.0495               850.0748
 Red. masses --      2.6051                 2.1991                 1.5314
 Frc consts  --      1.0298                 0.9035                 0.6520
 IR Inten    --     12.3256                19.6470                 1.4294

                     37                     38                     39
                      A                      A                      A
 Frequencies --    867.1650               878.0055               888.0437
 Red. masses --      2.3097                 1.6618                 2.9204
 Frc consts  --      1.0233                 0.7548                 1.3569
 IR Inten    --     13.7051                16.4717                12.1663

                     40                     41                     42
                      A                      A                      A
 Frequencies --    928.8464               933.0901               964.8038
 Red. masses --      2.4055                 1.3767                 1.3413
 Frc consts  --      1.2227                 0.7062                 0.7356
 IR Inten    --      6.4329                33.4452                 0.6402

                     43                     44                     45
                      A                      A                      A
 Frequencies --    993.2240              1006.4259              1019.4237
 Red. masses --      1.3754                 3.8802                 2.2803
 Frc consts  --      0.7994                 2.3156                 1.3962
 IR Inten    --      1.9056                51.4878                 1.7280

                     46                     47                     48
                      A                      A                      A
 Frequencies --   1036.7161              1040.6291              1045.1733
 Red. masses --      1.1316                 2.5830                 1.7378
 Frc consts  --      0.7166                 1.6480                 1.1185
 IR Inten    --     13.8056                 0.5539                 4.9768

                     49                     50                     51
                      A                      A                      A
 Frequencies --   1061.5724              1070.7281              1107.8009
 Red. masses --      1.5324                 3.2301                 2.6740
 Frc consts  --      1.0175                 2.1818                 1.9335
 IR Inten    --      7.4974                25.9017                15.2752

                     52                     53                     54
                      A                      A                      A
 Frequencies --   1134.8373              1152.7502              1173.1286
 Red. masses --      1.9999                 1.3724                 1.6363
 Frc consts  --      1.5175                 1.0745                 1.3268
 IR Inten    --     26.1122                 9.9873               147.6671

                     55                     56                     57
                      A                      A                      A
 Frequencies --   1201.3994              1210.1604              1216.3172
 Red. masses --      1.2183                 1.6838                 1.3232
 Frc consts  --      1.0360                 1.4528                 1.1534
 IR Inten    --      8.1022                14.5881                30.0029

                     58                     59                     60
                      A                      A                      A
 Frequencies --   1247.9552              1251.6023              1285.0028
 Red. masses --      2.1051                 2.3667                 2.2182
 Frc consts  --      1.9316                 2.1844                 2.1580
 IR Inten    --     10.1713                23.7699               335.5804

                     61                     62                     63
                      A                      A                      A
 Frequencies --   1307.5119              1337.8122              1345.0934
 Red. masses --      1.3130                 1.5765                 1.1292
 Frc consts  --      1.3225                 1.6624                 1.2038
 IR Inten    --      7.6351                 6.7991                11.9038

                     64                     65                     66
                      A                      A                      A
 Frequencies --   1354.7394              1372.7014              1375.3482
 Red. masses --      2.1782                 1.5376                 1.8319
 Frc consts  --      2.3554                 1.7071                 2.0416
 IR Inten    --     11.1657                23.6679                 3.9569

                     67                     68                     69
                      A                      A                      A
 Frequencies --   1397.9221              1415.4558              1421.6778
 Red. masses --      1.4203                 1.5408                 1.3509
 Frc consts  --      1.6353                 1.8188                 1.6087
 IR Inten    --      2.4237                34.5062                16.7684

                     70                     71                     72
                      A                      A                      A
 Frequencies --   1443.3424              1455.3561              1483.1941
 Red. masses --      1.3258                 2.5201                 1.3481
 Frc consts  --      1.6273                 3.1449                 1.7473
 IR Inten    --      6.6290                24.1519                 8.8433

                     73                     74                     75
                      A                      A                      A
 Frequencies --   1497.5457              1508.0085              1515.7527
 Red. masses --      1.0868                 1.0877                 1.0894
 Frc consts  --      1.4361                 1.4573                 1.4747
 IR Inten    --      5.4619                 7.7130                 8.7637

                     76                     77                     78
                      A                      A                      A
 Frequencies --   1519.9649              1521.5434              1540.4893
 Red. masses --      1.0452                 1.1251                 1.0559
 Frc consts  --      1.4227                 1.5347                 1.4764
 IR Inten    --      5.0094                26.8552                11.6619

                     79                     80                     81
                      A                      A                      A
 Frequencies --   1559.0693              1615.8362              1666.2588
 Red. masses --      2.4085                 5.6821                 5.5954
 Frc consts  --      3.4493                 8.7409                 9.1531
 IR Inten    --      3.1620                 7.1689                74.3552

                     82                     83                     84
                      A                      A                      A
 Frequencies --   1714.4575              1768.5963              1820.0150
 Red. masses --      4.1827                11.1368                10.6874
 Frc consts  --      7.2438                20.5242                20.8580
 IR Inten    --      6.5068               164.7779               209.8335

                     85                     86                     87
                      A                      A                      A
 Frequencies --   3035.1311              3061.0746              3073.6606
 Red. masses --      1.0693                 1.0358                 1.0615
 Frc consts  --      5.8036                 5.7183                 5.9084
 IR Inten    --     17.6871                10.3720                25.4329

                     88                     89                     90
                      A                      A                      A
 Frequencies --   3094.2268              3094.7827              3096.6032
 Red. masses --      1.0665                 1.0592                 1.0892
 Frc consts  --      6.0163                 5.9770                 6.1535
 IR Inten    --     20.6944                25.7570                 5.6908

                     91                     92                     93
                      A                      A                      A
 Frequencies --   3123.0068              3130.4860              3136.3637
 Red. masses --      1.1024                 1.0988                 1.1059
 Frc consts  --      6.3348                 6.3443                 6.4096
 IR Inten    --     19.6044                29.5440                 0.5732

                     94                     95                     96
                      A                      A                      A
 Frequencies --   3157.8412              3158.5910              3165.8787
 Red. masses --      1.0848                 1.1086                 1.1013
 Frc consts  --      6.3733                 6.5163                 6.5035
 IR Inten    --     15.4927                22.2581                 8.7978

                     97                     98                     99
                      A                      A                      A
 Frequencies --   3175.4531              3187.0070              3201.7022
 Red. masses --      1.0647                 1.0894                 1.0863
 Frc consts  --      6.3256                 6.5195                 6.5611
 IR Inten    --      3.6303                17.8785                 9.2836

                    100                    101                    102
                      A                      A                      A
 Frequencies --   3219.4076              3228.4188              3253.7531
 Red. masses --      1.0931                 1.0921                 1.1157
 Frc consts  --      6.6754                 6.7063                 6.9596
 IR Inten    --     10.8583                 2.4249                14.0033

 - Thermochemistry -
 -------------------
 Temperature   298.150 Kelvin.  Pressure   1.00000 Atm.
 Atom     1 has atomic number  6 and mass  12.00000

 Molecular mass:   246.12559 amu.
 Principal axes and moments of inertia in atomic units:
                           1         2         3
     Eigenvalues --  2468.525597799.386359078.49244
           X            0.99990   0.01365   0.00208
           Y           -0.01365   0.99991   0.00006
           Z           -0.00208  -0.00009   1.00000
 This molecule is an asymmetric top.
 Rotational symmetry number  1.
 Warning -- assumption of classical behavior for rotation
           may cause significant error
 Rotational temperatures (Kelvin)      0.03509     0.01111     0.00954
 Rotational constants (GHZ):           0.73110     0.23140     0.19879
 Zero-point vibrational energy     793546.6 (Joules/Mol)
                                  189.66218 (Kcal/Mol)
 Warning -- explicit consideration of  26 degrees of freedom as
           vibrations may cause significant error
 Vibrational temperatures:     26.93    34.98    39.52    62.61    95.55
          (Kelvin)            122.57   143.01   155.54   178.49   234.79
                              282.75   344.54   357.86   381.75   411.59
                              438.38   465.72   556.03   593.36   596.94
                              644.91   668.98   689.92   717.06   830.41
                              879.89   910.66   939.69   946.45  1013.19
                             1100.15  1100.95  1156.98  1178.53  1201.45
                             1223.07  1247.66  1263.25  1277.70  1336.40
                             1342.51  1388.14  1429.03  1448.02  1466.72
                             1491.60  1497.23  1503.77  1527.37  1540.54
                             1593.88  1632.78  1658.55  1687.87  1728.55
                             1741.15  1750.01  1795.53  1800.78  1848.83
                             1881.22  1924.81  1935.29  1949.17  1975.01
                             1978.82  2011.30  2036.53  2045.48  2076.65
                             2093.93  2133.99  2154.63  2169.69  2180.83
                             2186.89  2189.16  2216.42  2243.15  2324.83
                             2397.37  2466.72  2544.62  2618.60  4366.88
                             4404.20  4422.31  4451.90  4452.70  4455.32
                             4493.31  4504.07  4512.53  4543.43  4544.51
                             4554.99  4568.77  4585.39  4606.54  4632.01
                             4644.97  4681.42

 Zero-point correction=                           0.302246 (Hartree/Particle)
 Thermal correction to Energy=                    0.320282
 Thermal correction to Enthalpy=                  0.321226
 Thermal correction to Gibbs Free Energy=         0.253067
 Sum of electronic and zero-point Energies=           -807.880446
 Sum of electronic and thermal Energies=              -807.862410
 Sum of electronic and thermal Enthalpies=            -807.861466
 Sum of electronic and thermal Free Energies=         -807.929625

                     E (Thermal)             CV                S
                      KCal/Mol        Cal/Mol-Kelvin    Cal/Mol-Kelvin
 Total                  200.980             66.569            143.453
 Electronic               0.000              0.000              0.000
 Translational            0.889              2.981             42.403
 Rotational               0.889              2.981             33.524
 Vibrational            199.203             60.607             67.526
 Vibration     1          0.593              1.986              6.766
 Vibration     2          0.593              1.985              6.247
 Vibration     3          0.593              1.984              6.004
 Vibration     4          0.595              1.980              5.092
 Vibration     5          0.598              1.970              4.257
 Vibration     6          0.601              1.959              3.768
 Vibration     7          0.604              1.950              3.466
 Vibration     8          0.606              1.943              3.303
 Vibration     9          0.610              1.929              3.036
 Vibration    10          0.623              1.888              2.513
 Vibration    11          0.636              1.845              2.165
 Vibration    12          0.657              1.780              1.807
 Vibration    13          0.662              1.765              1.740
 Vibration    14          0.671              1.737              1.626
 Vibration    15          0.684              1.700              1.497
 Vibration    16          0.696              1.665              1.391
 Vibration    17          0.708              1.628              1.291
 Vibration    18          0.755              1.499              1.014
 Vibration    19          0.776              1.443              0.918
 Vibration    20          0.778              1.438              0.909
 Vibration    21          0.807              1.365              0.801
 Vibration    22          0.822              1.328              0.752
 Vibration    23          0.836              1.295              0.711
 Vibration    24          0.854              1.254              0.662
 Vibration    25          0.934              1.081              0.491
 Vibration    26          0.971              1.007              0.430

 Optimization completed.
    -- Stationary point found.
 Normal termination of Gaussian 16 at Fri Dec 11 21:22:03 2020.

 ----------------------------------------------------------------------
 # B3LYP/6-311++G(d,p) empiricaldispersion=gd3bj scf=xqc pop=npa geom=c
 heck
 ----------------------------------------------------------------------

 ---------------------------------------
 CID_146007999_JID_8509_Energie_neutraal
 ---------------------------------------
 Structure from the checkpoint file:  "JID_8509.chk"
 Charge =  0 Multiplicity = 1

 SCF Done:  E(RB3LYP) =  -808.407780339     A.U. after   15 cycles
 Normal termination of Gaussian 16 at Fri Dec 11 21:27:56 2020.

 ----------------------------------------------------------------------
 # B3LYP/6-311++G(d,p) empiricaldispersion=gd3bj scf=xqc pop=npa geom=c
 heck
 ----------------------------------------------------------------------

 -------------------------------------
 CID_146007999_JID_8509_Energie_kation
 -------------------------------------
 Structure from the checkpoint file:  "JID_8509.chk"
 Charge =  1 Multiplicity = 2

 SCF Done:  E(UB3LYP) =  -808.099451279     A.U. after   28 cycles
 Normal termination of Gaussian 16 at Fri Dec 11 21:43:00 2020.
 Gaussian 16:  ES64L-G16RevA.03 25-Dec-2016

 ----------------------------------------------------------------------
 # B3LYP/6-311++G(d,p) empiricaldispersion=gd3bj scf=xqc pop=npa geom=c
 heck
 ----------------------------------------------------------------------

 ------------------------------------
 CID_146007999_JID_8509_Energie_anion
 ------------------------------------
 Structure from the checkpoint file:  "JID_8509.chk"
 Charge = -1 Multiplicity = 2

                         Standard orientation:
 ---------------------------------------------------------------------
 Center     Atomic      Atomic             Coordinates (Angstroms)
 Number     Number       Type             X           Y           Z
 ---------------------------------------------------------------------
      1          6           0       -0.869225    2.685110   -0.202115
      2          6           0       -1.774012    2.393926    0.984571
      3          8           0       -2.184511    1.007252    1.004651
      4          6           0       -3.253184    0.681748    0.236970
      5          8           0       -3.865305    1.480575   -0.440985
      6          6           0       -3.523995   -0.804155    0.291429
      7          6           0       -2.959474   -1.507448   -0.961853
      8          6           0       -1.484176   -1.195627   -1.228896
      9          6           0       -0.554767   -1.634504   -0.103616
     10          8           0       -0.931511   -2.433008    0.743152
     11          6           0        0.832539   -1.082702   -0.061895
     12          6           0        1.365891   -0.269912   -1.075923
     13          6           0        2.661702    0.220327   -0.985589
     14          6           0        3.471479   -0.079029    0.124690
     15          6           0        2.931553   -0.898549    1.132359
     16          6           0        1.638729   -1.394662    1.041145
     17          6           0        4.843748    0.421994    0.275323
     18          6           0        5.504529    1.232339   -0.560541
     19          1           0        0.003620    2.025225   -0.196223
     20          1           0       -0.518254    3.722403   -0.157861
     21          1           0       -1.416573    2.550013   -1.139492
     22          1           0       -1.248674    2.533744    1.932004
     23          1           0       -2.666749    3.023457    0.964997
     24          1           0       -3.073838   -1.231809    1.187713
     25          1           0       -4.607988   -0.947610    0.326728
     26          1           0       -3.089206   -2.586119   -0.834759
     27          1           0       -3.542287   -1.199587   -1.836616
     28          1           0       -1.157067   -1.706827   -2.146283
     29          1           0       -1.349212   -0.126331   -1.422522
     30          1           0        0.770455   -0.020820   -1.947820
     31          1           0        3.049516    0.841420   -1.786588
     32          1           0        3.542930   -1.143094    1.997330
     33          1           0        1.222723   -2.027316    1.817706
     34          1           0        5.353695    0.082478    1.176164
     35          1           0        6.523037    1.541387   -0.348484
     36          1           0        5.066456    1.617694   -1.476899
 ---------------------------------------------------------------------

 SCF Done:  E(UB3LYP) =  -808.435549381     A.U. after   21 cycles

 The electronic state is 2-A.
 Alpha  occ. eigenvalues --  -19.06827 -19.01587 -18.94023 -10.20312 -10.13438
 Alpha  occ. eigenvalues --  -10.08737 -10.07544 -10.07037 -10.06865 -10.05203
 Alpha  occ. eigenvalues --  -10.03852 -10.03574 -10.03112 -10.03076 -10.02988
 Alpha  occ. eigenvalues --  -10.02250 -10.02185 -10.02013  -1.00824  -0.92377
 Alpha  occ. eigenvalues --   -0.88115  -0.71822  -0.70434  -0.67285  -0.65345
 Alpha  occ. eigenvalues --   -0.61889  -0.60560  -0.59045  -0.56071  -0.51790
 Alpha  occ. eigenvalues --   -0.48526  -0.46848  -0.45753  -0.42560  -0.41190
 Alpha  occ. eigenvalues --   -0.39942  -0.39218  -0.38146  -0.36896  -0.35287
 Alpha  occ. eigenvalues --   -0.34048  -0.33432  -0.32659  -0.31156  -0.30910
 Alpha  occ. eigenvalues --   -0.30139  -0.29128  -0.28997  -0.28468  -0.28038
 Alpha  occ. eigenvalues --   -0.26950  -0.25925  -0.25220  -0.24596  -0.24007
 Alpha  occ. eigenvalues --   -0.23641  -0.22891  -0.21544  -0.21064  -0.20947
 Alpha  occ. eigenvalues --   -0.19715  -0.18250  -0.16568  -0.12139  -0.10181
 Alpha  occ. eigenvalues --   -0.09611   0.02857
 Alpha virt. eigenvalues --    0.07584   0.07929   0.08739   0.09054   0.09961
 Alpha virt. eigenvalues --    0.10096   0.10674   0.10729   0.10942   0.11375
 Alpha virt. eigenvalues --    0.11944   0.12399   0.12714   0.12887   0.13555

  Beta  occ. eigenvalues --  -19.06825 -19.01586 -18.93610 -10.20311 -10.13437
  Beta  occ. eigenvalues --  -10.08496 -10.07542 -10.07034 -10.06863 -10.05226
  Beta  occ. eigenvalues --  -10.03867 -10.03535 -10.03104 -10.03100 -10.02710
  Beta  occ. eigenvalues --  -10.02045 -10.01951 -10.01845  -1.00822  -0.92375
  Beta  occ. eigenvalues --   -0.87365  -0.71494  -0.70414  -0.67255  -0.64898
  Beta  occ. eigenvalues --   -0.61716  -0.60333  -0.58649  -0.56014  -0.51481
  Beta  occ. eigenvalues --   -0.48047  -0.46736  -0.45720  -0.42201  -0.41067
  Beta  occ. eigenvalues --   -0.39754  -0.39175  -0.38100  -0.36760  -0.35135
  Beta  occ. eigenvalues --   -0.33967  -0.33275  -0.32559  -0.30970  -0.30840
  Beta  occ. eigenvalues --   -0.29980  -0.28968  -0.28822  -0.28361  -0.27963
  Beta  occ. eigenvalues --   -0.26759  -0.25497  -0.25103  -0.24420  -0.23899
  Beta  occ. eigenvalues --   -0.23007  -0.22750  -0.21044  -0.20751  -0.19940
  Beta  occ. eigenvalues --   -0.19608  -0.18237  -0.15263  -0.11400  -0.09782
  Beta  occ. eigenvalues --   -0.07966
  Beta virt. eigenvalues --    0.07532   0.07859   0.08292   0.08726   0.09040
  Beta virt. eigenvalues --    0.09947   0.10092   0.10645   0.10740   0.11058
  Beta virt. eigenvalues --    0.11801   0.12114   0.12353   0.12716   0.13341

 Mulliken charges and spin densities:
               1          2
     1  C   -0.497690  -0.015294
     2  C   -0.187834   0.003173
     3  O    0.086059  -0.000884
     4  C   -0.278521   0.006673
     5  O   -0.247345  -0.000602
     6  C   -0.161051  -0.009066
     7  C   -0.530181  -0.030459
     8  C    0.200373   0.005925
     9  C   -0.550576   0.107718
    10  O   -0.332379   0.149060
    11  C    0.487766   0.054419
    12  C   -0.637490   0.078193
    13  C   -0.811230   0.037786
    14  C    0.885202   0.188388
    15  C   -0.183590   0.001187
    16  C   -0.071533   0.170388
    17  C   -0.162182  -0.080931
    18  C   -0.573609   0.305799
    19  H    0.208567   0.004019
    20  H    0.107690   0.006461
    21  H    0.177388   0.003091
    22  H    0.153529   0.001876
    23  H    0.151789  -0.000339
    24  H    0.229522   0.002750
    25  H    0.143699   0.001292
    26  H    0.171716   0.001641
    27  H    0.155085   0.004586
    28  H    0.155316   0.034933
    29  H    0.124637   0.003460
    30  H    0.120558   0.002609
    31  H    0.078287  -0.001721
    32  H    0.108630   0.002971
    33  H    0.181367  -0.008835
    34  H    0.095919  -0.002137
    35  H    0.113404  -0.012775
    36  H    0.088708  -0.015354
 Sum of Mulliken charges =  -1.00000   1.00000

 Dipole moment (field-independent basis, Debye):
    X=             -5.2969    Y=              2.9372    Z=             -0.1115  Tot=              6.0578
 Quadrupole moment (field-independent basis, Debye-Ang):
   XX=           -174.8686   YY=           -131.0246   ZZ=           -116.1855
   XY=             -0.5622   XZ=              1.5368   YZ=              5.7871

 Summary of Natural Population Analysis:

                                       Natural Population
                Natural  -----------------------------------------------
    Atom  No    Charge         Core      Valence    Rydberg      Total
 -----------------------------------------------------------------------
      C    1   -0.30413      0.99966     2.29999    0.00448     3.30413
      C    2   -0.01667      0.99959     2.00730    0.00979     3.01667
      O    3   -0.27688      0.99986     3.26770    0.00931     4.27688
      C    4    0.40979      0.99969     1.56432    0.02619     2.59021
      O    5   -0.31934      0.99987     3.31316    0.00632     4.31934
      C    6   -0.23737      0.99958     2.23038    0.00741     3.23737
      C    7   -0.18074      0.99963     2.17321    0.00790     3.18074
      C    8   -0.23671      0.99960     2.23034    0.00677     3.23671
      C    9    0.30487      0.99963     1.67507    0.02043     2.69513
      O   10   -0.27067      0.99988     3.26449    0.00630     4.27067
      C   11   -0.04780      0.99947     2.03690    0.01143     3.04780
      C   12   -0.09157      0.99956     2.08379    0.00822     3.09157
      C   13   -0.10013      0.99946     2.09140    0.00927     3.10013
      C   14    0.00914      0.99950     1.98191    0.00944     2.99086
      C   15   -0.10552      0.99954     2.09799    0.00799     3.10552
      C   16   -0.05326      0.99954     2.04491    0.00881     3.05326
      C   17   -0.10374      0.99956     2.09473    0.00945     3.10374
      C   18   -0.13504      0.99960     2.12785    0.00759     3.13504
      H   19    0.11656      0.00000     0.38239    0.00105     0.38344
      H   20    0.09689      0.00000     0.40229    0.00082     0.40311
      H   21    0.10218      0.00000     0.39680    0.00102     0.39782
      H   22    0.08972      0.00000     0.40931    0.00098     0.41028
      H   23    0.08920      0.00000     0.40937    0.00143     0.41080
      H   24    0.12289      0.00000     0.37595    0.00116     0.37711
      H   25    0.10274      0.00000     0.39617    0.00109     0.39726
      H   26    0.10433      0.00000     0.39442    0.00125     0.39567
      H   27    0.09314      0.00000     0.40568    0.00118     0.40686
      H   28    0.10843      0.00000     0.39050    0.00107     0.39157
      H   29    0.10108      0.00000     0.39761    0.00130     0.39892
      H   30    0.09199      0.00000     0.40679    0.00123     0.40801
      H   31    0.09532      0.00000     0.40412    0.00057     0.40468
      H   32    0.08908      0.00000     0.40947    0.00145     0.41092
      H   33    0.10392      0.00000     0.39465    0.00143     0.39608
      H   34    0.08522      0.00000     0.41310    0.00168     0.41478
      H   35    0.08152      0.00000     0.41735    0.00113     0.41848
      H   36    0.08160      0.00000     0.41729    0.00110     0.41840
 =======================================================================
   * Total *    0.00005     17.99322    47.80869    0.19805    65.99995

 Normal termination of Gaussian 16 at Fri Dec 11 21:54:43 2020.
