 Gaussian 16, Revision A.03,

 -----------------------------------------------------------
 # opt freq B3LYP/6-31G(d) empiricaldispersion=gd3bj scf=xqc
 -----------------------------------------------------------

 -------------------------------
 CID_131539586_JID_2027_neutraal
 -------------------------------
 Symbolic Z-matrix:
 Charge =  0 Multiplicity = 1

 SCF Done:  E(RB3LYP) =  -549.698282895     A.U. after   16 cycles
 SCF Done:  E(RB3LYP) =  -549.726993273     A.U. after   14 cycles
 SCF Done:  E(RB3LYP) =  -549.729412921     A.U. after   12 cycles
 SCF Done:  E(RB3LYP) =  -549.730077636     A.U. after   12 cycles
 SCF Done:  E(RB3LYP) =  -549.730392820     A.U. after   13 cycles
 SCF Done:  E(RB3LYP) =  -549.730590259     A.U. after   11 cycles
 SCF Done:  E(RB3LYP) =  -549.730690583     A.U. after   11 cycles
 SCF Done:  E(RB3LYP) =  -549.730700101     A.U. after    9 cycles
 SCF Done:  E(RB3LYP) =  -549.730703912     A.U. after   10 cycles
 SCF Done:  E(RB3LYP) =  -549.730704963     A.U. after    9 cycles
 SCF Done:  E(RB3LYP) =  -549.730705193     A.U. after    8 cycles
 SCF Done:  E(RB3LYP) =  -549.730705257     A.U. after    8 cycles
 Optimization completed.
    -- Stationary point found.
 Normal termination of Gaussian 16 at Wed Dec  9 16:44:45 2020.

 --------------------------------------------------------------------
 #N Geom=AllCheck Guess=TCheck SCRF=Check GenChk RB3LYP/6-31G(d) Freq
 --------------------------------------------------------------------

 Structure from the checkpoint file:  "JID_2027.chk"
 -------------------------------
 CID_131539586_JID_2027_neutraal
 -------------------------------
 Charge =  0 Multiplicity = 1

 SCF Done:  E(RB3LYP) =  -549.730705257     A.U. after    1 cycles

  Exact polarizability: 120.660 -10.886 108.472  -0.074   0.234  62.122
 Approx polarizability: 188.646 -35.100 162.414  -2.275   2.933 101.126

                      1                      2                      3
                      A                      A                      A
 Frequencies --     58.9129               110.7616               136.8150
 Red. masses --      5.6880                 4.4425                 2.4844
 Frc consts  --      0.0116                 0.0321                 0.0274
 IR Inten    --      8.7075                 6.2697                 5.6912

                      4                      5                      6
                      A                      A                      A
 Frequencies --    146.6976               191.8065               235.2038
 Red. masses --      4.6908                 1.8516                 1.9074
 Frc consts  --      0.0595                 0.0401                 0.0622
 IR Inten    --      2.6107                 1.9718                 1.5928

                      7                      8                      9
                      A                      A                      A
 Frequencies --    257.5999               277.3699               303.1623
 Red. masses --      3.0440                 3.3095                 4.5840
 Frc consts  --      0.1190                 0.1500                 0.2482
 IR Inten    --      1.7324                 3.6210                 1.8206

                     10                     11                     12
                      A                      A                      A
 Frequencies --    377.4945               446.3575               502.1398
 Red. masses --      4.1855                 8.2740                 5.5319
 Frc consts  --      0.3514                 0.9713                 0.8218
 IR Inten    --     21.3979                 0.5595                17.7535

                     13                     14                     15
                      A                      A                      A
 Frequencies --    535.8389               559.6395               584.8325
 Red. masses --      1.9455                 3.3597                 4.7546
 Frc consts  --      0.3291                 0.6200                 0.9581
 IR Inten    --    100.9760                 7.0827                15.8730

                     16                     17                     18
                      A                      A                      A
 Frequencies --    640.9784               656.3632               698.7229
 Red. masses --      5.0609                 4.6971                 3.1589
 Frc consts  --      1.2251                 1.1922                 0.9086
 IR Inten    --      1.9208                 9.6893                26.4122

                     19                     20                     21
                      A                      A                      A
 Frequencies --    734.5857               757.6599               869.3736
 Red. masses --      3.9079                 4.6851                 1.8467
 Frc consts  --      1.2424                 1.5846                 0.8223
 IR Inten    --     35.7662                25.0397                 2.1566

                     22                     23                     24
                      A                      A                      A
 Frequencies --    923.3532               941.5775               950.8097
 Red. masses --      5.1448                 2.7776                 3.4850
 Frc consts  --      2.5844                 1.4509                 1.8563
 IR Inten    --      1.9896                 0.3611                 1.3242

                     25                     26                     27
                      A                      A                      A
 Frequencies --   1024.5217              1057.9216              1066.4494
 Red. masses --      3.2265                 2.0152                 2.5924
 Frc consts  --      1.9954                 1.3289                 1.7372
 IR Inten    --      9.6900                 4.0260                 1.3259

                     28                     29                     30
                      A                      A                      A
 Frequencies --   1108.0805              1159.8126              1172.2214
 Red. masses --      3.0273                 1.4935                 1.3317
 Frc consts  --      2.1900                 1.1837                 1.0781
 IR Inten    --      4.0145                53.3292                 6.5032

                     31                     32                     33
                      A                      A                      A
 Frequencies --   1182.7176              1224.1155              1233.9204
 Red. masses --      2.4487                 1.7309                 1.7502
 Frc consts  --      2.0181                 1.5281                 1.5700
 IR Inten    --      3.4902                13.4908                16.7544

                     34                     35                     36
                      A                      A                      A
 Frequencies --   1288.7113              1293.1818              1321.6320
 Red. masses --      1.3589                 1.6849                 1.2834
 Frc consts  --      1.3297                 1.6602                 1.3208
 IR Inten    --      1.2202                13.2869                 0.7917

                     37                     38                     39
                      A                      A                      A
 Frequencies --   1358.6239              1368.5845              1409.3758
 Red. masses --      1.4632                 1.8174                 2.1888
 Frc consts  --      1.5913                 2.0056                 2.5616
 IR Inten    --      7.9363                21.8819                 6.6857

                     40                     41                     42
                      A                      A                      A
 Frequencies --   1464.1996              1489.3258              1514.8227
 Red. masses --      1.9276                 1.4580                 1.0961
 Frc consts  --      2.4349                 1.9055                 1.4819
 IR Inten    --     48.5845                 3.9438                22.4452

                     43                     44                     45
                      A                      A                      A
 Frequencies --   1517.5026              1534.5765              1543.0230
 Red. masses --      1.1129                 1.1028                 1.2061
 Frc consts  --      1.5100                 1.5301                 1.6919
 IR Inten    --     18.6968                 0.6465                17.7930

                     46                     47                     48
                      A                      A                      A
 Frequencies --   1681.6948              1819.1305              2367.1229
 Red. masses --      9.3802                11.3190                12.6502
 Frc consts  --     15.6300                22.0691                41.7627
 IR Inten    --     59.6400               543.5481                 9.1055

                     49                     50                     51
                      A                      A                      A
 Frequencies --   3032.3408              3047.3364              3055.3311
 Red. masses --      1.0821                 1.0690                 1.0396
 Frc consts  --      5.8626                 5.8486                 5.7177
 IR Inten    --      5.1194                37.7886                42.2759

                     52                     53                     54
                      A                      A                      A
 Frequencies --   3093.7877              3105.0635              3135.5599
 Red. masses --      1.0691                 1.0870                 1.0995
 Frc consts  --      6.0291                 6.1747                 6.3691
 IR Inten    --      9.2425                23.6841                19.1113

                     55                     56                     57
                      A                      A                      A
 Frequencies --   3147.3312              3174.4280              3573.2125
 Red. masses --      1.1071                 1.1031                 1.0781
 Frc consts  --      6.4612                 6.5492                 8.1100
 IR Inten    --     19.5562                 7.4513                28.7845

 - Thermochemistry -
 -------------------
 Temperature   298.150 Kelvin.  Pressure   1.00000 Atm.
 Atom     1 has atomic number  6 and mass  12.00000

 Molecular mass:   163.07456 amu.
 Principal axes and moments of inertia in atomic units:
                           1         2         3
     Eigenvalues --  1183.148802184.414273211.97912
           X            0.99982   0.01893  -0.00163
           Y           -0.01893   0.99982  -0.00196
           Z            0.00159   0.00199   1.00000
 This molecule is an asymmetric top.
 Rotational symmetry number  1.
 Warning -- assumption of classical behavior for rotation
           may cause significant error
 Rotational temperatures (Kelvin)      0.07321     0.03965     0.02697
 Rotational constants (GHZ):           1.52537     0.82619     0.56188
 Zero-point vibrational energy     439410.6 (Joules/Mol)
                                  105.02165 (Kcal/Mol)
 Warning -- explicit consideration of  15 degrees of freedom as
           vibrations may cause significant error
 Vibrational temperatures:     84.76   159.36   196.85   211.07   275.97
          (Kelvin)            338.41   370.63   399.07   436.18   543.13
                              642.21   722.47   770.95   805.20   841.44
                              922.22   944.36  1005.31  1056.90  1090.10
                             1250.83  1328.50  1354.72  1368.00  1474.06
                             1522.11  1534.38  1594.28  1668.71  1686.57
                             1701.67  1761.23  1775.34  1854.17  1860.60
                             1901.53  1954.76  1969.09  2027.78  2106.66
                             2142.81  2179.49  2183.35  2207.91  2220.07
                             2419.58  2617.32  3405.76  4362.86  4384.44
                             4395.94  4451.27  4467.49  4511.37  4528.31
                             4567.29  5141.06

 Zero-point correction=                           0.167363 (Hartree/Particle)
 Thermal correction to Energy=                    0.177903
 Thermal correction to Enthalpy=                  0.178847
 Thermal correction to Gibbs Free Energy=         0.131073
 Sum of electronic and zero-point Energies=           -549.563343
 Sum of electronic and thermal Energies=              -549.552802
 Sum of electronic and thermal Enthalpies=            -549.551858
 Sum of electronic and thermal Free Energies=         -549.599632

                     E (Thermal)             CV                S
                      KCal/Mol        Cal/Mol-Kelvin    Cal/Mol-Kelvin
 Total                  111.636             39.613            100.549
 Electronic               0.000              0.000              0.000
 Translational            0.889              2.981             41.176
 Rotational               0.889              2.981             30.496
 Vibrational            109.858             33.652             28.877
 Vibration     1          0.596              1.974              4.493
 Vibration     2          0.607              1.941              3.256
 Vibration     3          0.614              1.917              2.848
 Vibration     4          0.617              1.906              2.715
 Vibration     5          0.634              1.851              2.210
 Vibration     6          0.655              1.787              1.839
 Vibration     7          0.667              1.750              1.678
 Vibration     8          0.678              1.715              1.550
 Vibration     9          0.695              1.668              1.399
 Vibration    10          0.748              1.518              1.049
 Vibration    11          0.806              1.369              0.807
 Vibration    12          0.857              1.245              0.653
 Vibration    13          0.891              1.171              0.574
 Vibration    14          0.915              1.119              0.525
 Vibration    15          0.942              1.064              0.476

 Optimization completed.
    -- Stationary point found.
 Normal termination of Gaussian 16 at Wed Dec  9 16:49:06 2020.

 ----------------------------------------------------------------------
 # B3LYP/6-311++G(d,p) empiricaldispersion=gd3bj scf=xqc pop=npa geom=c
 heck
 ----------------------------------------------------------------------

 ---------------------------------------
 CID_131539586_JID_2027_Energie_neutraal
 ---------------------------------------
 Structure from the checkpoint file:  "JID_2027.chk"
 Charge =  0 Multiplicity = 1

 SCF Done:  E(RB3LYP) =  -549.885363840     A.U. after   15 cycles
 Normal termination of Gaussian 16 at Wed Dec  9 16:50:37 2020.

 ----------------------------------------------------------------------
 # B3LYP/6-311++G(d,p) empiricaldispersion=gd3bj scf=xqc pop=npa geom=c
 heck
 ----------------------------------------------------------------------

 -------------------------------------
 CID_131539586_JID_2027_Energie_kation
 -------------------------------------
 Structure from the checkpoint file:  "JID_2027.chk"
 Charge =  1 Multiplicity = 2

 SCF Done:  E(UB3LYP) =  -549.577059473     A.U. after   24 cycles
 Normal termination of Gaussian 16 at Wed Dec  9 16:53:38 2020.
 Gaussian 16:  ES64L-G16RevA.03 25-Dec-2016

 ----------------------------------------------------------------------
 # B3LYP/6-311++G(d,p) empiricaldispersion=gd3bj scf=xqc pop=npa geom=c
 heck
 ----------------------------------------------------------------------

 ------------------------------------
 CID_131539586_JID_2027_Energie_anion
 ------------------------------------
 Structure from the checkpoint file:  "JID_2027.chk"
 Charge = -1 Multiplicity = 2

                         Standard orientation:
 ---------------------------------------------------------------------
 Center     Atomic      Atomic             Coordinates (Angstroms)
 Number     Number       Type             X           Y           Z
 ---------------------------------------------------------------------
      1          6           0       -0.377289    2.505013   -0.067715
      2          7           0        0.375402    1.357501    0.445001
      3          6           0       -0.093097    0.069960    0.295601
      4          6           0        0.871462   -0.818029   -0.029470
      5          6           0        0.375931   -2.231710   -0.028177
      6          6           0       -1.171623   -2.026153   -0.017599
      7          6           0       -1.432301   -0.578832    0.548927
      8          6           0       -2.579789    0.080522   -0.079964
      9          7           0       -3.483111    0.607093   -0.584024
     10          6           0        2.124426   -0.083421   -0.160892
     11          8           0        3.281443   -0.433793   -0.323329
     12          7           0        1.716777    1.280581   -0.032529
     13          1           0        0.102038    3.423799    0.278621
     14          1           0       -1.389503    2.463935    0.337628
     15          1           0       -0.420553    2.505557   -1.163465
     16          1           0        0.715380   -2.778889    0.861103
     17          1           0        0.697198   -2.810203   -0.899932
     18          1           0       -1.552384   -2.064352   -1.041662
     19          1           0       -1.706648   -2.778094    0.566720
     20          1           0       -1.624220   -0.612451    1.631064
     21          1           0        2.357350    1.900711    0.453152
 ---------------------------------------------------------------------

 SCF Done:  E(UB3LYP) =  -549.882657775     A.U. after   31 cycles

 The electronic state is 2-A.
 Alpha  occ. eigenvalues --  -18.96609 -14.27077 -14.24841 -14.21048 -10.14843
 Alpha  occ. eigenvalues --  -10.12471 -10.11080 -10.10335 -10.09932 -10.08804
 Alpha  occ. eigenvalues --  -10.07937 -10.05261  -0.93919  -0.89513  -0.80966
 Alpha  occ. eigenvalues --   -0.76009  -0.72643  -0.65954  -0.63802  -0.57322
 Alpha  occ. eigenvalues --   -0.52245  -0.49463  -0.46439  -0.41483  -0.40142
 Alpha  occ. eigenvalues --   -0.38973  -0.35014  -0.34304  -0.32961  -0.32040
 Alpha  occ. eigenvalues --   -0.31193  -0.30048  -0.29128  -0.27584  -0.26974
 Alpha  occ. eigenvalues --   -0.26444  -0.25823  -0.23172  -0.22683  -0.22302
 Alpha  occ. eigenvalues --   -0.16266  -0.14045  -0.10836   0.04314
 Alpha virt. eigenvalues --    0.07150   0.07989   0.08793   0.09697   0.10273
 Alpha virt. eigenvalues --    0.10650   0.11235   0.12211   0.12555   0.12951
 Alpha virt. eigenvalues --    0.13564   0.14468   0.15106   0.15324   0.16159

  Beta  occ. eigenvalues --  -18.96500 -14.27080 -14.24821 -14.21022 -10.14762
  Beta  occ. eigenvalues --  -10.12448 -10.11070 -10.10163 -10.09860 -10.08778
  Beta  occ. eigenvalues --  -10.07929 -10.05218  -0.93804  -0.89351  -0.80917
  Beta  occ. eigenvalues --   -0.75867  -0.72542  -0.65820  -0.63680  -0.57190
  Beta  occ. eigenvalues --   -0.52120  -0.49281  -0.46353  -0.41267  -0.40012
  Beta  occ. eigenvalues --   -0.38842  -0.34902  -0.34199  -0.32803  -0.31948
  Beta  occ. eigenvalues --   -0.31101  -0.29975  -0.28818  -0.27489  -0.26911
  Beta  occ. eigenvalues --   -0.26368  -0.25729  -0.22923  -0.22555  -0.22121
  Beta  occ. eigenvalues --   -0.15825  -0.13906  -0.10378
  Beta virt. eigenvalues --    0.07244   0.08000   0.09000   0.09536   0.09956
  Beta virt. eigenvalues --    0.10625   0.11004   0.11546   0.12308   0.12763
  Beta virt. eigenvalues --    0.13137   0.13850   0.14657   0.15205   0.15526

 Mulliken charges and spin densities:
               1          2
     1  C    0.548977  -0.899125
     2  N    0.127015   0.100310
     3  C    1.265226  -2.460573
     4  C   -0.099038   0.959599
     5  C   -0.644641  -0.025401
     6  C    0.372941  -1.064588
     7  C   -0.946845   2.260770
     8  C    0.923635  -1.384202
     9  N   -0.354066   0.043045
    10  C    0.481660  -0.227751
    11  O   -0.436043   0.043957
    12  N   -0.389287   0.105013
    13  H   -0.600274   0.738764
    14  H   -0.029385   0.179874
    15  H   -0.116526   0.297453
    16  H    0.014058   0.137947
    17  H    0.115713   0.039867
    18  H   -0.053575   0.225416
    19  H   -0.120048   0.290581
    20  H   -1.255482   1.553446
    21  H    0.195986   0.085598
 Sum of Mulliken charges =  -1.00000   1.00000

 Dipole moment (field-independent basis, Debye):
    X=              1.1710    Y=             -0.9969    Z=             -2.0703  Tot=              2.5790
 Quadrupole moment (field-independent basis, Debye-Ang):
   XX=           -129.3820   YY=           -100.8284   ZZ=            -98.9293
   XY=              3.9744   XZ=              7.2277   YZ=              4.6861

 Summary of Natural Population Analysis:

                                       Natural Population
                Natural  -----------------------------------------------
    Atom  No    Charge         Core      Valence    Rydberg      Total
 -----------------------------------------------------------------------
      C    1   -0.17357      0.99963     2.16492    0.00903     3.17357
      N    2   -0.14661      0.99962     2.63379    0.01320     3.64661
      C    3    0.14916      0.99935     1.83788    0.01361     2.85084
      C    4   -0.08580      0.99931     2.07544    0.01104     3.08580
      C    5   -0.19080      0.99962     2.18222    0.00896     3.19080
      C    6   -0.16787      0.99964     2.15948    0.00876     3.16787
      C    7   -0.18133      0.99947     2.16895    0.01292     3.18133
      C    8    0.17087      0.99964     1.81199    0.01750     2.82913
      N    9   -0.18638      0.99979     2.67532    0.01127     3.68638
      C   10    0.32911      0.99961     1.64852    0.02276     2.67089
      O   11   -0.31839      0.99987     3.31301    0.00551     4.31839
      N   12   -0.23312      0.99970     2.72181    0.01161     3.73312
      H   13    0.09783      0.00000     0.40036    0.00181     0.40217
      H   14    0.10494      0.00000     0.39361    0.00145     0.39506
      H   15    0.09371      0.00000     0.40437    0.00192     0.40629
      H   16    0.10112      0.00000     0.39776    0.00112     0.39888
      H   17    0.10278      0.00000     0.39614    0.00108     0.39722
      H   18    0.10022      0.00000     0.39854    0.00125     0.39978
      H   19    0.10446      0.00000     0.39402    0.00152     0.39554
      H   20    0.13941      0.00000     0.34350    0.01709     0.36059
      H   21    0.19027      0.00000     0.30763    0.00210     0.30973
 =======================================================================
   * Total *   -0.00000     11.99525    30.82926    0.17549    43.00000

 Normal termination of Gaussian 16 at Wed Dec  9 16:57:33 2020.
