 Gaussian 16, Revision A.03,

 -----------------------------------------------------------
 # opt freq B3LYP/6-31G(d) empiricaldispersion=gd3bj scf=xqc
 -----------------------------------------------------------

 ------------------------------
 CID_65678331_JID_3756_neutraal
 ------------------------------
 Symbolic Z-matrix:
 Charge =  0 Multiplicity = 1

 SCF Done:  E(RB3LYP) =  -575.464244631     A.U. after   15 cycles
 SCF Done:  E(RB3LYP) =  -575.468458671     A.U. after   12 cycles
 SCF Done:  E(RB3LYP) =  -575.468711257     A.U. after   12 cycles
 SCF Done:  E(RB3LYP) =  -575.468980143     A.U. after   12 cycles
 SCF Done:  E(RB3LYP) =  -575.469163686     A.U. after   11 cycles
 SCF Done:  E(RB3LYP) =  -575.469536323     A.U. after   13 cycles
 SCF Done:  E(RB3LYP) =  -575.469666373     A.U. after   14 cycles
 SCF Done:  E(RB3LYP) =  -575.469719138     A.U. after   12 cycles
 SCF Done:  E(RB3LYP) =  -575.469807852     A.U. after   11 cycles
 SCF Done:  E(RB3LYP) =  -575.469887190     A.U. after   12 cycles
 SCF Done:  E(RB3LYP) =  -575.469890531     A.U. after   10 cycles
 SCF Done:  E(RB3LYP) =  -575.469894849     A.U. after   11 cycles
 SCF Done:  E(RB3LYP) =  -575.469895053     A.U. after    8 cycles
 SCF Done:  E(RB3LYP) =  -575.469894932     A.U. after    8 cycles
 Optimization completed.
    -- Stationary point found.
 Normal termination of Gaussian 16 at Mon Dec 14 13:11:13 2020.

 --------------------------------------------------------------------
 #N Geom=AllCheck Guess=TCheck SCRF=Check GenChk RB3LYP/6-31G(d) Freq
 --------------------------------------------------------------------

 Structure from the checkpoint file:  "JID_3756.chk"
 ------------------------------
 CID_65678331_JID_3756_neutraal
 ------------------------------
 Charge =  0 Multiplicity = 1

 SCF Done:  E(RB3LYP) =  -575.469894932     A.U. after    1 cycles

  Exact polarizability: 137.846  -3.419 102.464  -2.337   5.183 101.328
 Approx polarizability: 165.773  -4.811 163.101  -9.158   2.393 160.294

                      1                      2                      3
                      A                      A                      A
 Frequencies --     30.9370                62.7002                84.9811
 Red. masses --      3.6848                 4.1733                 3.7144
 Frc consts  --      0.0021                 0.0097                 0.0158
 IR Inten    --      1.1638                 1.5869                 1.8171

                      4                      5                      6
                      A                      A                      A
 Frequencies --    105.1112               174.6228               195.7362
 Red. masses --      3.5205                 2.1728                 2.0251
 Frc consts  --      0.0229                 0.0390                 0.0457
 IR Inten    --      0.2853                 3.0738                 0.2025

                      7                      8                      9
                      A                      A                      A
 Frequencies --    220.0348               245.1535               269.2207
 Red. masses --      1.4317                 2.5806                 3.0637
 Frc consts  --      0.0408                 0.0914                 0.1308
 IR Inten    --     26.4282                17.0539                12.8767

                     10                     11                     12
                      A                      A                      A
 Frequencies --    295.9103               372.1314               395.1107
 Red. masses --      3.7276                 2.6584                 2.1075
 Frc consts  --      0.1923                 0.2169                 0.1938
 IR Inten    --      5.7795                 1.2046                 0.1320

                     13                     14                     15
                      A                      A                      A
 Frequencies --    412.4062               451.1030               510.4411
 Red. masses --      3.6648                 2.3719                 4.4943
 Frc consts  --      0.3672                 0.2844                 0.6899
 IR Inten    --      9.6786                 7.3518                 2.7252

                     16                     17                     18
                      A                      A                      A
 Frequencies --    548.3215               644.7471               668.3101
 Red. masses --      3.4246                 3.7079                 3.6762
 Frc consts  --      0.6066                 0.9082                 0.9674
 IR Inten    --     11.7681                 2.6580                15.6216

                     19                     20                     21
                      A                      A                      A
 Frequencies --    677.2498               728.8016               761.6156
 Red. masses --      1.3566                 3.3854                 3.1202
 Frc consts  --      0.3666                 1.0594                 1.0664
 IR Inten    --     24.1824                 2.1774                14.7468

                     22                     23                     24
                      A                      A                      A
 Frequencies --    808.7811               822.2413               845.1694
 Red. masses --      1.7697                 2.4267                 2.7505
 Frc consts  --      0.6820                 0.9667                 1.1576
 IR Inten    --      7.9850                36.9799                 4.0459

                     25                     26                     27
                      A                      A                      A
 Frequencies --    887.3798               897.8519               938.5263
 Red. masses --      1.6450                 2.4244                 1.7783
 Frc consts  --      0.7632                 1.1515                 0.9229
 IR Inten    --    113.2278                 8.5777                 0.6396

                     28                     29                     30
                      A                      A                      A
 Frequencies --    950.6753               959.3063               989.3368
 Red. masses --      1.8258                 2.3636                 2.4730
 Frc consts  --      0.9722                 1.2816                 1.4261
 IR Inten    --     17.3370                 5.2498                 3.9815

                     31                     32                     33
                      A                      A                      A
 Frequencies --    999.1740              1005.3836              1031.5260
 Red. masses --      1.2472                 1.8371                 2.1997
 Frc consts  --      0.7336                 1.0941                 1.3790
 IR Inten    --      0.3148                 1.6098                 2.0322

                     34                     35                     36
                      A                      A                      A
 Frequencies --   1054.6086              1063.2004              1102.9506
 Red. masses --      2.4882                 1.7489                 2.0994
 Frc consts  --      1.6305                 1.1648                 1.5047
 IR Inten    --     11.6605                 2.6134                 0.9988

                     37                     38                     39
                      A                      A                      A
 Frequencies --   1115.4688              1141.0888              1178.0268
 Red. masses --      2.2332                 1.7600                 1.1461
 Frc consts  --      1.6371                 1.3502                 0.9371
 IR Inten    --      4.0264                 3.3799                 3.4018

                     40                     41                     42
                      A                      A                      A
 Frequencies --   1190.7677              1214.8060              1226.9209
 Red. masses --      1.3664                 1.3309                 1.2795
 Frc consts  --      1.1415                 1.1572                 1.1348
 IR Inten    --      5.6097                26.6673                 2.6822

                     43                     44                     45
                      A                      A                      A
 Frequencies --   1232.6863              1244.9391              1284.9288
 Red. masses --      1.8855                 1.4400                 1.6980
 Frc consts  --      1.6881                 1.3150                 1.6517
 IR Inten    --     13.2902                 6.4105                13.1276

                     46                     47                     48
                      A                      A                      A
 Frequencies --   1292.6633              1305.4761              1312.5089
 Red. masses --      1.3976                 1.3372                 1.8357
 Frc consts  --      1.3760                 1.3427                 1.8632
 IR Inten    --     11.4653                21.2483               106.2879

                     49                     50                     51
                      A                      A                      A
 Frequencies --   1349.1685              1361.2632              1376.1229
 Red. masses --      1.3421                 1.4318                 1.6077
 Frc consts  --      1.4394                 1.5632                 1.7938
 IR Inten    --      0.4763                20.2950                15.7977

                     52                     53                     54
                      A                      A                      A
 Frequencies --   1388.3508              1405.3746              1416.6600
 Red. masses --      1.4935                 1.3779                 1.5603
 Frc consts  --      1.6961                 1.6034                 1.8450
 IR Inten    --      2.2652                 3.1706                15.5880

                     55                     56                     57
                      A                      A                      A
 Frequencies --   1427.4470              1433.7435              1464.5973
 Red. masses --      1.4656                 1.5348                 2.0837
 Frc consts  --      1.7595                 1.8588                 2.6335
 IR Inten    --      2.2552                 7.2030                93.3064

                     58                     59                     60
                      A                      A                      A
 Frequencies --   1506.0558              1510.8037              1513.5891
 Red. masses --      1.0993                 1.0823                 1.1072
 Frc consts  --      1.4690                 1.4555                 1.4945
 IR Inten    --      0.5116                 4.5354                 4.3244

                     61                     62                     63
                      A                      A                      A
 Frequencies --   1528.3100              1562.2685              1694.0406
 Red. masses --      1.1070                 1.0983                 1.0915
 Frc consts  --      1.5234                 1.5794                 1.8455
 IR Inten    --      2.0722                 7.2574                18.0008

                     64                     65                     66
                      A                      A                      A
 Frequencies --   1741.1866              1814.8339              3009.6348
 Red. masses --      6.2687                11.7044                 1.0694
 Frc consts  --     11.1974                22.7129                 5.7074
 IR Inten    --      4.6936               323.7646                27.9186

                     67                     68                     69
                      A                      A                      A
 Frequencies --   3013.8498              3017.0270              3036.4712
 Red. masses --      1.0714                 1.0680                 1.0659
 Frc consts  --      5.7341                 5.7277                 5.7902
 IR Inten    --     36.8653                30.5546                26.7288

                     70                     71                     72
                      A                      A                      A
 Frequencies --   3057.8997              3062.6271              3065.7032
 Red. masses --      1.0911                 1.0652                 1.0895
 Frc consts  --      6.0113                 5.8866                 6.0330
 IR Inten    --     47.7759                18.0535                18.2565

                     73                     74                     75
                      A                      A                      A
 Frequencies --   3083.9133              3085.9704              3100.2793
 Red. masses --      1.0955                 1.0903                 1.0908
 Frc consts  --      6.1384                 6.1178                 6.1774
 IR Inten    --     11.5170                51.1149                20.0386

                     76                     77                     78
                      A                      A                      A
 Frequencies --   3108.7597              3117.0437              3155.4725
 Red. masses --      1.0876                 1.1035                 1.0843
 Frc consts  --      6.1930                 6.3171                 6.3610
 IR Inten    --     20.2180                39.6055                 8.3050

                     79                     80                     81
                      A                      A                      A
 Frequencies --   3178.0471              3458.2188              3547.6100
 Red. masses --      1.0968                 1.0489                 1.0931
 Frc consts  --      6.5269                 7.3905                 8.1059
 IR Inten    --     53.2549                 1.2346                 0.5255

 - Thermochemistry -
 -------------------
 Temperature   298.150 Kelvin.  Pressure   1.00000 Atm.
 Atom     1 has atomic number  6 and mass  12.00000

 Molecular mass:   180.12626 amu.
 Principal axes and moments of inertia in atomic units:
                           1         2         3
     Eigenvalues --  1020.177874033.931744098.17257
           X            0.99990  -0.01377   0.00212
           Y            0.01194   0.92518   0.37933
           Z           -0.00718  -0.37927   0.92526
 This molecule is an asymmetric top.
 Rotational symmetry number  1.
 Warning -- assumption of classical behavior for rotation
           may cause significant error
 Rotational temperatures (Kelvin)      0.08490     0.02147     0.02113
 Rotational constants (GHZ):           1.76905     0.44739     0.44038
 Zero-point vibrational energy     673158.9 (Joules/Mol)
                                  160.88884 (Kcal/Mol)
 Warning -- explicit consideration of  16 degrees of freedom as
           vibrations may cause significant error
 Vibrational temperatures:     44.51    90.21   122.27   151.23   251.24
          (Kelvin)            281.62   316.58   352.72   387.35   425.75
                              535.41   568.48   593.36   649.04   734.41
                              788.91   927.65   961.55   974.41  1048.58
                             1095.80  1163.66  1183.02  1216.01  1276.74
                             1291.81  1350.33  1367.81  1380.23  1423.44
                             1437.59  1446.52  1484.14  1517.35  1529.71
                             1586.90  1604.91  1641.77  1694.92  1713.25
                             1747.83  1765.27  1773.56  1791.19  1848.73
                             1859.85  1878.29  1888.41  1941.15  1958.55
                             1979.93  1997.53  2022.02  2038.26  2053.78
                             2062.84  2107.23  2166.88  2173.71  2177.72
                             2198.90  2247.76  2437.35  2505.18  2611.14
                             4330.19  4336.26  4340.83  4368.80  4399.64
                             4406.44  4410.86  4437.06  4440.02  4460.61
                             4472.81  4484.73  4540.02  4572.50  4975.61
                             5104.22

 Zero-point correction=                           0.256393 (Hartree/Particle)
 Thermal correction to Energy=                    0.268638
 Thermal correction to Enthalpy=                  0.269582
 Thermal correction to Gibbs Free Energy=         0.217207
 Sum of electronic and zero-point Energies=           -575.213502
 Sum of electronic and thermal Energies=              -575.201257
 Sum of electronic and thermal Enthalpies=            -575.200313
 Sum of electronic and thermal Free Energies=         -575.252688

                     E (Thermal)             CV                S
                      KCal/Mol        Cal/Mol-Kelvin    Cal/Mol-Kelvin
 Total                  168.573             47.137            110.233
 Electronic               0.000              0.000              0.000
 Translational            0.889              2.981             41.472
 Rotational               0.889              2.981             31.201
 Vibrational            166.796             41.176             37.561
 Vibration     1          0.594              1.984              5.768
 Vibration     2          0.597              1.972              4.370
 Vibration     3          0.601              1.960              3.772
 Vibration     4          0.605              1.945              3.357
 Vibration     5          0.627              1.874              2.385
 Vibration     6          0.636              1.846              2.173
 Vibration     7          0.647              1.811              1.959
 Vibration     8          0.660              1.771              1.765
 Vibration     9          0.674              1.730              1.601
 Vibration    10          0.690              1.681              1.440
 Vibration    11          0.744              1.529              1.071
 Vibration    12          0.762              1.481              0.981
 Vibration    13          0.776              1.443              0.918
 Vibration    14          0.810              1.358              0.792
 Vibration    15          0.866              1.227              0.633
 Vibration    16          0.904              1.143              0.548

 Optimization completed.
    -- Stationary point found.
 Normal termination of Gaussian 16 at Mon Dec 14 13:18:40 2020.

 ----------------------------------------------------------------------
 # B3LYP/6-311++G(d,p) empiricaldispersion=gd3bj scf=xqc pop=npa geom=c
 heck
 ----------------------------------------------------------------------

 --------------------------------------
 CID_65678331_JID_3756_Energie_neutraal
 --------------------------------------
 Structure from the checkpoint file:  "JID_3756.chk"
 Charge =  0 Multiplicity = 1

 SCF Done:  E(RB3LYP) =  -575.637881700     A.U. after   15 cycles
 Normal termination of Gaussian 16 at Mon Dec 14 13:21:41 2020.

 ----------------------------------------------------------------------
 # B3LYP/6-311++G(d,p) empiricaldispersion=gd3bj scf=xqc pop=npa geom=c
 heck
 ----------------------------------------------------------------------

 ------------------------------------
 CID_65678331_JID_3756_Energie_kation
 ------------------------------------
 Structure from the checkpoint file:  "JID_3756.chk"
 Charge =  1 Multiplicity = 2

 SCF Done:  E(UB3LYP) =  -575.333816660     A.U. after   25 cycles
 Normal termination of Gaussian 16 at Mon Dec 14 13:28:18 2020.
 Gaussian 16:  ES64L-G16RevA.03 25-Dec-2016

 ----------------------------------------------------------------------
 # B3LYP/6-311++G(d,p) empiricaldispersion=gd3bj scf=xqc pop=npa geom=c
 heck
 ----------------------------------------------------------------------

 -----------------------------------
 CID_65678331_JID_3756_Energie_anion
 -----------------------------------
 Structure from the checkpoint file:  "JID_3756.chk"
 Charge = -1 Multiplicity = 2

                         Standard orientation:
 ---------------------------------------------------------------------
 Center     Atomic      Atomic             Coordinates (Angstroms)
 Number     Number       Type             X           Y           Z
 ---------------------------------------------------------------------
      1          6           0        2.937815   -1.030906   -0.948087
      2          6           0        1.505396   -0.521180   -1.157806
      3          6           0        0.873238   -0.138759    0.186378
      4          6           0        1.661575    1.000644    0.852328
      5          6           0        3.149201    0.766293    0.784599
      6          6           0        3.716948   -0.147573   -0.007269
      7          7           0       -0.539381    0.186520    0.058265
      8          6           0       -1.067375    1.158806   -0.890534
      9          6           0       -2.505097    1.378656   -0.385321
     10          6           0       -2.873119    0.036080    0.280821
     11          6           0       -1.506206   -0.475056    0.777298
     12          8           0       -1.302920   -1.331150    1.621329
     13          7           0       -3.460457   -0.988682   -0.588561
     14          1           0        2.914178   -2.057838   -0.552563
     15          1           0        3.456564   -1.097918   -1.913588
     16          1           0        0.893460   -1.284048   -1.652799
     17          1           0        1.527483    0.358444   -1.815385
     18          1           0        0.898551   -1.009415    0.849278
     19          1           0        1.416893    1.960698    0.371515
     20          1           0        1.337397    1.097357    1.896179
     21          1           0        3.772753    1.380174    1.432372
     22          1           0        4.797437   -0.279781    0.014579
     23          1           0       -0.474666    2.079581   -0.882435
     24          1           0       -1.046064    0.765140   -1.917428
     25          1           0       -3.196166    1.659666   -1.185902
     26          1           0       -2.506162    2.179341    0.363274
     27          1           0       -3.540952    0.165731    1.136403
     28          1           0       -4.337185   -0.642937   -0.975636
     29          1           0       -2.845550   -1.171883   -1.380871
 ---------------------------------------------------------------------

 SCF Done:  E(UB3LYP) =  -575.628804669     A.U. after   33 cycles
 SCF Done:  E(UB3LYP) =  -575.628804669     a.u. after    1 cycles

 The electronic state is 2-A.
 Alpha  occ. eigenvalues --  -18.98396 -14.23775 -14.19577 -10.16114 -10.10952
 Alpha  occ. eigenvalues --  -10.10621 -10.10619 -10.07954 -10.07653 -10.07623
 Alpha  occ. eigenvalues --  -10.07522 -10.07363 -10.07246  -0.93573  -0.84950
 Alpha  occ. eigenvalues --   -0.78914  -0.74187  -0.68056  -0.65310  -0.63112
 Alpha  occ. eigenvalues --   -0.60059  -0.53745  -0.52761  -0.49944  -0.44784
 Alpha  occ. eigenvalues --   -0.42682  -0.40516  -0.39733  -0.38571  -0.37784
 Alpha  occ. eigenvalues --   -0.34941  -0.34265  -0.33100  -0.32651  -0.32267
 Alpha  occ. eigenvalues --   -0.30254  -0.29557  -0.29082  -0.28924  -0.27994
 Alpha  occ. eigenvalues --   -0.26989  -0.24643  -0.24151  -0.23779  -0.22702
 Alpha  occ. eigenvalues --   -0.15935  -0.15663  -0.14478  -0.13629   0.04084
 Alpha virt. eigenvalues --    0.06057   0.07122   0.07697   0.08379   0.08772
 Alpha virt. eigenvalues --    0.09545   0.10002   0.10372   0.10616   0.11084
 Alpha virt. eigenvalues --    0.11554   0.12061   0.12955   0.13366   0.13787

  Beta  occ. eigenvalues --  -18.98385 -14.23774 -14.19528 -10.16105 -10.10952
  Beta  occ. eigenvalues --  -10.10615 -10.10582 -10.07940 -10.07636 -10.07611
  Beta  occ. eigenvalues --  -10.07513 -10.07332 -10.07227  -0.93554  -0.84931
  Beta  occ. eigenvalues --   -0.78834  -0.74157  -0.68011  -0.65275  -0.63070
  Beta  occ. eigenvalues --   -0.59986  -0.53702  -0.52707  -0.49885  -0.44745
  Beta  occ. eigenvalues --   -0.42643  -0.40465  -0.39678  -0.38531  -0.37744
  Beta  occ. eigenvalues --   -0.34909  -0.34221  -0.33055  -0.32620  -0.32227
  Beta  occ. eigenvalues --   -0.30223  -0.29505  -0.29049  -0.28893  -0.27955
  Beta  occ. eigenvalues --   -0.26940  -0.24593  -0.24117  -0.23751  -0.22672
  Beta  occ. eigenvalues --   -0.15900  -0.15638  -0.14446  -0.13581
  Beta virt. eigenvalues --    0.06316   0.07085   0.07799   0.08455   0.08900
  Beta virt. eigenvalues --    0.09156   0.09844   0.10172   0.10956   0.11194
  Beta virt. eigenvalues --    0.11397   0.11678   0.12237   0.13162   0.13752

 Mulliken charges and spin densities:
               1          2
     1  C   -0.355804  -0.344744
     2  C    1.359457  -1.313855
     3  C   -3.797016   2.998346
     4  C    1.608551  -1.867924
     5  C   -1.011657   1.116511
     6  C    1.327202  -1.648123
     7  N    0.527624  -0.047410
     8  C    0.661623  -0.830956
     9  C    0.595732  -1.185823
    10  C   -0.182100   0.193694
    11  C    0.919679  -0.889246
    12  O   -0.384621   0.012299
    13  N   -0.266344  -0.060643
    14  H    0.125290   0.032452
    15  H   -0.248332   0.420879
    16  H   -0.085866   0.264985
    17  H   -0.171628   0.315717
    18  H    0.128157   0.050699
    19  H   -0.165710   0.291816
    20  H    0.154097   0.012311
    21  H   -0.366002   0.559515
    22  H   -0.232709   0.398350
    23  H   -0.347646   0.513439
    24  H   -0.383309   0.562794
    25  H   -0.414693   0.611529
    26  H   -0.037085   0.183878
    27  H    0.090546   0.140977
    28  H   -0.109834   0.339650
    29  H    0.062398   0.168882
 Sum of Mulliken charges =  -1.00000   1.00000

 Dipole moment (field-independent basis, Debye):
    X=              1.9113    Y=             -0.2339    Z=              2.4429  Tot=              3.1105
 Quadrupole moment (field-independent basis, Debye-Ang):
   XX=           -149.0669   YY=           -117.7651   ZZ=           -120.8637
   XY=             -6.7098   XZ=             -3.6610   YZ=              6.6721

 Summary of Natural Population Analysis:

                                       Natural Population
                Natural  -----------------------------------------------
    Atom  No    Charge         Core      Valence    Rydberg      Total
 -----------------------------------------------------------------------
      C    1   -0.21600      0.99963     2.20437    0.01201     3.21600
      C    2   -0.19213      0.99962     2.18366    0.00886     3.19213
      C    3   -0.00815      0.99957     1.99512    0.01346     3.00815
      C    4   -0.20904      0.99959     2.20048    0.00897     3.20904
      C    5   -0.11076      0.99955     2.09467    0.01654     3.11076
      C    6   -0.06009      0.99953     2.05398    0.00658     3.06009
      N    7   -0.25559      0.99962     2.74404    0.01193     3.75559
      C    8   -0.08197      0.99962     2.07126    0.01110     3.08197
      C    9   -0.19987      0.99962     2.19105    0.00920     3.19987
      C   10   -0.04898      0.99958     2.03542    0.01399     3.04898
      C   11    0.35021      0.99962     1.62597    0.02421     2.64979
      O   12   -0.32007      0.99987     3.31496    0.00524     4.32007
      N   13   -0.41306      0.99977     2.90287    0.01043     3.91306
      H   14    0.10016      0.00000     0.39855    0.00129     0.39984
      H   15    0.10382      0.00000     0.39485    0.00133     0.39618
      H   16    0.10427      0.00000     0.39445    0.00128     0.39573
      H   17    0.09869      0.00000     0.39965    0.00166     0.40131
      H   18    0.11201      0.00000     0.38594    0.00205     0.38799
      H   19    0.10441      0.00000     0.39404    0.00155     0.39559
      H   20    0.10561      0.00000     0.39317    0.00122     0.39439
      H   21    0.09660      0.00000     0.40241    0.00099     0.40340
      H   22    0.09203      0.00000     0.40653    0.00144     0.40797
      H   23    0.09887      0.00000     0.39927    0.00186     0.40113
      H   24    0.09462      0.00000     0.40235    0.00303     0.40538
      H   25    0.10522      0.00000     0.39216    0.00262     0.39478
      H   26    0.09957      0.00000     0.39895    0.00148     0.40043
      H   27    0.09985      0.00000     0.39905    0.00110     0.40015
      H   28    0.17586      0.00000     0.32201    0.00214     0.32414
      H   29    0.17446      0.00000     0.32319    0.00235     0.32554
 =======================================================================
   * Total *    0.00054     12.99519    35.82440    0.17987    48.99946

 Normal termination of Gaussian 16 at Mon Dec 14 13:36:58 2020.
