 Gaussian 16, Revision A.03,

 -----------------------------------------------------------
 # opt freq B3LYP/6-31G(d) empiricaldispersion=gd3bj scf=xqc
 -----------------------------------------------------------

 ------------------------------
 CID_23742170_JID_5759_neutraal
 ------------------------------
 Symbolic Z-matrix:
 Charge =  0 Multiplicity = 1

 SCF Done:  E(RB3LYP) =  -740.625947197     A.U. after   15 cycles
 SCF Done:  E(RB3LYP) =  -740.633075760     A.U. after   12 cycles
 SCF Done:  E(RB3LYP) =  -740.634080860     A.U. after   12 cycles
 SCF Done:  E(RB3LYP) =  -740.634444090     A.U. after   11 cycles
 SCF Done:  E(RB3LYP) =  -740.634770476     A.U. after   11 cycles
 SCF Done:  E(RB3LYP) =  -740.634942469     A.U. after   11 cycles
 SCF Done:  E(RB3LYP) =  -740.634991188     A.U. after   10 cycles
 SCF Done:  E(RB3LYP) =  -740.635018288     A.U. after   10 cycles
 SCF Done:  E(RB3LYP) =  -740.635026108     A.U. after   10 cycles
 SCF Done:  E(RB3LYP) =  -740.635027202     A.U. after    8 cycles
 SCF Done:  E(RB3LYP) =  -740.635027371     A.U. after    8 cycles
 SCF Done:  E(RB3LYP) =  -740.635027425     A.U. after    7 cycles
 Optimization completed.
    -- Stationary point found.
 Normal termination of Gaussian 16 at Thu Dec 10 16:47:09 2020.

 --------------------------------------------------------------------
 #N Geom=AllCheck Guess=TCheck SCRF=Check GenChk RB3LYP/6-31G(d) Freq
 --------------------------------------------------------------------

 Structure from the checkpoint file:  "JID_5759.chk"
 ------------------------------
 CID_23742170_JID_5759_neutraal
 ------------------------------
 Charge =  0 Multiplicity = 1

 SCF Done:  E(RB3LYP) =  -740.635027425     A.U. after    1 cycles

  Exact polarizability: 121.059   0.795 123.954  -3.057   4.105  92.933
 Approx polarizability: 178.875   0.418 200.166 -13.818   4.430 145.116

                      1                      2                      3
                      A                      A                      A
 Frequencies --     44.7578               103.8819               138.4822
 Red. masses --      5.3814                 5.2762                 2.9329
 Frc consts  --      0.0064                 0.0335                 0.0331
 IR Inten    --      1.1408                 0.7024                 0.9280

                      4                      5                      6
                      A                      A                      A
 Frequencies --    159.2740               197.1729               250.2444
 Red. masses --      5.7526                 1.1355                 3.7415
 Frc consts  --      0.0860                 0.0260                 0.1380
 IR Inten    --      1.3331                 0.6253                 2.6430

                      7                      8                      9
                      A                      A                      A
 Frequencies --    258.0007               269.8733               289.4836
 Red. masses --      3.2824                 3.9230                 2.7684
 Frc consts  --      0.1287                 0.1683                 0.1367
 IR Inten    --      3.4023                 8.3541                 0.6258

                     10                     11                     12
                      A                      A                      A
 Frequencies --    318.4633               329.2870               345.4251
 Red. masses --      2.1170                 2.0814                 1.4538
 Frc consts  --      0.1265                 0.1330                 0.1022
 IR Inten    --     18.6099                77.8826                28.1672

                     13                     14                     15
                      A                      A                      A
 Frequencies --    361.0122               370.8752               402.6205
 Red. masses --      1.6968                 3.9723                 2.8487
 Frc consts  --      0.1303                 0.3219                 0.2721
 IR Inten    --     61.7277                22.5455                15.1912

                     16                     17                     18
                      A                      A                      A
 Frequencies --    429.1924               467.4435               507.2017
 Red. masses --      3.8846                 4.9810                 3.9635
 Frc consts  --      0.4216                 0.6412                 0.6007
 IR Inten    --      4.6685                 7.5728                 2.5299

                     19                     20                     21
                      A                      A                      A
 Frequencies --    542.3889               572.7430               619.9907
 Red. masses --      6.1165                 5.3458                 4.8652
 Frc consts  --      1.0602                 1.0332                 1.1018
 IR Inten    --     28.3418                 5.6829                10.2273

                     22                     23                     24
                      A                      A                      A
 Frequencies --    642.3455               651.6274               684.0806
 Red. masses --      4.8210                 4.9918                 4.0182
 Frc consts  --      1.1720                 1.2488                 1.1079
 IR Inten    --      1.4633                 0.2355                 2.0303

                     25                     26                     27
                      A                      A                      A
 Frequencies --    727.0944               751.6110               831.5386
 Red. masses --      2.8361                 6.3974                 3.8993
 Frc consts  --      0.8834                 2.1293                 1.5886
 IR Inten    --      2.7925                 0.5079                15.0613

                     28                     29                     30
                      A                      A                      A
 Frequencies --    879.0975               895.3990               907.0677
 Red. masses --      2.7404                 2.1289                 2.8311
 Frc consts  --      1.2478                 1.0056                 1.3724
 IR Inten    --     14.0899                15.6430                 4.5959

                     31                     32                     33
                      A                      A                      A
 Frequencies --    965.6569               982.8329               991.5002
 Red. masses --      1.5203                 4.2717                 2.0236
 Frc consts  --      0.8353                 2.4312                 1.1721
 IR Inten    --      6.4342                19.9329                 2.3165

                     34                     35                     36
                      A                      A                      A
 Frequencies --   1008.4381              1010.8556              1048.8036
 Red. masses --      2.4019                 5.9385                 3.4544
 Frc consts  --      1.4392                 3.5753                 2.2388
 IR Inten    --     12.3044                 4.1945                53.7335

                     37                     38                     39
                      A                      A                      A
 Frequencies --   1085.6080              1104.9175              1114.5782
 Red. masses --      2.7613                 1.9288                 2.1814
 Frc consts  --      1.9174                 1.3874                 1.5966
 IR Inten    --      5.8041                33.9771                42.2667

                     40                     41                     42
                      A                      A                      A
 Frequencies --   1147.1662              1164.3871              1192.2245
 Red. masses --      2.3949                 2.1690                 2.9811
 Frc consts  --      1.8569                 1.7327                 2.4965
 IR Inten    --      2.6398                13.4109                 4.8983

                     43                     44                     45
                      A                      A                      A
 Frequencies --   1212.1890              1221.1012              1238.4232
 Red. masses --      2.0650                 2.2036                 1.2200
 Frc consts  --      1.7877                 1.9360                 1.1024
 IR Inten    --      2.8662                 3.5631                 2.8005

                     46                     47                     48
                      A                      A                      A
 Frequencies --   1260.2498              1275.6434              1293.5335
 Red. masses --      1.7138                 3.2071                 1.5698
 Frc consts  --      1.6037                 3.0749                 1.5475
 IR Inten    --      6.5656                27.9815                29.0732

                     49                     50                     51
                      A                      A                      A
 Frequencies --   1340.9354              1354.7800              1364.2119
 Red. masses --      1.5013                 1.3848                 1.4439
 Frc consts  --      1.5904                 1.4975                 1.5832
 IR Inten    --     10.4367                 2.8538                 3.8097

                     52                     53                     54
                      A                      A                      A
 Frequencies --   1378.0310              1382.0952              1386.0547
 Red. masses --      1.2629                 1.4511                 1.4629
 Frc consts  --      1.4130                 1.6331                 1.6559
 IR Inten    --     25.6068                 0.6900                28.7009

                     55                     56                     57
                      A                      A                      A
 Frequencies --   1408.4600              1414.9281              1440.9046
 Red. masses --      1.6301                 1.4115                 1.3231
 Frc consts  --      1.9052                 1.6650                 1.6185
 IR Inten    --      7.2781                 8.3754                10.3514

                     58                     59                     60
                      A                      A                      A
 Frequencies --   1448.3226              1480.9416              1499.8536
 Red. masses --      3.7635                 8.8806                 1.0955
 Frc consts  --      4.6513                11.4754                 1.4520
 IR Inten    --     25.1125                41.4602                 6.1518

                     61                     62                     63
                      A                      A                      A
 Frequencies --   1511.4213              1521.9737              1530.4335
 Red. masses --      1.1418                 1.0460                 1.0489
 Frc consts  --      1.5368                 1.4276                 1.4474
 IR Inten    --      7.6946                 5.8292                 4.9046

                     64                     65                     66
                      A                      A                      A
 Frequencies --   1549.2223              1652.6800              3024.7317
 Red. masses --      1.0910                 9.6042                 1.0672
 Frc consts  --      1.5427                15.4557                 5.7529
 IR Inten    --      2.2554                24.6377                35.3367

                     67                     68                     69
                      A                      A                      A
 Frequencies --   3055.0235              3062.1788              3072.0153
 Red. masses --      1.0820                 1.0376                 1.0699
 Frc consts  --      5.9498                 5.7323                 5.9491
 IR Inten    --      8.9616                24.1490                31.2717

                     70                     71                     72
                      A                      A                      A
 Frequencies --   3073.8249              3077.4421              3094.7266
 Red. masses --      1.0602                 1.0860                 1.0974
 Frc consts  --      5.9017                 6.0596                 6.1926
 IR Inten    --     14.3995                10.4225                46.1550

                     73                     74                     75
                      A                      A                      A
 Frequencies --   3114.9258              3128.0071              3130.7347
 Red. masses --      1.1012                 1.1010                 1.0998
 Frc consts  --      6.2951                 6.3472                 6.3512
 IR Inten    --     10.9093                28.2226                15.0045

                     76                     77                     78
                      A                      A                      A
 Frequencies --   3145.8970              3729.1249              3741.6893
 Red. masses --      1.1020                 1.0662                 1.0686
 Frc consts  --      6.4256                 8.7362                 8.8144
 IR Inten    --     21.0203                25.0793                38.4061

 - Thermochemistry -
 -------------------
 Temperature   298.150 Kelvin.  Pressure   1.00000 Atm.
 Atom     1 has atomic number  6 and mass  12.00000

 Molecular mass:   211.09569 amu.
 Principal axes and moments of inertia in atomic units:
                           1         2         3
     Eigenvalues --  2040.219432895.211963757.60957
           X            0.99703   0.07499   0.01760
           Y           -0.07537   0.99691   0.02207
           Z           -0.01589  -0.02334   0.99960
 This molecule is an asymmetric top.
 Rotational symmetry number  1.
 Warning -- assumption of classical behavior for rotation
           may cause significant error
 Rotational temperatures (Kelvin)      0.04245     0.02992     0.02305
 Rotational constants (GHZ):           0.88458     0.62335     0.48029
 Zero-point vibrational energy     600413.8 (Joules/Mol)
                                  143.50235 (Kcal/Mol)
 Warning -- explicit consideration of  21 degrees of freedom as
           vibrations may cause significant error
 Vibrational temperatures:     64.40   149.46   199.25   229.16   283.69
          (Kelvin)            360.05   371.21   388.29   416.50   458.20
                              473.77   496.99   519.42   533.61   579.28
                              617.51   672.55   729.75   780.38   824.05
                              892.03   924.19   937.55   984.24  1046.13
                             1081.40  1196.40  1264.83  1288.28  1305.07
                             1389.36  1414.08  1426.55  1450.92  1454.40
                             1508.99  1561.95  1589.73  1603.63  1650.52
                             1675.29  1715.35  1744.07  1756.89  1781.81
                             1813.22  1835.37  1861.11  1929.31  1949.23
                             1962.80  1982.68  1988.53  1994.22  2026.46
                             2035.77  2073.14  2083.81  2130.74  2157.95
                             2174.60  2189.78  2201.95  2228.99  2377.84
                             4351.91  4395.50  4405.79  4419.94  4422.55
                             4427.75  4452.62  4481.68  4500.50  4504.43
                             4526.24  5365.38  5383.46

 Zero-point correction=                           0.228686 (Hartree/Particle)
 Thermal correction to Energy=                    0.241581
 Thermal correction to Enthalpy=                  0.242525
 Thermal correction to Gibbs Free Energy=         0.190231
 Sum of electronic and zero-point Energies=           -740.406342
 Sum of electronic and thermal Energies=              -740.393447
 Sum of electronic and thermal Enthalpies=            -740.392503
 Sum of electronic and thermal Free Energies=         -740.444796

                     E (Thermal)             CV                S
                      KCal/Mol        Cal/Mol-Kelvin    Cal/Mol-Kelvin
 Total                  151.594             51.819            110.062
 Electronic               0.000              0.000              0.000
 Translational            0.889              2.981             41.945
 Rotational               0.889              2.981             31.474
 Vibrational            149.817             45.858             36.643
 Vibration     1          0.595              1.979              5.037
 Vibration     2          0.605              1.946              3.380
 Vibration     3          0.614              1.915              2.825
 Vibration     4          0.621              1.892              2.558
 Vibration     5          0.637              1.844              2.159
 Vibration     6          0.663              1.762              1.729
 Vibration     7          0.667              1.749              1.675
 Vibration     8          0.674              1.729              1.597
 Vibration     9          0.686              1.693              1.477
 Vibration    10          0.705              1.638              1.318
 Vibration    11          0.712              1.617              1.264
 Vibration    12          0.724              1.585              1.187
 Vibration    13          0.735              1.553              1.118
 Vibration    14          0.743              1.532              1.076
 Vibration    15          0.768              1.464              0.953
 Vibration    16          0.791              1.407              0.861
 Vibration    17          0.825              1.322              0.745
 Vibration    18          0.862              1.234              0.640
 Vibration    19          0.897              1.156              0.560
 Vibration    20          0.929              1.090              0.499
 Vibration    21          0.980              0.990              0.417

                           ! Non-Optimized Parameters !
 Normal termination of Gaussian 16 at Thu Dec 10 16:57:55 2020.

 ----------------------------------------------------------------------
 # B3LYP/6-311++G(d,p) empiricaldispersion=gd3bj scf=xqc pop=npa geom=c
 heck
 ----------------------------------------------------------------------

 --------------------------------------
 CID_23742170_JID_5759_Energie_neutraal
 --------------------------------------
 Structure from the checkpoint file:  "JID_5759.chk"
 Charge =  0 Multiplicity = 1

 SCF Done:  E(RB3LYP) =  -740.852227782     A.U. after   15 cycles
 Normal termination of Gaussian 16 at Thu Dec 10 17:02:12 2020.

 ----------------------------------------------------------------------
 # B3LYP/6-311++G(d,p) empiricaldispersion=gd3bj scf=xqc pop=npa geom=c
 heck
 ----------------------------------------------------------------------

 ------------------------------------
 CID_23742170_JID_5759_Energie_kation
 ------------------------------------
 Structure from the checkpoint file:  "JID_5759.chk"
 Charge =  1 Multiplicity = 2

 SCF Done:  E(UB3LYP) =  -740.532454597     A.U. after   26 cycles
 Normal termination of Gaussian 16 at Thu Dec 10 17:16:52 2020.
 Gaussian 16:  ES64L-G16RevA.03 25-Dec-2016

 ----------------------------------------------------------------------
 # B3LYP/6-311++G(d,p) empiricaldispersion=gd3bj scf=xqc pop=npa geom=c
 heck
 ----------------------------------------------------------------------

 -----------------------------------
 CID_23742170_JID_5759_Energie_anion
 -----------------------------------
 Structure from the checkpoint file:  "JID_5759.chk"
 Charge = -1 Multiplicity = 2

                         Standard orientation:
 ---------------------------------------------------------------------
 Center     Atomic      Atomic             Coordinates (Angstroms)
 Number     Number       Type             X           Y           Z
 ---------------------------------------------------------------------
      1          6           0       -2.624410   -1.866586   -0.107320
      2          6           0       -1.316298   -1.258632   -0.618518
      3          6           0       -1.528747    0.040932   -1.400802
      4          7           0       -1.767143    1.040153   -0.347301
      5          6           0       -0.971766    0.655396    0.858103
      6          6           0       -0.396173   -0.753808    0.529960
      7          6           0        1.013475   -0.610375    0.050066
      8          6           0        1.745581    0.537459   -0.008390
      9          6           0        1.277526    1.882629    0.410073
     10          6           0        0.061324    1.686051    1.338427
     11          8           0        2.949252    0.261452   -0.500035
     12          7           0        2.949129   -1.192610   -0.755969
     13          7           0        1.816690   -1.622735   -0.424948
     14          8           0       -0.451301   -1.538621    1.718907
     15          8           0       -1.386912    2.329249   -0.856951
     16          1           0       -3.235239   -2.204536   -0.951565
     17          1           0       -3.208698   -1.135848    0.460385
     18          1           0       -2.431563   -2.721732    0.545319
     19          1           0       -0.782367   -1.992901   -1.231802
     20          1           0       -0.634619    0.300961   -1.985634
     21          1           0       -2.384675    0.001242   -2.082316
     22          1           0       -1.677584    0.505622    1.683096
     23          1           0        0.988260    2.465182   -0.470911
     24          1           0        2.077493    2.427753    0.922563
     25          1           0       -0.436147    2.646534    1.491504
     26          1           0        0.412195    1.335350    2.316025
     27          1           0        0.074819   -2.339363    1.559691
     28          1           0       -2.203990    2.843052   -0.763790
 ---------------------------------------------------------------------

 SCF Done:  E(UB3LYP) =  -740.846172165     A.U. after   33 cycles
 SCF Done:  E(UB3LYP) =  -740.846172166     a.u. after    2 cycles

 The electronic state is 2-A.
 Alpha  occ. eigenvalues --  -19.05766 -19.03161 -19.02473 -14.24704 -14.23982
 Alpha  occ. eigenvalues --  -14.21496 -10.13155 -10.10329 -10.09396 -10.08466
 Alpha  occ. eigenvalues --  -10.07446 -10.07051 -10.06802 -10.06415 -10.06071
 Alpha  occ. eigenvalues --   -1.01182  -0.94866  -0.92935  -0.84895  -0.77942
 Alpha  occ. eigenvalues --   -0.71152  -0.67615  -0.64270  -0.62187  -0.57339
 Alpha  occ. eigenvalues --   -0.53556  -0.50189  -0.49331  -0.46952  -0.43953
 Alpha  occ. eigenvalues --   -0.42032  -0.40516  -0.38484  -0.35782  -0.35169
 Alpha  occ. eigenvalues --   -0.34654  -0.33183  -0.33133  -0.31945  -0.30367
 Alpha  occ. eigenvalues --   -0.29644  -0.28913  -0.27229  -0.26247  -0.26007
 Alpha  occ. eigenvalues --   -0.25236  -0.23883  -0.23633  -0.22149  -0.21831
 Alpha  occ. eigenvalues --   -0.21266  -0.18037  -0.17487  -0.16356  -0.13297
 Alpha  occ. eigenvalues --   -0.11577   0.05127
 Alpha virt. eigenvalues --    0.06790   0.07784   0.08817   0.09907   0.10123
 Alpha virt. eigenvalues --    0.10920   0.11328   0.12096   0.12919   0.13289
 Alpha virt. eigenvalues --    0.13529   0.14443   0.14971   0.15187   0.16443

  Beta  occ. eigenvalues --  -19.05509 -19.03099 -19.02473 -14.24205 -14.23962
  Beta  occ. eigenvalues --  -14.21273 -10.13151 -10.10119 -10.09396 -10.08461
  Beta  occ. eigenvalues --  -10.07444 -10.07141 -10.06819 -10.06391 -10.06068
  Beta  occ. eigenvalues --   -1.00670  -0.94754  -0.92929  -0.84351  -0.77881
  Beta  occ. eigenvalues --   -0.70955  -0.67530  -0.64119  -0.62117  -0.57248
  Beta  occ. eigenvalues --   -0.53397  -0.49901  -0.49164  -0.46840  -0.43815
  Beta  occ. eigenvalues --   -0.41965  -0.40446  -0.38347  -0.35530  -0.34638
  Beta  occ. eigenvalues --   -0.34426  -0.33090  -0.32876  -0.31850  -0.30280
  Beta  occ. eigenvalues --   -0.29435  -0.28768  -0.27181  -0.26140  -0.25934
  Beta  occ. eigenvalues --   -0.25042  -0.23756  -0.23528  -0.21910  -0.21382
  Beta  occ. eigenvalues --   -0.20062  -0.17960  -0.17448  -0.15913  -0.12135
  Beta  occ. eigenvalues --   -0.11513
  Beta virt. eigenvalues --    0.07412   0.08500   0.08961   0.09915   0.10461
  Beta virt. eigenvalues --    0.10705   0.11016   0.11706   0.12117   0.13221
  Beta virt. eigenvalues --    0.13444   0.13545   0.14452   0.15260   0.15542

 Mulliken charges and spin densities:
               1          2
     1  C   -0.499815  -0.086184
     2  C    0.227121   0.023381
     3  C   -0.104334  -0.334052
     4  N   -0.033093  -0.143024
     5  C    0.321253  -0.014500
     6  C   -0.443689   0.062404
     7  C   -0.472491   0.007190
     8  C   -0.275727   0.015301
     9  C   -0.314069  -0.036277
    10  C    0.424110  -0.865935
    11  O   -0.046024   0.058559
    12  N   -0.000108   0.215414
    13  N   -0.111667   0.102235
    14  O   -0.145362   0.000793
    15  O   -0.214843   0.112181
    16  H    0.086138   0.038823
    17  H    0.095906   0.088179
    18  H    0.134531  -0.006193
    19  H    0.202037   0.027631
    20  H    0.178859  -0.010598
    21  H   -0.095410   0.280592
    22  H    0.080121   0.185664
    23  H    0.119796   0.101316
    24  H    0.154995   0.020445
    25  H   -0.494836   0.680822
    26  H    0.213006  -0.075887
    27  H    0.258286   0.004380
    28  H   -0.244691   0.547341
 Sum of Mulliken charges =  -1.00000   1.00000

 Dipole moment (field-independent basis, Debye):
    X=             -0.1993    Y=             -4.4658    Z=              1.6319  Tot=              4.7588
 Quadrupole moment (field-independent basis, Debye-Ang):
   XX=           -137.8511   YY=           -129.1968   ZZ=           -108.0946
   XY=             21.3823   XZ=              5.0328   YZ=              1.4845

 Summary of Natural Population Analysis:

                                       Natural Population
                Natural  -----------------------------------------------
    Atom  No    Charge         Core      Valence    Rydberg      Total
 -----------------------------------------------------------------------
      C    1   -0.28657      0.99965     2.28051    0.00641     3.28657
      C    2   -0.12446      0.99956     2.11358    0.01133     3.12446
      C    3   -0.08667      0.99959     2.07484    0.01223     3.08667
      N    4   -0.13614      0.99968     2.61884    0.01762     3.63614
      C    5   -0.00775      0.99954     1.99177    0.01644     3.00775
      C    6    0.12051      0.99939     1.86109    0.01901     2.87949
      C    7   -0.03020      0.99938     2.01543    0.01538     3.03020
      C    8    0.20514      0.99937     1.77917    0.01632     2.79486
      C    9   -0.21577      0.99959     2.20723    0.00896     3.21577
      C   10   -0.19179      0.99960     2.18256    0.00963     3.19179
      O   11   -0.16869      0.99986     3.16016    0.00867     4.16869
      N   12    0.08496      0.99980     2.39860    0.01663     3.41504
      N   13   -0.10249      0.99969     2.58768    0.01512     3.60249
      O   14   -0.37348      0.99989     3.36763    0.00596     4.37348
      O   15   -0.29790      0.99991     3.28968    0.00831     4.29790
      H   16    0.09538      0.00000     0.40390    0.00072     0.40462
      H   17    0.10361      0.00000     0.39550    0.00089     0.39639
      H   18    0.10048      0.00000     0.39868    0.00084     0.39952
      H   19    0.10588      0.00000     0.39244    0.00167     0.39412
      H   20    0.09711      0.00000     0.40109    0.00181     0.40289
      H   21    0.09459      0.00000     0.40415    0.00126     0.40541
      H   22    0.10238      0.00000     0.39606    0.00156     0.39762
      H   23    0.12224      0.00000     0.37606    0.00170     0.37776
      H   24    0.10481      0.00000     0.39413    0.00105     0.39519
      H   25    0.11149      0.00000     0.38690    0.00161     0.38851
      H   26    0.10122      0.00000     0.39781    0.00097     0.39878
      H   27    0.23160      0.00000     0.26583    0.00257     0.26840
      H   28    0.24049      0.00000     0.22716    0.03235     0.25951
 =======================================================================
   * Total *    0.00000     14.99449    40.76849    0.23702    56.00000

 Normal termination of Gaussian 16 at Thu Dec 10 17:39:47 2020.
