 Gaussian 16, Revision A.03,

 -----------------------------------------------------------
 # opt freq B3LYP/6-31G(d) empiricaldispersion=gd3bj scf=xqc
 -----------------------------------------------------------

 -------------------------------
 CID_107155325_JID_9952_neutraal
 -------------------------------
 Symbolic Z-matrix:
 Charge =  0 Multiplicity = 1

 SCF Done:  E(RB3LYP) =  -846.034231183     A.U. after   15 cycles
 SCF Done:  E(RB3LYP) =  -846.047401218     A.U. after   12 cycles
 SCF Done:  E(RB3LYP) =  -846.049216611     A.U. after   12 cycles
 SCF Done:  E(RB3LYP) =  -846.050041725     A.U. after   12 cycles
 SCF Done:  E(RB3LYP) =  -846.050561733     A.U. after   13 cycles
 SCF Done:  E(RB3LYP) =  -846.051052187     A.U. after   11 cycles
 SCF Done:  E(RB3LYP) =  -846.051429054     A.U. after   12 cycles
 SCF Done:  E(RB3LYP) =  -846.051749320     A.U. after   12 cycles
 SCF Done:  E(RB3LYP) =  -846.051653120     A.U. after   13 cycles
 SCF Done:  E(RB3LYP) =  -846.052100207     A.U. after   13 cycles
 SCF Done:  E(RB3LYP) =  -846.053478454     A.U. after    7 cycles
 SCF Done:  E(RB3LYP) =  -846.053483745     A.U. after   10 cycles
 SCF Done:  E(RB3LYP) =  -846.053484004     A.U. after    7 cycles
 SCF Done:  E(RB3LYP) =  -846.053484065     A.U. after    7 cycles
 SCF Done:  E(RB3LYP) =  -846.053484064     A.U. after    7 cycles
 Optimization completed.
    -- Stationary point found.
 Normal termination of Gaussian 16 at Sat Dec 12 10:56:43 2020.

 --------------------------------------------------------------------
 #N Geom=AllCheck Guess=TCheck SCRF=Check GenChk RB3LYP/6-31G(d) Freq
 --------------------------------------------------------------------

 Structure from the checkpoint file:  "JID_9952.chk"
 -------------------------------
 CID_107155325_JID_9952_neutraal
 -------------------------------
 Charge =  0 Multiplicity = 1

 SCF Done:  E(RB3LYP) =  -846.053484064     A.U. after    1 cycles

  Exact polarizability: 213.401   1.266 182.269 -11.955  -6.980 128.857
 Approx polarizability: 271.372   1.650 284.027 -24.815 -18.208 203.921

                      1                      2                      3
                      A                      A                      A
 Frequencies --     25.7632                35.7004                40.7668
 Red. masses --      4.1303                 3.5381                 4.1338
 Frc consts  --      0.0016                 0.0027                 0.0040
 IR Inten    --      0.4702                 0.2641                 0.8742

                      4                      5                      6
                      A                      A                      A
 Frequencies --     51.3867                61.7320                72.1003
 Red. masses --      2.8896                 2.9780                 4.4641
 Frc consts  --      0.0045                 0.0067                 0.0137
 IR Inten    --      0.6905                 0.9390                 5.7967

                      7                      8                      9
                      A                      A                      A
 Frequencies --     92.4167               101.7960               163.7313
 Red. masses --      5.5380                 3.5591                 2.9080
 Frc consts  --      0.0279                 0.0217                 0.0459
 IR Inten    --      1.4119                 0.1996                 0.7518

                     10                     11                     12
                      A                      A                      A
 Frequencies --    166.4087               182.3710               199.4109
 Red. masses --      3.3929                 4.2028                 3.4548
 Frc consts  --      0.0554                 0.0824                 0.0809
 IR Inten    --      1.0467                 2.6520                 1.7740

                     13                     14                     15
                      A                      A                      A
 Frequencies --    234.0324               237.3685               261.3569
 Red. masses --      1.5898                 1.4427                 1.5094
 Frc consts  --      0.0513                 0.0479                 0.0607
 IR Inten    --      2.0831                 2.6855                 0.7600

                     16                     17                     18
                      A                      A                      A
 Frequencies --    281.2929               296.8707               329.1762
 Red. masses --      2.4128                 5.0561                 2.6855
 Frc consts  --      0.1125                 0.2625                 0.1714
 IR Inten    --      0.8207                11.3800                 1.3887

                     19                     20                     21
                      A                      A                      A
 Frequencies --    356.1752               362.3188               392.8409
 Red. masses --      3.5450                 2.7323                 3.3721
 Frc consts  --      0.2650                 0.2113                 0.3066
 IR Inten    --      1.2143                 2.1378                 1.0061

                     22                     23                     24
                      A                      A                      A
 Frequencies --    415.5289               466.6407               468.3047
 Red. masses --      2.2745                 4.0595                 2.2932
 Frc consts  --      0.2314                 0.5208                 0.2963
 IR Inten    --      0.5486                 3.9352                 2.7695

                     25                     26                     27
                      A                      A                      A
 Frequencies --    474.1313               487.2353               506.5473
 Red. masses --      1.7976                 1.4598                 3.0505
 Frc consts  --      0.2381                 0.2042                 0.4612
 IR Inten    --     57.5056               221.0856                 7.7849

                     28                     29                     30
                      A                      A                      A
 Frequencies --    601.8483               604.0392               622.0883
 Red. masses --      2.8865                 2.7370                 3.2535
 Frc consts  --      0.6160                 0.5884                 0.7418
 IR Inten    --      6.4358                 2.3017                 7.4913

                     31                     32                     33
                      A                      A                      A
 Frequencies --    656.6088               688.9126               737.3576
 Red. masses --      3.9247                 3.8380                 1.4143
 Frc consts  --      0.9969                 1.0732                 0.4530
 IR Inten    --      3.5636                32.6213                 4.3623

                     34                     35                     36
                      A                      A                      A
 Frequencies --    743.5759               753.6251               785.2262
 Red. masses --      1.2401                 2.4229                 1.2032
 Frc consts  --      0.4040                 0.8108                 0.4371
 IR Inten    --     43.5959                10.3980                 4.5031

                     37                     38                     39
                      A                      A                      A
 Frequencies --    808.1496               825.6529               835.4457
 Red. masses --      2.2294                 1.6265                 2.3389
 Frc consts  --      0.8579                 0.6533                 0.9618
 IR Inten    --     22.0819                 3.2290                20.0182

                     40                     41                     42
                      A                      A                      A
 Frequencies --    842.5312               847.6271               885.9664
 Red. masses --      2.5822                 2.8148                 1.3095
 Frc consts  --      1.0800                 1.1916                 0.6056
 IR Inten    --     20.5510                52.0532                 2.5083

                     43                     44                     45
                      A                      A                      A
 Frequencies --    910.2975               926.4257               931.9116
 Red. masses --      5.2821                 2.2799                 1.4510
 Frc consts  --      2.5788                 1.1529                 0.7425
 IR Inten    --      0.8063                 2.6819                 8.0567

                     46                     47                     48
                      A                      A                      A
 Frequencies --    941.1074               945.6728               947.5529
 Red. masses --      1.8219                 2.6387                 1.4146
 Frc consts  --      0.9507                 1.3903                 0.7483
 IR Inten    --      5.2621                 1.0717                 6.2193

                     49                     50                     51
                      A                      A                      A
 Frequencies --    979.9729               981.8977               983.4235
 Red. masses --      1.8839                 1.3722                 1.5510
 Frc consts  --      1.0659                 0.7795                 0.8838
 IR Inten    --      4.1797                 3.2078                 7.2114

                     52                     53                     54
                      A                      A                      A
 Frequencies --   1010.0983              1055.1519              1068.4218
 Red. masses --      2.6832                 1.6037                 2.9416
 Frc consts  --      1.6130                 1.0520                 1.9784
 IR Inten    --      7.7084                 9.7687                25.0273

                     55                     56                     57
                      A                      A                      A
 Frequencies --   1081.2064              1089.1295              1092.9179
 Red. masses --      2.0319                 1.6688                 2.0546
 Frc consts  --      1.3995                 1.1663                 1.4459
 IR Inten    --      1.2338                22.1233                72.7443

                     58                     59                     60
                      A                      A                      A
 Frequencies --   1116.1166              1142.8126              1149.7712
 Red. masses --      1.8090                 1.9006                 1.9716
 Frc consts  --      1.3277                 1.4625                 1.5356
 IR Inten    --     38.8331                19.5708                14.5558

                     61                     62                     63
                      A                      A                      A
 Frequencies --   1180.2336              1185.0225              1208.5439
 Red. masses --      2.6466                 2.6961                 1.7525
 Frc consts  --      2.1721                 2.2307                 1.5081
 IR Inten    --     76.6444                 8.6670                 3.2688

                     64                     65                     66
                      A                      A                      A
 Frequencies --   1230.6567              1239.0593              1252.6513
 Red. masses --      1.2709                 1.4921                 1.4529
 Frc consts  --      1.1341                 1.3497                 1.3432
 IR Inten    --      0.7379                 2.0977                 7.2922

                     67                     68                     69
                      A                      A                      A
 Frequencies --   1265.2721              1272.8115              1279.8548
 Red. masses --      1.2905                 1.2743                 1.3039
 Frc consts  --      1.2173                 1.2164                 1.2584
 IR Inten    --     17.4605                 0.2780                 9.8091

                     70                     71                     72
                      A                      A                      A
 Frequencies --   1282.8867              1284.5499              1302.5133
 Red. masses --      1.4877                 1.4903                 1.5238
 Frc consts  --      1.4426                 1.4489                 1.5231
 IR Inten    --     79.1934                 3.1878                 4.2533

                     73                     74                     75
                      A                      A                      A
 Frequencies --   1305.4204              1312.2277              1345.3246
 Red. masses --      1.4631                 2.1333                 2.3554
 Frc consts  --      1.4690                 2.1643                 2.5118
 IR Inten    --      1.3857                41.7323                62.7850

                     76                     77                     78
                      A                      A                      A
 Frequencies --   1348.3570              1374.8549              1386.8141
 Red. masses --      1.3770                 1.4080                 1.6689
 Frc consts  --      1.4750                 1.5681                 1.8911
 IR Inten    --     20.0444                 8.1004                51.9667

                     79                     80                     81
                      A                      A                      A
 Frequencies --   1395.6099              1412.2844              1418.0711
 Red. masses --      1.4524                 1.5824                 1.9688
 Frc consts  --      1.6667                 1.8596                 2.3327
 IR Inten    --     35.6163                37.8841                52.6640

                     82                     83                     84
                      A                      A                      A
 Frequencies --   1431.4635              1444.8990              1451.9228
 Red. masses --      1.2920                 1.3102                 1.2376
 Frc consts  --      1.5599                 1.6116                 1.5372
 IR Inten    --     10.0398                11.4944                 2.8895

                     85                     86                     87
                      A                      A                      A
 Frequencies --   1466.8438              1472.0901              1486.3220
 Red. masses --      3.3568                 1.6338                 1.5968
 Frc consts  --      4.2554                 2.0860                 2.0784
 IR Inten    --    244.2076                 4.1386                13.7893

                     88                     89                     90
                      A                      A                      A
 Frequencies --   1495.5071              1497.9342              1507.3422
 Red. masses --      2.5613                 1.1904                 1.0876
 Frc consts  --      3.3751                 1.5737                 1.4559
 IR Inten    --     33.8848                32.9755                 3.2363

                     91                     92                     93
                      A                      A                      A
 Frequencies --   1516.2781              1520.5314              1521.7941
 Red. masses --      1.0633                 1.0918                 1.0592
 Frc consts  --      1.4403                 1.4873                 1.4452
 IR Inten    --      0.7117                 3.7582                 0.4443

                     94                     95                     96
                      A                      A                      A
 Frequencies --   1529.1777              1536.0732              1536.2020
 Red. masses --      1.0741                 1.0723                 1.1598
 Frc consts  --      1.4798                 1.4907                 1.6126
 IR Inten    --      3.7404                 4.4404                24.4364

                     97                     98                     99
                      A                      A                      A
 Frequencies --   1542.0647              1582.2852              1729.6391
 Red. masses --      1.0486                 4.0860                 7.0823
 Frc consts  --      1.4692                 6.0273                12.4835
 IR Inten    --     11.7754                28.0378               314.8885

                    100                    101                    102
                      A                      A                      A
 Frequencies --   3008.8993              3016.0507              3039.6064
 Red. masses --      1.0713                 1.0791                 1.0356
 Frc consts  --      5.7145                 5.7832                 5.6373
 IR Inten    --     22.4577                24.7044                30.1544

                    103                    104                    105
                      A                      A                      A
 Frequencies --   3044.7447              3065.4847              3074.4793
 Red. masses --      1.0372                 1.0876                 1.0737
 Frc consts  --      5.6653                 6.0218                 5.9797
 IR Inten    --     16.4316                11.6096                29.6393

                    106                    107                    108
                      A                      A                      A
 Frequencies --   3078.5357              3085.1963              3085.8076
 Red. masses --      1.0648                 1.0867                 1.0740
 Frc consts  --      5.9460                 6.0945                 6.0254
 IR Inten    --     22.5838                95.3704                22.9984

                    109                    110                    111
                      A                      A                      A
 Frequencies --   3089.7823              3100.2478              3104.4534
 Red. masses --      1.0740                 1.0759                 1.1016
 Frc consts  --      6.0409                 6.0929                 6.2554
 IR Inten    --     54.2073                46.9791                11.9191

                    112                    113                    114
                      A                      A                      A
 Frequencies --   3109.4847              3113.6948              3117.4229
 Red. masses --      1.1014                 1.1019                 1.1013
 Frc consts  --      6.2745                 6.2942                 6.3061
 IR Inten    --     48.0356                47.1225                48.6418

                    115                    116                    117
                      A                      A                      A
 Frequencies --   3135.5605              3157.4794              3193.1156
 Red. masses --      1.1059                 1.0961                 1.0971
 Frc consts  --      6.4060                 6.4382                 6.5906
 IR Inten    --     19.5677                 8.8282                 0.3400

                    118                    119                    120
                      A                      A                      A
 Frequencies --   3196.5882              3257.7062              3270.9501
 Red. masses --      1.0953                 1.0887                 1.0953
 Frc consts  --      6.5941                 6.8077                 6.9048
 IR Inten    --      8.7989                 3.3120                 3.7610

                    121                    122                    123
                      A                      A                      A
 Frequencies --   3281.1604              3533.8702              3700.6737
 Red. masses --      1.1050                 1.0733                 1.0665
 Frc consts  --      7.0093                 7.8973                 8.6051
 IR Inten    --      3.1660                 8.5568                33.4630

 - Thermochemistry -
 -------------------
 Temperature   298.150 Kelvin.  Pressure   1.00000 Atm.
 Atom     1 has atomic number  6 and mass  12.00000

 Molecular mass:   264.18378 amu.
 Principal axes and moments of inertia in atomic units:
                           1         2         3
     Eigenvalues --  2645.839629072.76201**********
           X            0.99995  -0.00910  -0.00303
           Y            0.00907   0.99991  -0.01002
           Z            0.00312   0.00999   0.99995
 This molecule is an asymmetric top.
 Rotational symmetry number  1.
 Warning -- assumption of classical behavior for rotation
           may cause significant error
 Rotational temperatures (Kelvin)      0.03274     0.00955     0.00832
 Rotational constants (GHZ):           0.68211     0.19892     0.17329
 Zero-point vibrational energy     997496.1 (Joules/Mol)
                                  238.40730 (Kcal/Mol)
 Warning -- explicit consideration of  29 degrees of freedom as
           vibrations may cause significant error
 Vibrational temperatures:     37.07    51.36    58.65    73.93    88.82
          (Kelvin)            103.74   132.97   146.46   235.57   239.42
                              262.39   286.91   336.72   341.52   376.03
                              404.72   427.13   473.61   512.46   521.30
                              565.21   597.85   671.39   673.79   682.17
                              701.02   728.81   865.93   869.08   895.05
                              944.71   991.19  1060.89  1069.84  1084.30
                             1129.77  1162.75  1187.93  1202.02  1212.21
                             1219.55  1274.71  1309.72  1332.92  1340.81
                             1354.04  1360.61  1363.32  1409.96  1412.73
                             1414.93  1453.31  1518.13  1537.22  1555.61
                             1567.01  1572.47  1605.84  1644.25  1654.26
                             1698.09  1704.98  1738.83  1770.64  1782.73
                             1802.29  1820.44  1831.29  1841.43  1845.79
                             1848.18  1874.03  1878.21  1888.00  1935.62
                             1939.99  1978.11  1995.32  2007.97  2031.96
                             2040.29  2059.56  2078.89  2088.99  2110.46
                             2118.01  2138.49  2151.70  2155.19  2168.73
                             2181.59  2187.71  2189.52  2200.15  2210.07
                             2210.25  2218.69  2276.56  2488.56  4329.13
                             4339.42  4373.32  4380.71  4410.55  4423.49
                             4429.33  4438.91  4439.79  4445.51  4460.57
                             4466.62  4473.85  4479.91  4485.28  4511.37
                             4542.91  4594.18  4599.18  4687.11  4706.17
                             4720.86  5084.45  5324.44

 Zero-point correction=                           0.379926 (Hartree/Particle)
 Thermal correction to Energy=                    0.399371
 Thermal correction to Enthalpy=                  0.400315
 Thermal correction to Gibbs Free Energy=         0.330585
 Sum of electronic and zero-point Energies=           -845.673558
 Sum of electronic and thermal Energies=              -845.654113
 Sum of electronic and thermal Enthalpies=            -845.653169
 Sum of electronic and thermal Free Energies=         -845.722899

                     E (Thermal)             CV                S
                      KCal/Mol        Cal/Mol-Kelvin    Cal/Mol-Kelvin
 Total                  250.609             74.306            146.758
 Electronic               0.000              0.000              0.000
 Translational            0.889              2.981             42.614
 Rotational               0.889              2.981             33.880
 Vibrational            248.831             68.345             70.265
 Vibration     1          0.593              1.985              6.132
 Vibration     2          0.594              1.982              5.484
 Vibration     3          0.594              1.981              5.221
 Vibration     4          0.596              1.977              4.763
 Vibration     5          0.597              1.973              4.401
 Vibration     6          0.598              1.967              4.095
 Vibration     7          0.602              1.955              3.608
 Vibration     8          0.604              1.948              3.420
 Vibration     9          0.623              1.887              2.506
 Vibration    10          0.624              1.884              2.476
 Vibration    11          0.630              1.864              2.304
 Vibration    12          0.638              1.841              2.139
 Vibration    13          0.654              1.789              1.848
 Vibration    14          0.656              1.783              1.823
 Vibration    15          0.669              1.743              1.653
 Vibration    16          0.681              1.708              1.526
 Vibration    17          0.691              1.680              1.434
 Vibration    18          0.712              1.617              1.264
 Vibration    19          0.732              1.563              1.139
 Vibration    20          0.736              1.550              1.112
 Vibration    21          0.760              1.485              0.989
 Vibration    22          0.779              1.437              0.907
 Vibration    23          0.824              1.324              0.747
 Vibration    24          0.825              1.320              0.742
 Vibration    25          0.831              1.307              0.726
 Vibration    26          0.843              1.278              0.691
 Vibration    27          0.862              1.235              0.642
 Vibration    28          0.960              1.028              0.446
 Vibration    29          0.963              1.023              0.443

 Optimization completed.
    -- Stationary point found.
 Normal termination of Gaussian 16 at Sat Dec 12 11:16:53 2020.

 ----------------------------------------------------------------------
 # B3LYP/6-311++G(d,p) empiricaldispersion=gd3bj scf=xqc pop=npa geom=c
 heck
 ----------------------------------------------------------------------

 ---------------------------------------
 CID_107155325_JID_9952_Energie_neutraal
 ---------------------------------------
 Structure from the checkpoint file:  "JID_9952.chk"
 Charge =  0 Multiplicity = 1

 SCF Done:  E(RB3LYP) =  -846.295760722     A.U. after   15 cycles
 Normal termination of Gaussian 16 at Sat Dec 12 11:25:29 2020.

 ----------------------------------------------------------------------
 # B3LYP/6-311++G(d,p) empiricaldispersion=gd3bj scf=xqc pop=npa geom=c
 heck
 ----------------------------------------------------------------------

 -------------------------------------
 CID_107155325_JID_9952_Energie_kation
 -------------------------------------
 Structure from the checkpoint file:  "JID_9952.chk"
 Charge =  1 Multiplicity = 2

 SCF Done:  E(UB3LYP) =  -846.000363504     A.U. after   26 cycles
 Normal termination of Gaussian 16 at Sat Dec 12 11:45:21 2020.
 Gaussian 16:  ES64L-G16RevA.03 25-Dec-2016

 ----------------------------------------------------------------------
 # B3LYP/6-311++G(d,p) empiricaldispersion=gd3bj scf=xqc pop=npa geom=c
 heck
 ----------------------------------------------------------------------

 ------------------------------------
 CID_107155325_JID_9952_Energie_anion
 ------------------------------------
 Structure from the checkpoint file:  "JID_9952.chk"
 Charge = -1 Multiplicity = 2

                         Standard orientation:
 ---------------------------------------------------------------------
 Center     Atomic      Atomic             Coordinates (Angstroms)
 Number     Number       Type             X           Y           Z
 ---------------------------------------------------------------------
      1          6           0       -5.026395    0.721310   -1.001648
      2          6           0       -4.384141    0.061718    0.225870
      3          6           0       -5.419202   -0.766312    0.998117
      4          6           0       -3.181780   -0.821718   -0.150666
      5          6           0       -2.039556   -0.143302   -0.920313
      6          6           0       -1.420487    1.071545   -0.200953
      7          7           0       -0.721563    0.675757    1.026382
      8          6           0        0.575343    0.154981    0.963507
      9          8           0        0.815340   -0.957177    1.444032
     10          6           0        1.571756    1.063802    0.395754
     11          6           0        1.495652    2.456933    0.378763
     12          6           0        2.695826    2.956398   -0.162763
     13          6           0        3.476143    1.855935   -0.470807
     14          7           0        2.813569    0.708430   -0.129883
     15          6           0        3.381949   -0.611240   -0.391444
     16          6           0        3.672120   -1.594795    0.770459
     17          6           0        3.164159   -2.746347   -0.142668
     18          6           0        2.536824   -1.695770   -1.101379
     19          8           0       -1.026054   -1.098494   -1.234905
     20          1           0       -5.340859   -0.037975   -1.729012
     21          1           0       -4.340091    1.406333   -1.510944
     22          1           0       -5.913964    1.296294   -0.714678
     23          1           0       -4.033126    0.860168    0.896040
     24          1           0       -5.817848   -1.573196    0.370388
     25          1           0       -4.978503   -1.225213    1.890851
     26          1           0       -6.262706   -0.144681    1.319047
     27          1           0       -2.770609   -1.271761    0.766530
     28          1           0       -3.526964   -1.664851   -0.762986
     29          1           0       -2.412576    0.200008   -1.891150
     30          1           0       -0.692357    1.540172   -0.863690
     31          1           0       -2.187328    1.817125    0.036787
     32          1           0       -1.280640    0.062847    1.614256
     33          1           0        0.661513    3.025794    0.763861
     34          1           0        2.969543    3.991830   -0.308991
     35          1           0        4.458575    1.798234   -0.917605
     36          1           0        4.295753   -0.417885   -0.959005
     37          1           0        4.710982   -1.636590    1.112225
     38          1           0        3.003648   -1.423913    1.611407
     39          1           0        2.467764   -3.449254    0.319886
     40          1           0        3.976999   -3.310018   -0.610849
     41          1           0        1.468315   -1.560283   -0.947100
     42          1           0        2.719676   -1.812918   -2.173752
     43          1           0       -0.722791   -1.493049   -0.399009
 ---------------------------------------------------------------------

 SCF Done:  E(UB3LYP) =  -846.288069623     A.U. after   33 cycles
 SCF Done:  E(UB3LYP) =  -846.288069623     a.u. after    1 cycles

 The electronic state is 2-A.
 Alpha  occ. eigenvalues --  -19.01862 -18.96127 -14.24823 -14.20264 -10.13426
 Alpha  occ. eigenvalues --  -10.12062 -10.11593 -10.09278 -10.08256 -10.08053
 Alpha  occ. eigenvalues --  -10.07760 -10.07318 -10.07021 -10.06688 -10.06422
 Alpha  occ. eigenvalues --  -10.06318 -10.06179 -10.05096 -10.04346  -0.92531
 Alpha  occ. eigenvalues --   -0.91062  -0.87316  -0.79516  -0.75105  -0.71773
 Alpha  occ. eigenvalues --   -0.67407  -0.64617  -0.62530  -0.59231  -0.58347
 Alpha  occ. eigenvalues --   -0.56477  -0.56237  -0.51992  -0.50239  -0.47968
 Alpha  occ. eigenvalues --   -0.46544  -0.46423  -0.42339  -0.41017  -0.40198
 Alpha  occ. eigenvalues --   -0.38725  -0.38260  -0.36245  -0.35811  -0.35152
 Alpha  occ. eigenvalues --   -0.34324  -0.34170  -0.32587  -0.31784  -0.31047
 Alpha  occ. eigenvalues --   -0.30541  -0.29664  -0.29225  -0.28841  -0.28396
 Alpha  occ. eigenvalues --   -0.27897  -0.27179  -0.26474  -0.26314  -0.25756
 Alpha  occ. eigenvalues --   -0.24856  -0.23664  -0.23561  -0.23023  -0.22189
 Alpha  occ. eigenvalues --   -0.21759  -0.21348  -0.18138  -0.15506  -0.13677
 Alpha  occ. eigenvalues --   -0.12587  -0.11233   0.04524
 Alpha virt. eigenvalues --    0.05981   0.06602   0.07758   0.08053   0.08378
 Alpha virt. eigenvalues --    0.08719   0.09169   0.09427   0.10204   0.10601
 Alpha virt. eigenvalues --    0.10746   0.11262   0.11417   0.12117   0.12420

  Beta  occ. eigenvalues --  -19.01857 -18.95905 -14.24669 -14.20248 -10.13127
  Beta  occ. eigenvalues --  -10.12055 -10.11600 -10.09251 -10.08133 -10.08039
  Beta  occ. eigenvalues --  -10.07762 -10.07318 -10.07018 -10.06681 -10.06396
  Beta  occ. eigenvalues --  -10.06309 -10.06147 -10.05155 -10.04199  -0.92463
  Beta  occ. eigenvalues --   -0.90673  -0.87079  -0.79347  -0.75075  -0.71742
  Beta  occ. eigenvalues --   -0.67247  -0.64524  -0.62299  -0.59178  -0.58280
  Beta  occ. eigenvalues --   -0.56459  -0.56170  -0.51759  -0.49932  -0.47855
  Beta  occ. eigenvalues --   -0.46488  -0.46378  -0.42283  -0.40907  -0.40085
  Beta  occ. eigenvalues --   -0.38706  -0.38191  -0.36139  -0.35749  -0.35066
  Beta  occ. eigenvalues --   -0.34153  -0.34013  -0.32154  -0.31643  -0.30878
  Beta  occ. eigenvalues --   -0.30483  -0.29608  -0.29176  -0.28796  -0.28360
  Beta  occ. eigenvalues --   -0.27819  -0.27054  -0.26362  -0.25825  -0.25659
  Beta  occ. eigenvalues --   -0.24424  -0.23609  -0.23492  -0.22913  -0.22143
  Beta  occ. eigenvalues --   -0.21667  -0.21330  -0.18061  -0.15160  -0.13104
  Beta  occ. eigenvalues --   -0.12226  -0.10498
  Beta virt. eigenvalues --    0.06526   0.06782   0.07716   0.08192   0.08593
  Beta virt. eigenvalues --    0.08783   0.09137   0.09168   0.09706   0.10255
  Beta virt. eigenvalues --    0.10729   0.10926   0.11323   0.11584   0.12159

 Mulliken charges and spin densities:
               1          2
     1  C    0.786730  -1.486780
     2  C   -1.634787   2.107873
     3  C    0.374326  -1.006025
     4  C    0.805024  -1.268882
     5  C   -0.181769  -0.103319
     6  C   -0.100699  -0.274879
     7  N   -0.113426   0.057587
     8  C   -0.627555   0.204291
     9  O   -0.279984   0.089080
    10  C    0.149857  -0.147720
    11  C   -0.356520   0.106095
    12  C   -0.290596  -0.083270
    13  C   -0.074112   0.105394
    14  N    0.395030   0.050386
    15  C   -0.098423   0.008720
    16  C   -0.237624  -0.007471
    17  C   -0.422979   0.001825
    18  C   -0.196439   0.021428
    19  O   -0.070244   0.005821
    20  H   -0.015940   0.159404
    21  H    0.041150   0.077669
    22  H   -0.384217   0.531617
    23  H   -0.116827   0.271562
    24  H   -0.018437   0.143810
    25  H   -0.135849   0.266885
    26  H   -0.489384   0.648523
    27  H    0.192134  -0.058153
    28  H    0.100433   0.061048
    29  H    0.212546  -0.012109
    30  H    0.254652  -0.081524
    31  H   -0.112621   0.324960
    32  H    0.151751   0.167833
    33  H    0.022545   0.107995
    34  H    0.116196   0.025678
    35  H    0.093500  -0.001436
    36  H    0.150881   0.008974
    37  H    0.125760   0.000033
    38  H    0.197581   0.012580
    39  H    0.149776   0.000223
    40  H    0.086794   0.002993
    41  H    0.149443   0.006439
    42  H    0.141842   0.000271
    43  H    0.260478  -0.045431
 Sum of Mulliken charges =  -1.00000   1.00000

 Dipole moment (field-independent basis, Debye):
    X=              8.0638    Y=             -2.0633    Z=             -3.4974  Tot=              9.0285
 Quadrupole moment (field-independent basis, Debye-Ang):
   XX=           -214.4893   YY=           -147.3767   ZZ=           -146.7119
   XY=              4.1096   XZ=              4.0399   YZ=             -1.7018

 Summary of Natural Population Analysis:

                                       Natural Population
                Natural  -----------------------------------------------
    Atom  No    Charge         Core      Valence    Rydberg      Total
 -----------------------------------------------------------------------
      C    1   -0.28596      0.99965     2.27985    0.00646     3.28596
      C    2   -0.11871      0.99961     2.10951    0.00959     3.11871
      C    3   -0.28128      0.99965     2.27536    0.00627     3.28128
      C    4   -0.20261      0.99960     2.19281    0.01021     3.20261
      C    5    0.05940      0.99955     1.92742    0.01363     2.94060
      C    6   -0.09986      0.99959     2.08876    0.01151     3.09986
      N    7   -0.33373      0.99970     2.82247    0.01157     3.83373
      C    8    0.36024      0.99959     1.61650    0.02367     2.63976
      O    9   -0.32293      0.99988     3.31719    0.00587     4.32293
      C   10    0.01923      0.99946     1.96835    0.01296     2.98077
      C   11   -0.09430      0.99954     2.08627    0.00849     3.09430
      C   12   -0.16970      0.99957     2.16076    0.00936     3.16970
      C   13    0.01606      0.99959     1.97397    0.01037     2.98394
      N   14   -0.17772      0.99961     2.66634    0.01177     3.67772
      C   15    0.00505      0.99958     1.98455    0.01081     2.99495
      C   16   -0.19571      0.99963     2.18975    0.00634     3.19571
      C   17   -0.19128      0.99966     2.18527    0.00635     3.19128
      C   18   -0.19191      0.99963     2.18562    0.00665     3.19191
      O   19   -0.37476      0.99990     3.36867    0.00620     4.37476
      H   20    0.09487      0.00000     0.40430    0.00084     0.40513
      H   21    0.09744      0.00000     0.40158    0.00098     0.40256
      H   22    0.10258      0.00000     0.39630    0.00112     0.39742
      H   23    0.09523      0.00000     0.40239    0.00238     0.40477
      H   24    0.09400      0.00000     0.40504    0.00096     0.40600
      H   25    0.09908      0.00000     0.39999    0.00094     0.40092
      H   26    0.10200      0.00000     0.39658    0.00142     0.39800
      H   27    0.09541      0.00000     0.40313    0.00146     0.40459
      H   28    0.10058      0.00000     0.39834    0.00108     0.39942
      H   29    0.08637      0.00000     0.41236    0.00127     0.41363
      H   30    0.10740      0.00000     0.39145    0.00115     0.39260
      H   31    0.09431      0.00000     0.40458    0.00111     0.40569
      H   32    0.18325      0.00000     0.31428    0.00247     0.31675
      H   33    0.10583      0.00000     0.39329    0.00088     0.39417
      H   34    0.09919      0.00000     0.39963    0.00118     0.40081
      H   35    0.09089      0.00000     0.40818    0.00094     0.40911
      H   36    0.09224      0.00000     0.40658    0.00118     0.40776
      H   37    0.08723      0.00000     0.41165    0.00112     0.41277
      H   38    0.12374      0.00000     0.37526    0.00101     0.37626
      H   39    0.09998      0.00000     0.39908    0.00094     0.40002
      H   40    0.08792      0.00000     0.41092    0.00116     0.41208
      H   41    0.11540      0.00000     0.38344    0.00116     0.38460
      H   42    0.09095      0.00000     0.40800    0.00106     0.40905
      H   43    0.23464      0.00000     0.26242    0.00294     0.26536
 =======================================================================
   * Total *    0.00000     18.99300    52.78818    0.21882    72.00000

 Normal termination of Gaussian 16 at Sat Dec 12 12:11:22 2020.
