 Gaussian 16, Revision A.03,

 -----------------------------------------------------------
 # opt freq B3LYP/6-31G(d) empiricaldispersion=gd3bj scf=xqc
 -----------------------------------------------------------

 -----------------------------
 CID_21285858_JID_933_neutraal
 -----------------------------
 Symbolic Z-matrix:
 Charge =  0 Multiplicity = 1

 SCF Done:  E(RB3LYP) =  -748.418440459     A.U. after   13 cycles
 SCF Done:  E(RB3LYP) =  -748.420244150     A.U. after   11 cycles
 SCF Done:  E(RB3LYP) =  -748.420446271     A.U. after   11 cycles
 SCF Done:  E(RB3LYP) =  -748.420481673     A.U. after   10 cycles
 SCF Done:  E(RB3LYP) =  -748.420486326     A.U. after    8 cycles
 SCF Done:  E(RB3LYP) =  -748.420487031     A.U. after    8 cycles
 Optimization completed.
    -- Stationary point found.

 1\1\GINC-NODE102\FOpt\RB3LYP\6-31G(d)\C9H12S1\VSC10255\08-Dec-2020\0\\
 # opt freq B3LYP/6-31G(d) empiricaldispersion=gd3bj scf=xqc\\CID_21285
 858_JID_933_neutraal\\0,1\C,1.0104974421,0.097668504,-0.0847392931\C,-
 0.0318366517,0.1198511093,1.0461407832\C,0.5403695925,0.6379225126,2.3
 494148043\C,1.0966655886,-0.2720453585,3.2572930541\C,1.6723351967,0.1
 502268477,4.4531668799\C,1.6977723926,1.5103484104,4.7633444883\C,1.14
 86402058,2.4265905839,3.8712522697\C,0.5745760087,2.0107335678,2.66349
 63443\C,-0.0238770588,3.04148288,1.7443474352\S,-1.7957064239,3.444339

 Normal termination of Gaussian 16 at Tue Dec  8 13:27:51 2020.

 --------------------------------------------------------------------
 #N Geom=AllCheck Guess=TCheck SCRF=Check GenChk RB3LYP/6-31G(d) Freq
 --------------------------------------------------------------------

 Structure from the checkpoint file:  "JID_933.chk"
 -----------------------------
 CID_21285858_JID_933_neutraal
 -----------------------------
 Charge =  0 Multiplicity = 1

 SCF Done:  E(RB3LYP) =  -748.420487031     A.U. after    1 cycles

  Exact polarizability: 128.058  -5.047 116.473  -8.088 -10.710  73.984
 Approx polarizability: 191.630  -6.416 175.745 -19.398 -24.901 119.407

                      1                      2                      3
                      A                      A                      A
 Frequencies --     64.1049                90.7008                99.6225
 Red. masses --      4.3225                 2.5990                 4.2479
 Frc consts  --      0.0105                 0.0126                 0.0248
 IR Inten    --      0.7559                 0.0573                 0.1937

                      4                      5                      6
                      A                      A                      A
 Frequencies --    131.8898               181.2342               223.5134
 Red. masses --      3.2706                 1.1514                 1.0965
 Frc consts  --      0.0335                 0.0223                 0.0323
 IR Inten    --      0.8701                15.7482                 0.7928

                      7                      8                      9
                      A                      A                      A
 Frequencies --    258.0728               330.9377               352.8263
 Red. masses --      3.5704                 3.4370                 2.2380
 Frc consts  --      0.1401                 0.2218                 0.1641
 IR Inten    --      2.4379                 1.2708                 1.2317

                     10                     11                     12
                      A                      A                      A
 Frequencies --    409.2608               469.7011               536.7110
 Red. masses --      2.3099                 3.5674                 4.3499
 Frc consts  --      0.2280                 0.4637                 0.7383
 IR Inten    --      0.4975                 2.3854                 1.3988

                     13                     14                     15
                      A                      A                      A
 Frequencies --    561.6223               602.5481               669.7414
 Red. masses --      3.5474                 4.5008                 4.2445
 Frc consts  --      0.6592                 0.9628                 1.1217
 IR Inten    --      6.6365                 1.7366                18.8420

                     16                     17                     18
                      A                      A                      A
 Frequencies --    744.4901               772.9641               774.0668
 Red. masses --      3.4348                 1.4425                 2.1871
 Frc consts  --      1.1217                 0.5078                 0.7721
 IR Inten    --      6.4734                24.2193                 1.6110

                     19                     20                     21
                      A                      A                      A
 Frequencies --    802.4533               829.9941               846.4382
 Red. masses --      1.2590                 1.4720                 3.3717
 Frc consts  --      0.4777                 0.5974                 1.4233
 IR Inten    --      2.0505                 3.1960                 1.0265

                     22                     23                     24
                      A                      A                      A
 Frequencies --    888.4199               948.5660               981.7599
 Red. masses --      1.4357                 1.3611                 2.1732
 Frc consts  --      0.6676                 0.7215                 1.2341
 IR Inten    --      0.0394                 0.6179                 1.5522

                     25                     26                     27
                      A                      A                      A
 Frequencies --    985.2704               999.2908              1062.8882
 Red. masses --      1.3308                 1.4869                 1.8753
 Frc consts  --      0.7611                 0.8748                 1.2482
 IR Inten    --      0.2436                 3.6563                 0.6386

                     28                     29                     30
                      A                      A                      A
 Frequencies --   1087.1929              1094.8022              1145.4028
 Red. masses --      2.0531                 1.7694                 1.6531
 Frc consts  --      1.4298                 1.2495                 1.2778
 IR Inten    --      8.4899                 2.3437                 4.9591

                     31                     32                     33
                      A                      A                      A
 Frequencies --   1197.5469              1201.2986              1215.1149
 Red. masses --      1.0932                 1.1304                 2.2593
 Frc consts  --      0.9237                 0.9612                 1.9655
 IR Inten    --      0.0354                 3.1148                 2.0088

                     34                     35                     36
                      A                      A                      A
 Frequencies --   1253.9961              1288.7128              1304.6054
 Red. masses --      2.3274                 1.4106                 1.2930
 Frc consts  --      2.1563                 1.3802                 1.2966
 IR Inten    --      0.2617                 1.1923                16.1103

                     37                     38                     39
                      A                      A                      A
 Frequencies --   1344.7542              1367.5915              1374.5729
 Red. masses --      1.3517                 3.4927                 1.5098
 Frc consts  --      1.4402                 3.8487                 1.6807
 IR Inten    --      0.6616                 0.1477                 2.8015

                     40                     41                     42
                      A                      A                      A
 Frequencies --   1436.8384              1501.0454              1509.7498
 Red. masses --      1.2172                 2.1892                 1.1191
 Frc consts  --      1.4806                 2.9062                 1.5029
 IR Inten    --      2.5063                 3.6454                 5.4105

                     43                     44                     45
                      A                      A                      A
 Frequencies --   1524.9907              1531.4633              1543.2952
 Red. masses --      1.0444                 1.0872                 2.0445
 Frc consts  --      1.4311                 1.5024                 2.8691
 IR Inten    --      4.8378                 4.4148                 7.3764

                     46                     47                     48
                      A                      A                      A
 Frequencies --   1545.8589              1639.5642              1667.3419
 Red. masses --      1.1761                 5.9626                 5.7790
 Frc consts  --      1.6559                 9.4437                 9.4658
 IR Inten    --      5.3325                 0.1243                 0.8539

                     49                     50                     51
                      A                      A                      A
 Frequencies --   2684.6882              3050.6805              3055.5259
 Red. masses --      1.0385                 1.0352                 1.0601
 Frc consts  --      4.4100                 5.6761                 5.8312
 IR Inten    --     17.1139                27.2358                26.4120

                     52                     53                     54
                      A                      A                      A
 Frequencies --   3086.5499              3100.6870              3120.8831
 Red. masses --      1.1023                 1.0616                 1.1028
 Frc consts  --      6.1874                 6.0136                 6.3283
 IR Inten    --      8.1692                13.7744                45.9317

                     55                     56                     57
                      A                      A                      A
 Frequencies --   3125.0150              3153.3464              3173.8240
 Red. masses --      1.1033                 1.1048                 1.0869
 Frc consts  --      6.3482                 6.4727                 6.4505
 IR Inten    --     36.0537                 7.2763                12.7604

                     58                     59                     60
                      A                      A                      A
 Frequencies --   3181.4101              3194.8778              3209.8054
 Red. masses --      1.0880                 1.0917                 1.0974
 Frc consts  --      6.4879                 6.5657                 6.6616
 IR Inten    --      2.4184                26.4806                26.8439

 - Thermochemistry -
 -------------------
 Temperature   298.150 Kelvin.  Pressure   1.00000 Atm.
 Atom     1 has atomic number  6 and mass  12.00000

 Molecular mass:   152.06597 amu.
 Principal axes and moments of inertia in atomic units:
                           1         2         3
     Eigenvalues --  1336.966171917.316932868.20503
           X            0.99970  -0.02182  -0.01154
           Y            0.02180   0.99976  -0.00215
           Z            0.01158   0.00190   0.99993
 This molecule is an asymmetric top.
 Rotational symmetry number  1.
 Warning -- assumption of classical behavior for rotation
           may cause significant error
 Rotational temperatures (Kelvin)      0.06478     0.04517     0.03020
 Rotational constants (GHZ):           1.34988     0.94128     0.62922
 Zero-point vibrational energy     487670.4 (Joules/Mol)
                                  116.55602 (Kcal/Mol)
 Warning -- explicit consideration of  14 degrees of freedom as
           vibrations may cause significant error
 Vibrational temperatures:     92.23   130.50   143.33   189.76   260.76
          (Kelvin)            321.59   371.31   476.15   507.64   588.83
                              675.80   772.21   808.05   866.93   963.61
                             1071.16  1112.12  1113.71  1154.55  1194.18
                             1217.84  1278.24  1364.77  1412.53  1417.58
                             1437.76  1529.26  1564.23  1575.18  1647.98
                             1723.00  1728.40  1748.28  1804.22  1854.17
                             1877.04  1934.80  1967.66  1977.70  2067.29
                             2159.67  2172.19  2194.12  2203.43  2220.46
                             2224.15  2358.97  2398.93  3862.67  4389.25
                             4396.22  4440.86  4461.20  4490.25  4496.20
                             4536.96  4566.42  4577.34  4596.72  4618.19

 Zero-point correction=                           0.185744 (Hartree/Particle)
 Thermal correction to Energy=                    0.196040
 Thermal correction to Enthalpy=                  0.196985
 Thermal correction to Gibbs Free Energy=         0.149458
 Sum of electronic and zero-point Energies=           -748.234743
 Sum of electronic and thermal Energies=              -748.224447
 Sum of electronic and thermal Enthalpies=            -748.223502
 Sum of electronic and thermal Free Energies=         -748.271029

                     E (Thermal)             CV                S
                      KCal/Mol        Cal/Mol-Kelvin    Cal/Mol-Kelvin
 Total                  123.017             38.577            100.028
 Electronic               0.000              0.000              0.000
 Translational            0.889              2.981             40.967
 Rotational               0.889              2.981             30.376
 Vibrational            121.240             32.616             28.684
 Vibration     1          0.597              1.971              4.327
 Vibration     2          0.602              1.956              3.645
 Vibration     3          0.604              1.949              3.462
 Vibration     4          0.612              1.921              2.918
 Vibration     5          0.630              1.865              2.316
 Vibration     6          0.649              1.805              1.930
 Vibration     7          0.667              1.749              1.675
 Vibration     8          0.713              1.614              1.256
 Vibration     9          0.729              1.569              1.154
 Vibration    10          0.774              1.450              0.929
 Vibration    11          0.827              1.317              0.738
 Vibration    12          0.892              1.169              0.572
 Vibration    13          0.917              1.114              0.521
 Vibration    14          0.961              1.026              0.445

 Optimization completed.
    -- Stationary point found.

 1\1\GINC-NODE102\Freq\RB3LYP\6-31G(d)\C9H12S1\VSC10255\08-Dec-2020\0\\
 #N Geom=AllCheck Guess=TCheck SCRF=Check GenChk RB3LYP/6-31G(d) Freq\\
 CID_21285858_JID_933_neutraal\\0,1\C,1.0104974421,0.097668504,-0.08473
 92931\C,-0.0318366517,0.1198511093,1.0461407832\C,0.5403695925,0.63792
 25126,2.3494148043\C,1.0966655886,-0.2720453585,3.2572930541\C,1.67233
 51967,0.1502268477,4.4531668799\C,1.6977723926,1.5103484104,4.76334448
 83\C,1.1486402058,2.4265905839,3.8712522697\C,0.5745760087,2.010733567
 8,2.6634963443\C,-0.0238770588,3.04148288,1.7443474352\S,-1.7957064239

 Normal termination of Gaussian 16 at Tue Dec  8 13:33:13 2020.

 ----------------------------------------------------------------------
 # B3LYP/6-311++G(d,p) empiricaldispersion=gd3bj scf=xqc pop=npa geom=c
 heck
 ----------------------------------------------------------------------

 -------------------------------------
 CID_21285858_JID_933_Energie_neutraal
 -------------------------------------
 Structure from the checkpoint file:  "JID_933.chk"
 Charge =  0 Multiplicity = 1

 SCF Done:  E(RB3LYP) =  -748.542879171     A.U. after   15 cycles
 Normal termination of Gaussian 16 at Tue Dec  8 13:38:22 2020.

 ----------------------------------------------------------------------
 # B3LYP/6-311++G(d,p) empiricaldispersion=gd3bj scf=xqc pop=npa geom=c
 heck
 ----------------------------------------------------------------------

 -----------------------------------
 CID_21285858_JID_933_Energie_kation
 -----------------------------------
 Structure from the checkpoint file:  "JID_933.chk"
 Charge =  1 Multiplicity = 2

 SCF Done:  E(UB3LYP) =  -748.236268131     A.U. after   32 cycles
 Normal termination of Gaussian 16 at Tue Dec  8 13:45:14 2020.
 Gaussian 16:  ES64L-G16RevA.03 25-Dec-2016

 ----------------------------------
 CID_21285858_JID_933_Energie_anion
 ----------------------------------
 Structure from the checkpoint file:  "JID_933.chk"
 Charge = -1 Multiplicity = 2

                         Standard orientation:
 ---------------------------------------------------------------------
 Center     Atomic      Atomic             Coordinates (Angstroms)
 Number     Number       Type             X           Y           Z
 ---------------------------------------------------------------------
      1          6           0        0.405083    2.902928    0.691155
      2          6           0        0.169940    1.960944   -0.501832
      3          6           0        0.702451    0.565463   -0.250032
      4          6           0        2.016775    0.260943   -0.626291
      5          6           0        2.572882   -0.992871   -0.384386
      6          6           0        1.808743   -1.975895    0.245331
      7          6           0        0.501019   -1.688284    0.624819
      8          6           0       -0.062983   -0.427827    0.391772
      9          6           0       -1.488701   -0.176436    0.803542
     10         16           0       -2.731855   -0.671086   -0.486369
     11          1           0       -0.092865    2.531887    1.593776
     12          1           0        0.023730    3.908134    0.480058
     13          1           0        1.474469    2.980559    0.914842
     14          1           0       -0.899409    1.934248   -0.740026
     15          1           0        0.667558    2.375870   -1.386259
     16          1           0        2.610262    1.026766   -1.120720
     17          1           0        3.594361   -1.202588   -0.689046
     18          1           0        2.227712   -2.959382    0.437796
     19          1           0       -0.104165   -2.453138    1.105248
     20          1           0       -1.754744   -0.790203    1.668099
     21          1           0       -1.665037    0.865010    1.074376
     22          1           0       -2.123450   -0.053580   -1.520705
 ---------------------------------------------------------------------

 SCF Done:  E(UB3LYP) =  -748.528188613     A.U. after   33 cycles
 SCF Done:  E(UB3LYP) =  -748.528188613     a.u. after    1 cycles

 The electronic state is 2-A.
 Alpha  occ. eigenvalues --  -88.73696 -10.09960 -10.07201 -10.06994 -10.06573
 Alpha  occ. eigenvalues --  -10.06401 -10.06311 -10.06296 -10.06239 -10.05214
 Alpha  occ. eigenvalues --   -7.82380  -5.78755  -5.78413  -5.77745  -0.75742
 Alpha  occ. eigenvalues --   -0.69130  -0.67748  -0.62836  -0.61413  -0.54926
 Alpha  occ. eigenvalues --   -0.52297  -0.48944  -0.46313  -0.39816  -0.37946
 Alpha  occ. eigenvalues --   -0.35372  -0.32624  -0.31774  -0.31447  -0.31229
 Alpha  occ. eigenvalues --   -0.29934  -0.28079  -0.26656  -0.25563  -0.24505
 Alpha  occ. eigenvalues --   -0.23877  -0.22354  -0.21913  -0.14825  -0.13927
 Alpha  occ. eigenvalues --   -0.12941   0.04774
 Alpha virt. eigenvalues --    0.07115   0.07412   0.07941   0.08573   0.08924
 Alpha virt. eigenvalues --    0.09648   0.09756   0.10849   0.11458   0.12182
 Alpha virt. eigenvalues --    0.12590   0.12769   0.13308   0.14827   0.15522

  Beta  occ. eigenvalues --  -88.73680 -10.09942 -10.07129 -10.06945 -10.06573
  Beta  occ. eigenvalues --  -10.06369 -10.06291 -10.06273 -10.06200 -10.05165
  Beta  occ. eigenvalues --   -7.82359  -5.78743  -5.78390  -5.77730  -0.75636
  Beta  occ. eigenvalues --   -0.69029  -0.67661  -0.62753  -0.61315  -0.54817
  Beta  occ. eigenvalues --   -0.52215  -0.48881  -0.46200  -0.39745  -0.37894
  Beta  occ. eigenvalues --   -0.35265  -0.32552  -0.31725  -0.31396  -0.31146
  Beta  occ. eigenvalues --   -0.29808  -0.28008  -0.26572  -0.25491  -0.24435
  Beta  occ. eigenvalues --   -0.23755  -0.22291  -0.21859  -0.14677  -0.13723
  Beta  occ. eigenvalues --   -0.12736
  Beta virt. eigenvalues --    0.07073   0.07822   0.08125   0.08400   0.08938
  Beta virt. eigenvalues --    0.09320   0.10130   0.10385   0.11188   0.12007
  Beta virt. eigenvalues --    0.12696   0.13001   0.13037   0.13679   0.15189

 Mulliken charges and spin densities:
               1          2
     1  C    1.708865  -2.346061
     2  C   -0.598439   0.336698
     3  C   -0.986358   1.904113
     4  C    0.368425  -0.582212
     5  C    1.454567  -1.730352
     6  C    0.563039  -0.972120
     7  C   -0.202468  -0.394593
     8  C   -1.507351   2.063484
     9  C    0.997957  -1.543651
    10  S    0.287188  -0.561952
    11  H   -0.193333   0.316927
    12  H   -0.535842   0.673479
    13  H   -0.126108   0.262401
    14  H   -0.181569   0.313291
    15  H   -0.412188   0.578020
    16  H   -0.432900   0.592275
    17  H   -0.309610   0.453081
    18  H   -0.212820   0.353343
    19  H   -0.209653   0.347110
    20  H   -0.147826   0.375090
    21  H   -0.101800   0.301572
    22  H   -0.221778   0.260056
 Sum of Mulliken charges =  -1.00000   1.00000

 Dipole moment (field-independent basis, Debye):
    X=             -0.5193    Y=             -3.6520    Z=              0.4437  Tot=              3.7154
 Quadrupole moment (field-independent basis, Debye-Ang):
   XX=           -117.7794   YY=           -124.1730   ZZ=            -97.3370
   XY=              0.6982   XZ=              2.7388   YZ=              0.9159

 Summary of Natural Population Analysis:

                                       Natural Population
                Natural  -----------------------------------------------
    Atom  No    Charge         Core      Valence    Rydberg      Total
 -----------------------------------------------------------------------
      C    1   -0.27888      0.99966     2.27375    0.00547     3.27888
      C    2   -0.20356      0.99961     2.19392    0.01003     3.20356
      C    3   -0.00226      0.99947     1.99119    0.01160     3.00226
      C    4   -0.10168      0.99951     2.09178    0.01039     3.10168
      C    5   -0.09071      0.99956     2.08141    0.00975     3.09071
      C    6   -0.10242      0.99956     2.09262    0.01024     3.10242
      C    7   -0.09368      0.99951     2.08485    0.00932     3.09368
      C    8   -0.02073      0.99945     2.01091    0.01036     3.02073
      C    9   -0.24297      0.99954     2.23278    0.01065     3.24297
      S   10   -0.03058      4.99967     3.01609    0.01481     8.03058
      H   11    0.09476      0.00000     0.40401    0.00123     0.40524
      H   12    0.10084      0.00000     0.39678    0.00239     0.39916
      H   13    0.09768      0.00000     0.40112    0.00120     0.40232
      H   14    0.10080      0.00000     0.39719    0.00202     0.39920
      H   15    0.10226      0.00000     0.39572    0.00202     0.39774
      H   16    0.10004      0.00000     0.39863    0.00133     0.39996
      H   17    0.09796      0.00000     0.40094    0.00110     0.40204
      H   18    0.09764      0.00000     0.40136    0.00099     0.40236
      H   19    0.09845      0.00000     0.40032    0.00123     0.40155
      H   20    0.10778      0.00000     0.39065    0.00157     0.39222
      H   21    0.10829      0.00000     0.38979    0.00192     0.39171
      H   22    0.06098      0.00000     0.43605    0.00297     0.43902
 =======================================================================
   * Total *    0.00000     13.99555    26.88186    0.12260    41.00000

 Normal termination of Gaussian 16 at Tue Dec  8 13:53:26 2020.
