 Gaussian 16, Revision A.03,

 -----------------------------------------------------------
 # opt freq B3LYP/6-31G(d) empiricaldispersion=gd3bj scf=xqc
 -----------------------------------------------------------

 -----------------------------
 CID_58526744_JID_240_neutraal
 -----------------------------
 Symbolic Z-matrix:
 Charge =  0 Multiplicity = 1

 SCF Done:  E(RB3LYP) =  -835.033831321     A.U. after   15 cycles
 SCF Done:  E(RB3LYP) =  -835.035991859     A.U. after   13 cycles
 SCF Done:  E(RB3LYP) =  -835.035487696     A.U. after   14 cycles
 SCF Done:  E(RB3LYP) =  -835.036693775     A.U. after   12 cycles
 SCF Done:  E(RB3LYP) =  -835.036733622     A.U. after   12 cycles
 SCF Done:  E(RB3LYP) =  -835.036806722     A.U. after   12 cycles
 SCF Done:  E(RB3LYP) =  -835.036891438     A.U. after   13 cycles
 SCF Done:  E(RB3LYP) =  -835.036952315     A.U. after   14 cycles
 SCF Done:  E(RB3LYP) =  -835.037149101     A.U. after   13 cycles
 SCF Done:  E(RB3LYP) =  -835.037511269     A.U. after   13 cycles
 SCF Done:  E(RB3LYP) =  -835.037879105     A.U. after   14 cycles
 SCF Done:  E(RB3LYP) =  -835.037887538     A.U. after   11 cycles
 SCF Done:  E(RB3LYP) =  -835.037894238     A.U. after   12 cycles
 SCF Done:  E(RB3LYP) =  -835.037896160     A.U. after    9 cycles
 SCF Done:  E(RB3LYP) =  -835.037897272     A.U. after    9 cycles
 SCF Done:  E(RB3LYP) =  -835.037897437     A.U. after    8 cycles
 Optimization completed.
    -- Stationary point found.
 Normal termination of Gaussian 16 at Tue Dec  8 10:22:07 2020.

 --------------------------------------------------------------------
 #N Geom=AllCheck Guess=TCheck SCRF=Check GenChk RB3LYP/6-31G(d) Freq
 --------------------------------------------------------------------

 Structure from the checkpoint file:  "JID_240.chk"
 -----------------------------
 CID_58526744_JID_240_neutraal
 -----------------------------
 Charge =  0 Multiplicity = 1

 SCF Done:  E(RB3LYP) =  -835.037897437     A.U. after    1 cycles

  Exact polarizability: 121.197  -2.775  85.216   2.699   1.893  49.854
 Approx polarizability: 183.529  -3.651 162.551   4.206   1.253  81.695

                      1                      2                      3
                      A                      A                      A
 Frequencies --     39.6802                56.1122               128.0706
 Red. masses --      4.1776                 6.6547                 3.1643
 Frc consts  --      0.0039                 0.0123                 0.0306
 IR Inten    --      6.8490                 1.6007                 0.5898

                      4                      5                      6
                      A                      A                      A
 Frequencies --    137.8757               162.2854               248.5673
 Red. masses --      1.3189                 8.1263                 6.3500
 Frc consts  --      0.0148                 0.1261                 0.2312
 IR Inten    --      0.6440                 1.3397                19.8941

                      7                      8                      9
                      A                      A                      A
 Frequencies --    274.5572               343.2198               451.5427
 Red. masses --      5.2383                 6.2331                 6.8300
 Frc consts  --      0.2326                 0.4326                 0.8205
 IR Inten    --      1.1816                 4.0833                 4.2364

                     10                     11                     12
                      A                      A                      A
 Frequencies --    484.7873               572.2888               612.3080
 Red. masses --      4.6705                 3.9738                 6.0474
 Frc consts  --      0.6467                 0.7668                 1.3359
 IR Inten    --      1.6558                66.9786                 2.5694

                     13                     14                     15
                      A                      A                      A
 Frequencies --    634.7752               652.3142               753.7830
 Red. masses --      9.0797                 4.6723                 2.3137
 Frc consts  --      2.1556                 1.1714                 0.7745
 IR Inten    --      2.7059                 1.8305                12.2797

                     16                     17                     18
                      A                      A                      A
 Frequencies --    774.3512               781.7335               842.6723
 Red. masses --      2.4453                 2.6605                 1.3870
 Frc consts  --      0.8639                 0.9579                 0.5803
 IR Inten    --      5.8365                 7.3925                36.5996

                     19                     20                     21
                      A                      A                      A
 Frequencies --    871.8452               898.8305               963.8470
 Red. masses --      4.9494                 4.0815                 3.0289
 Frc consts  --      2.2166                 1.9428                 1.6579
 IR Inten    --    109.2558                 2.1276                 8.1555

                     22                     23                     24
                      A                      A                      A
 Frequencies --   1033.8009              1058.0078              1162.6499
 Red. masses --      1.8864                 1.9580                 1.7959
 Frc consts  --      1.1879                 1.2913                 1.4303
 IR Inten    --      5.5190                 4.4242               110.0498

                     25                     26                     27
                      A                      A                      A
 Frequencies --   1249.9140              1300.4202              1363.9863
 Red. masses --      1.7169                 2.6766                 3.8485
 Frc consts  --      1.5804                 2.6669                 4.2185
 IR Inten    --      8.4400                 5.1772                 3.3987

                     28                     29                     30
                      A                      A                      A
 Frequencies --   1406.8374              1492.3974              1492.8567
 Red. masses --      1.3564                 1.0504                 1.0671
 Frc consts  --      1.5817                 1.3784                 1.4012
 IR Inten    --     43.8044                10.5288                14.4246

                     31                     32                     33
                      A                      A                      A
 Frequencies --   1509.3509              1525.1079              1761.7202
 Red. masses --      7.2295                 9.2899                13.0521
 Frc consts  --      9.7037                12.7310                23.8673
 IR Inten    --     89.5095                47.1402               177.4549

                     34                     35                     36
                      A                      A                      A
 Frequencies --   1817.5073              3055.4784              3122.8522
 Red. masses --     11.3738                 1.0399                 1.0940
 Frc consts  --     22.1365                 5.7199                 6.2862
 IR Inten    --    104.9499                 1.6277                 3.3749

                     37                     38                     39
                      A                      A                      A
 Frequencies --   3174.5109              3252.8918              3294.0345
 Red. masses --      1.1045                 1.0947                 1.0946
 Frc consts  --      6.5581                 6.8247                 6.9978
 IR Inten    --      6.8126                 0.4864                 6.3505

 - Thermochemistry -
 -------------------
 Temperature   298.150 Kelvin.  Pressure   1.00000 Atm.
 Atom     1 has atomic number  6 and mass  12.00000

 Molecular mass:   155.00410 amu.
 Principal axes and moments of inertia in atomic units:
                           1         2         3
     Eigenvalues --   638.500362597.834573033.28857
           X            0.99991  -0.00281   0.01275
           Y            0.00256   0.99981   0.01925
           Z           -0.01280  -0.01922   0.99973
 This molecule is an asymmetric top.
 Rotational symmetry number  1.
 Warning -- assumption of classical behavior for rotation
           may cause significant error
 Rotational temperatures (Kelvin)      0.13565     0.03334     0.02855
 Rotational constants (GHZ):           2.82653     0.69471     0.59498
 Zero-point vibrational energy     267722.9 (Joules/Mol)
                                   63.98731 (Kcal/Mol)
 Warning -- explicit consideration of  12 degrees of freedom as
           vibrations may cause significant error
 Vibrational temperatures:     57.09    80.73   184.27   198.37   233.49
          (Kelvin)            357.63   395.03   493.82   649.67   697.50
                              823.40   880.97   913.30   938.53  1084.53
                             1114.12  1124.74  1212.42  1254.39  1293.22
                             1386.76  1487.41  1522.24  1672.79  1798.35
                             1871.01  1962.47  2024.13  2147.23  2147.89
                             2171.62  2194.29  2534.72  2614.99  4396.15
                             4493.09  4567.41  4680.19  4739.38

 Zero-point correction=                           0.101970 (Hartree/Particle)
 Thermal correction to Energy=                    0.111494
 Thermal correction to Enthalpy=                  0.112438
 Thermal correction to Gibbs Free Energy=         0.065619
 Sum of electronic and zero-point Energies=           -834.935927
 Sum of electronic and thermal Energies=              -834.926403
 Sum of electronic and thermal Enthalpies=            -834.925459
 Sum of electronic and thermal Free Energies=         -834.972278

                     E (Thermal)             CV                S
                      KCal/Mol        Cal/Mol-Kelvin    Cal/Mol-Kelvin
 Total                   69.964             33.274             98.539
 Electronic               0.000              0.000              0.000
 Translational            0.889              2.981             41.024
 Rotational               0.889              2.981             29.999
 Vibrational             68.186             27.312             27.516
 Vibration     1          0.594              1.981              5.275
 Vibration     2          0.596              1.975              4.589
 Vibration     3          0.611              1.925              2.975
 Vibration     4          0.614              1.915              2.833
 Vibration     5          0.622              1.889              2.523
 Vibration     6          0.662              1.765              1.741
 Vibration     7          0.677              1.720              1.567
 Vibration     8          0.722              1.589              1.197
 Vibration     9          0.810              1.357              0.791
 Vibration    10          0.841              1.284              0.697
 Vibration    11          0.928              1.091              0.500
 Vibration    12          0.972              1.006              0.429

 Optimization completed.
    -- Stationary point found.
 Normal termination of Gaussian 16 at Tue Dec  8 10:24:24 2020.

 ----------------------------------------------------------------------
 # B3LYP/6-311++G(d,p) empiricaldispersion=gd3bj scf=xqc pop=npa geom=c
 heck
 ----------------------------------------------------------------------

 -------------------------------------
 CID_58526744_JID_240_Energie_neutraal
 -------------------------------------
 Structure from the checkpoint file:  "JID_240.chk"
 Charge =  0 Multiplicity = 1

 SCF Done:  E(RB3LYP) =  -835.190103606     A.U. after   15 cycles
 Normal termination of Gaussian 16 at Tue Dec  8 10:25:12 2020.

 ----------------------------------------------------------------------
 # B3LYP/6-311++G(d,p) empiricaldispersion=gd3bj scf=xqc pop=npa geom=c
 heck
 ----------------------------------------------------------------------

 -----------------------------------
 CID_58526744_JID_240_Energie_kation
 -----------------------------------
 Structure from the checkpoint file:  "JID_240.chk"
 Charge =  1 Multiplicity = 2

 SCF Done:  E(UB3LYP) =  -834.861439438     A.U. after   26 cycles
 Normal termination of Gaussian 16 at Tue Dec  8 10:27:31 2020.
 Gaussian 16:  ES64L-G16RevA.03 25-Dec-2016

 ----------------------------------------------------------------------
 # B3LYP/6-311++G(d,p) empiricaldispersion=gd3bj scf=xqc pop=npa geom=c
 heck
 ----------------------------------------------------------------------

 ----------------------------------
 CID_58526744_JID_240_Energie_anion
 ----------------------------------
 Structure from the checkpoint file:  "JID_240.chk"
 Charge = -1 Multiplicity = 2

                         Standard orientation:
 ---------------------------------------------------------------------
 Center     Atomic      Atomic             Coordinates (Angstroms)
 Number     Number       Type             X           Y           Z
 ---------------------------------------------------------------------
      1          6           0       -3.379325   -0.143505   -0.687159
      2          6           0       -2.158792   -0.380323    0.163939
      3          8           0       -2.045666   -1.266176    0.985067
      4          6           0       -1.040082    0.672076    0.046657
      5          8           0       -1.339218    1.856518    0.078201
      6          6           0        0.360651    0.206253   -0.006969
      7          6           0        1.434794    1.041872    0.184773
      8         16           0        2.905287    0.166366    0.012958
      9          6           0        1.956338   -1.276726   -0.327401
     10          7           0        0.672839   -1.107483   -0.301545
     11          1           0       -4.159533   -0.861146   -0.427544
     12          1           0       -3.115974   -0.249420   -1.747541
     13          1           0       -3.732462    0.883083   -0.545938
     14          1           0        1.405164    2.097352    0.413598
     15          1           0        2.445908   -2.219953   -0.538282
 ---------------------------------------------------------------------

 SCF Done:  E(UB3LYP) =  -835.222207267     A.U. after   25 cycles

 The electronic state is 2-A.
 Alpha  occ. eigenvalues --  -88.73838 -18.94713 -18.91834 -14.17714 -10.09170
 Alpha  occ. eigenvalues --  -10.08791 -10.05662 -10.04647 -10.03877 -10.03196
 Alpha  occ. eigenvalues --   -7.82512  -5.78767  -5.78438  -5.78174  -0.88616
 Alpha  occ. eigenvalues --   -0.85701  -0.82054  -0.65782  -0.60573  -0.60111
 Alpha  occ. eigenvalues --   -0.49210  -0.45159  -0.42005  -0.36859  -0.33115
 Alpha  occ. eigenvalues --   -0.31758  -0.29871  -0.28701  -0.27140  -0.27032
 Alpha  occ. eigenvalues --   -0.26438  -0.24337  -0.23262  -0.21586  -0.19937
 Alpha  occ. eigenvalues --   -0.15172  -0.14100  -0.13014  -0.10750  -0.06229
 Alpha  occ. eigenvalues --    0.03517
 Alpha virt. eigenvalues --    0.09550   0.10035   0.10826   0.11168   0.12911
 Alpha virt. eigenvalues --    0.13492   0.13627   0.14452   0.15135   0.15294
 Alpha virt. eigenvalues --    0.16131   0.17270   0.18869   0.19249   0.19995

  Beta  occ. eigenvalues --  -88.73791 -18.94423 -18.91210 -14.17729 -10.09167
  Beta  occ. eigenvalues --  -10.08687 -10.05306 -10.04689 -10.03427 -10.03203
  Beta  occ. eigenvalues --   -7.82470  -5.78746  -5.78420  -5.78014  -0.88039
  Beta  occ. eigenvalues --   -0.84652  -0.81968  -0.65395  -0.60176  -0.59924
  Beta  occ. eigenvalues --   -0.48175  -0.44899  -0.41562  -0.36594  -0.32779
  Beta  occ. eigenvalues --   -0.31513  -0.29377  -0.28242  -0.26836  -0.26687
  Beta  occ. eigenvalues --   -0.26179  -0.23809  -0.22540  -0.20385  -0.17826
  Beta  occ. eigenvalues --   -0.14304  -0.13948  -0.12540  -0.09084  -0.05703
  Beta virt. eigenvalues --    0.09545   0.10006   0.10308   0.11126   0.12280
  Beta virt. eigenvalues --    0.13090   0.13529   0.13740   0.15012   0.15260
  Beta virt. eigenvalues --    0.15769   0.16175   0.17262   0.18893   0.19470

 Mulliken charges and spin densities:
               1          2
     1  C   -0.462227  -0.012335
     2  C    0.053768   0.083559
     3  O   -0.312417   0.095069
     4  C   -0.727255   0.308910
     5  O   -0.410559   0.220020
     6  C   -0.702064  -0.087730
     7  C    0.778162   0.346148
     8  S   -0.483069   0.077433
     9  C    0.250635  -0.007601
    10  N    0.106014  -0.011388
    11  H    0.118383   0.001632
    12  H    0.127247   0.001784
    13  H    0.163146   0.006832
    14  H    0.281636  -0.022200
    15  H    0.218601  -0.000132
 Sum of Mulliken charges =  -1.00000   1.00000

 Dipole moment (field-independent basis, Debye):
    X=              2.8173    Y=             -0.9038    Z=             -1.7886  Tot=              3.4573
 Quadrupole moment (field-independent basis, Debye-Ang):
   XX=            -85.3964   YY=            -81.7147   ZZ=            -72.9025
   XY=             -1.5416   XZ=              4.0297   YZ=              3.4871

 Summary of Natural Population Analysis:

                                       Natural Population
                Natural  -----------------------------------------------
    Atom  No    Charge         Core      Valence    Rydberg      Total
 -----------------------------------------------------------------------
      C    1   -0.33556      0.99963     2.32993    0.00600     3.33556
      C    2    0.27024      0.99968     1.70659    0.02349     2.72976
      O    3   -0.25947      0.99987     3.25188    0.00772     4.25947
      C    4    0.26916      0.99957     1.70838    0.02289     2.73084
      O    5   -0.23790      0.99988     3.23187    0.00615     4.23790
      C    6    0.00497      0.99945     1.98033    0.01525     2.99503
      C    7   -0.09611      0.99950     2.08631    0.01029     3.09611
      S    8    0.17047      4.99948     2.80718    0.02287     7.82953
      C    9   -0.07654      0.99967     2.05971    0.01716     3.07654
      N   10   -0.21976      0.99967     2.70939    0.01071     3.71976
      H   11    0.09460      0.00000     0.40222    0.00318     0.40540
      H   12    0.10362      0.00000     0.39452    0.00187     0.39638
      H   13    0.11330      0.00000     0.38559    0.00110     0.38670
      H   14    0.11025      0.00000     0.38851    0.00124     0.38975
      H   15    0.08871      0.00000     0.40996    0.00132     0.41129
 =======================================================================
   * Total *    0.00000     13.99639    25.85237    0.15124    40.00000

 Normal termination of Gaussian 16 at Tue Dec  8 10:29:44 2020.
