 Gaussian 16, Revision A.03,

 -----------------------------------------------------------
 # opt freq B3LYP/6-31G(d) empiricaldispersion=gd3bj scf=xqc
 -----------------------------------------------------------

 -------------------------------
 CID_132014298_JID_8750_neutraal
 -------------------------------
 Symbolic Z-matrix:
 Charge =  0 Multiplicity = 1

 SCF Done:  E(RB3LYP) =  -1451.48174084     A.U. after   14 cycles
 SCF Done:  E(RB3LYP) =  -1451.49057522     A.U. after   12 cycles
 SCF Done:  E(RB3LYP) =  -1451.49112154     A.U. after   12 cycles
 SCF Done:  E(RB3LYP) =  -1451.49215213     A.U. after   12 cycles
 SCF Done:  E(RB3LYP) =  -1451.49256904     A.U. after   12 cycles
 SCF Done:  E(RB3LYP) =  -1451.49272815     A.U. after   12 cycles
 SCF Done:  E(RB3LYP) =  -1451.49273587     A.U. after   11 cycles
 SCF Done:  E(RB3LYP) =  -1451.49280782     A.U. after   10 cycles
 SCF Done:  E(RB3LYP) =  -1451.49281624     A.U. after    9 cycles
 SCF Done:  E(RB3LYP) =  -1451.49281790     A.U. after    8 cycles
 SCF Done:  E(RB3LYP) =  -1451.49281850     A.U. after    8 cycles
 SCF Done:  E(RB3LYP) =  -1451.49281864     A.U. after    7 cycles
 Optimization completed.
    -- Stationary point found.
 Normal termination of Gaussian 16 at Fri Dec 11 22:12:28 2020.

 --------------------------------------------------------------------
 #N Geom=AllCheck Guess=TCheck SCRF=Check GenChk RB3LYP/6-31G(d) Freq
 --------------------------------------------------------------------

 Structure from the checkpoint file:  "JID_8750.chk"
 -------------------------------
 CID_132014298_JID_8750_neutraal
 -------------------------------
 Charge =  0 Multiplicity = 1

 SCF Done:  E(RB3LYP) =  -1451.49281864     A.U. after    1 cycles

  Exact polarizability: 258.188  -5.938 196.803  12.816  24.632 123.844
 Approx polarizability: 374.823  -7.317 298.076  28.941  53.775 210.896

                      1                      2                      3
                      A                      A                      A
 Frequencies --     28.6142                37.5209                47.3920
 Red. masses --      4.5217                 7.3080                 6.8741
 Frc consts  --      0.0022                 0.0061                 0.0091
 IR Inten    --      0.2770                 1.3518                 0.1305

                      4                      5                      6
                      A                      A                      A
 Frequencies --     64.9433                90.7606                91.9765
 Red. masses --      3.6999                 4.3898                 3.9600
 Frc consts  --      0.0092                 0.0213                 0.0197
 IR Inten    --      0.4221                 0.3762                 0.2498

                      7                      8                      9
                      A                      A                      A
 Frequencies --    113.8165               162.1708               177.0206
 Red. masses --      2.8477                 2.7592                 2.7337
 Frc consts  --      0.0217                 0.0428                 0.0505
 IR Inten    --      0.0901                 0.0423                 0.2546

                     10                     11                     12
                      A                      A                      A
 Frequencies --    198.0070               235.1643               258.2349
 Red. masses --      3.8072                 3.5995                 2.0733
 Frc consts  --      0.0879                 0.1173                 0.0815
 IR Inten    --      1.9559                 1.0031                 1.6687

                     13                     14                     15
                      A                      A                      A
 Frequencies --    275.8201               318.6987               330.7490
 Red. masses --      2.4072                 4.0972                 2.7431
 Frc consts  --      0.1079                 0.2452                 0.1768
 IR Inten    --      0.2553                 2.3938                 0.7470

                     16                     17                     18
                      A                      A                      A
 Frequencies --    344.4926               356.2535               377.2960
 Red. masses --      1.1163                 2.4064                 3.3188
 Frc consts  --      0.0781                 0.1799                 0.2784
 IR Inten    --     25.3035                 3.8784                 3.9134

                     19                     20                     21
                      A                      A                      A
 Frequencies --    397.6796               420.4442               429.0394
 Red. masses --      3.5885                 3.0098                 2.7276
 Frc consts  --      0.3344                 0.3135                 0.2958
 IR Inten    --      2.0100                 0.2385                 8.4071

                     22                     23                     24
                      A                      A                      A
 Frequencies --    436.2190               468.3894               507.0338
 Red. masses --      2.7143                 2.7310                 3.3764
 Frc consts  --      0.3043                 0.3530                 0.5114
 IR Inten    --      4.5993                 0.5526                11.9893

                     25                     26                     27
                      A                      A                      A
 Frequencies --    537.6135               554.7730               591.5380
 Red. masses --      3.0186                 6.7501                 5.1242
 Frc consts  --      0.5140                 1.2240                 1.0564
 IR Inten    --      4.7230                17.3654                 1.1903

                     28                     29                     30
                      A                      A                      A
 Frequencies --    630.3992               638.4637               710.5357
 Red. masses --      4.7925                 6.0861                 2.5374
 Frc consts  --      1.1221                 1.4617                 0.7548
 IR Inten    --     11.5347                 0.4353                 2.5087

                     31                     32                     33
                      A                      A                      A
 Frequencies --    721.4499               753.0756               770.3095
 Red. masses --      1.9248                 2.1179                 2.2976
 Frc consts  --      0.5903                 0.7077                 0.8033
 IR Inten    --     31.1065                20.7112                 2.2809

                     34                     35                     36
                      A                      A                      A
 Frequencies --    810.5027               817.4287               841.0574
 Red. masses --      2.9639                 1.1611                 3.1373
 Frc consts  --      1.1472                 0.4571                 1.3076
 IR Inten    --      9.4986                 1.7296                15.8830

                     37                     38                     39
                      A                      A                      A
 Frequencies --    859.6132               865.6324               885.7916
 Red. masses --      2.8027                 1.2740                 1.7156
 Frc consts  --      1.2202                 0.5624                 0.7931
 IR Inten    --     11.8132                 1.5158                 2.7625

                     40                     41                     42
                      A                      A                      A
 Frequencies --    909.9157               930.7022               969.0025
 Red. masses --      1.6736                 1.4182                 2.2910
 Frc consts  --      0.8164                 0.7238                 1.2675
 IR Inten    --     80.0081                 6.1030                17.0664

                     43                     44                     45
                      A                      A                      A
 Frequencies --    972.8617               988.0824               998.1603
 Red. masses --      1.3541                 1.9044                 1.2608
 Frc consts  --      0.7551                 1.0955                 0.7401
 IR Inten    --      0.4473                 5.1737                 0.8025

                     46                     47                     48
                      A                      A                      A
 Frequencies --   1013.7664              1022.8837              1034.3228
 Red. masses --      2.8896                 6.0266                 2.8447
 Frc consts  --      1.7497                 3.7151                 1.7931
 IR Inten    --     51.5107                 3.5308                27.0752

                     49                     50                     51
                      A                      A                      A
 Frequencies --   1061.6377              1063.2342              1087.2823
 Red. masses --      2.2597                 2.2035                 2.1052
 Frc consts  --      1.5005                 1.4677                 1.4663
 IR Inten    --      5.6164                31.0396                31.9911

                     52                     53                     54
                      A                      A                      A
 Frequencies --   1090.8332              1106.0606              1119.5685
 Red. masses --      2.3200                 2.3574                 1.6644
 Frc consts  --      1.6265                 1.6992                 1.2292
 IR Inten    --     41.2928                 3.7969                12.7515

                     55                     56                     57
                      A                      A                      A
 Frequencies --   1145.6134              1176.8141              1194.0452
 Red. masses --      1.9442                 1.7464                 2.8449
 Frc consts  --      1.5034                 1.4250                 2.3898
 IR Inten    --     15.4641                20.3596                70.3074

                     58                     59                     60
                      A                      A                      A
 Frequencies --   1194.6837              1217.2221              1225.1318
 Red. masses --      1.1110                 1.1552                 1.3950
 Frc consts  --      0.9342                 1.0084                 1.2337
 IR Inten    --      1.0184                 1.1018                 8.3868

                     61                     62                     63
                      A                      A                      A
 Frequencies --   1241.0506              1253.2132              1266.6613
 Red. masses --      2.4846                 2.1226                 1.4820
 Frc consts  --      2.2547                 1.9641                 1.4009
 IR Inten    --      3.2809                34.0167                80.2993

                     64                     65                     66
                      A                      A                      A
 Frequencies --   1305.8146              1332.8692              1350.0925
 Red. masses --      1.2761                 1.4439                 1.2246
 Frc consts  --      1.2820                 1.5113                 1.3151
 IR Inten    --     41.8843                43.1069                20.3835

                     67                     68                     69
                      A                      A                      A
 Frequencies --   1356.8563              1368.3246              1376.1390
 Red. masses --      1.8789                 2.2423                 1.3414
 Frc consts  --      2.0381                 2.4735                 1.4967
 IR Inten    --      2.0999                 2.4902                30.0014

                     70                     71                     72
                      A                      A                      A
 Frequencies --   1383.9491              1397.9916              1404.9974
 Red. masses --      1.3692                 1.5160                 1.2807
 Frc consts  --      1.5451                 1.7457                 1.4895
 IR Inten    --      1.9043                25.2900                 7.5561

                     73                     74                     75
                      A                      A                      A
 Frequencies --   1410.6248              1427.0299              1435.6693
 Red. masses --      1.3261                 1.3500                 1.3058
 Frc consts  --      1.5548                 1.6198                 1.5857
 IR Inten    --     10.7369                 8.8577                15.7244

                     76                     77                     78
                      A                      A                      A
 Frequencies --   1446.9414              1470.0447              1499.0927
 Red. masses --      1.3519                 3.4153                 1.0788
 Frc consts  --      1.6677                 4.3486                 1.4283
 IR Inten    --      8.2888               392.1175                 1.2386

                     79                     80                     81
                      A                      A                      A
 Frequencies --   1503.3807              1508.6619              1519.1141
 Red. masses --      2.0729                 1.1193                 1.1164
 Frc consts  --      2.7603                 1.5010                 1.5179
 IR Inten    --      5.2984                 8.0669                21.3947

                     82                     83                     84
                      A                      A                      A
 Frequencies --   1524.6942              1526.4811              1533.8846
 Red. masses --      1.1045                 1.0660                 1.0522
 Frc consts  --      1.5128                 1.4636                 1.4586
 IR Inten    --      3.1140                 2.5027                 6.0595

                     85                     86                     87
                      A                      A                      A
 Frequencies --   1548.0434              1551.6949              1646.6698
 Red. masses --      1.5650                 1.3785                 5.4749
 Frc consts  --      2.2097                 1.9555                 8.7466
 IR Inten    --     13.0622                 2.7398                 1.4420

                     88                     89                     90
                      A                      A                      A
 Frequencies --   1668.4630              2721.3414              2965.2367
 Red. masses --      5.5740                 1.0379                 1.0717
 Frc consts  --      9.1421                 4.5285                 5.5518
 IR Inten    --      5.2558                 1.0536                70.6871

                     91                     92                     93
                      A                      A                      A
 Frequencies --   3034.9717              3039.7280              3050.4870
 Red. masses --      1.0681                 1.0721                 1.0685
 Frc consts  --      5.7964                 5.8367                 5.8581
 IR Inten    --     18.6836                25.9192                47.6925

                     94                     95                     96
                      A                      A                      A
 Frequencies --   3059.0911              3062.7860              3068.2658
 Red. masses --      1.0369                 1.0663                 1.0876
 Frc consts  --      5.7171                 5.8935                 6.0327
 IR Inten    --     18.8855                13.8382                29.4497

                     97                     98                     99
                      A                      A                      A
 Frequencies --   3095.5363              3104.2109              3124.2781
 Red. masses --      1.0849                 1.0995                 1.0966
 Frc consts  --      6.1252                 6.2424                 6.3064
 IR Inten    --      6.1296                30.6235                 7.3014

                    100                    101                    102
                      A                      A                      A
 Frequencies --   3125.4860              3137.3348              3144.7939
 Red. masses --      1.0996                 1.1008                 1.0948
 Frc consts  --      6.3289                 6.3839                 6.3795
 IR Inten    --     49.9916                19.6003                27.6210

                    103                    104                    105
                      A                      A                      A
 Frequencies --   3165.2323              3177.4366              3183.2535
 Red. masses --      1.0931                 1.0869                 1.0863
 Frc consts  --      6.4525                 6.4657                 6.4858
 IR Inten    --      6.7043                 7.2371                 2.6352

                    106                    107                    108
                      A                      A                      A
 Frequencies --   3193.1304              3201.3030              3212.6975
 Red. masses --      1.0900                 1.0939                 1.0980
 Frc consts  --      6.5482                 6.6053                 6.6769
 IR Inten    --      8.4639                34.2086                21.8827

 - Thermochemistry -
 -------------------
 Temperature   298.150 Kelvin.  Pressure   1.00000 Atm.
 Atom     1 has atomic number  6 and mass  12.00000

 Molecular mass:   280.10679 amu.
 Principal axes and moments of inertia in atomic units:
                           1         2         3
     Eigenvalues --  3672.829477381.71491**********
           X            1.00000  -0.00026  -0.00041
           Y            0.00026   0.99998   0.00635
           Z            0.00041  -0.00635   0.99998
 This molecule is an asymmetric top.
 Rotational symmetry number  1.
 Warning -- assumption of classical behavior for rotation
           may cause significant error
 Rotational temperatures (Kelvin)      0.02358     0.01173     0.00847
 Rotational constants (GHZ):           0.49138     0.24449     0.17658
 Zero-point vibrational energy     848169.1 (Joules/Mol)
                                  202.71727 (Kcal/Mol)
 Warning -- explicit consideration of  27 degrees of freedom as
           vibrations may cause significant error
 Vibrational temperatures:     41.17    53.98    68.19    93.44   130.58
          (Kelvin)            132.33   163.76   233.33   254.69   284.89
                              338.35   371.54   396.84   458.54   475.87
                              495.65   512.57   542.84   572.17   604.93
                              617.29   627.62   673.91   729.51   773.51
                              798.19   851.09   907.00   918.61  1022.30
                             1038.01  1083.51  1108.30  1166.13  1176.10
                             1210.09  1236.79  1245.45  1274.46  1309.17
                             1339.07  1394.18  1399.73  1421.63  1436.13
                             1458.58  1471.70  1488.16  1527.46  1529.76
                             1564.36  1569.47  1591.37  1610.81  1648.28
                             1693.17  1717.96  1718.88  1751.31  1762.69
                             1785.60  1803.09  1822.44  1878.78  1917.70
                             1942.48  1952.21  1968.71  1979.96  1991.19
                             2011.40  2021.48  2029.57  2053.18  2065.61
                             2081.83  2115.07  2156.86  2163.03  2170.63
                             2185.67  2193.69  2196.27  2206.92  2227.29
                             2232.54  2369.19  2400.55  3915.40  4266.31
                             4366.65  4373.49  4388.97  4401.35  4406.67
                             4414.55  4453.79  4466.27  4495.14  4496.88
                             4513.93  4524.66  4554.06  4571.62  4579.99
                             4594.20  4605.96  4622.36

 Zero-point correction=                           0.323051 (Hartree/Particle)
 Thermal correction to Energy=                    0.340600
 Thermal correction to Enthalpy=                  0.341544
 Thermal correction to Gibbs Free Energy=         0.276323
 Sum of electronic and zero-point Energies=          -1451.169768
 Sum of electronic and thermal Energies=             -1451.152219
 Sum of electronic and thermal Enthalpies=           -1451.151275
 Sum of electronic and thermal Free Energies=        -1451.216496

                     E (Thermal)             CV                S
                      KCal/Mol        Cal/Mol-Kelvin    Cal/Mol-Kelvin
 Total                  213.730             67.892            137.270
 Electronic               0.000              0.000              0.000
 Translational            0.889              2.981             42.788
 Rotational               0.889              2.981             33.982
 Vibrational            211.952             61.930             60.500
 Vibration     1          0.593              1.984              5.923
 Vibration     2          0.594              1.982              5.386
 Vibration     3          0.595              1.979              4.923
 Vibration     4          0.597              1.971              4.301
 Vibration     5          0.602              1.956              3.644
 Vibration     6          0.602              1.955              3.618
 Vibration     7          0.607              1.938              3.203
 Vibration     8          0.622              1.889              2.524
 Vibration     9          0.628              1.871              2.360
 Vibration    10          0.637              1.843              2.152
 Vibration    11          0.655              1.787              1.839
 Vibration    12          0.667              1.749              1.674
 Vibration    13          0.677              1.718              1.559
 Vibration    14          0.705              1.638              1.317
 Vibration    15          0.713              1.614              1.256
 Vibration    16          0.723              1.586              1.191
 Vibration    17          0.732              1.562              1.138
 Vibration    18          0.748              1.519              1.050
 Vibration    19          0.764              1.475              0.971
 Vibration    20          0.783              1.426              0.890
 Vibration    21          0.790              1.407              0.862
 Vibration    22          0.797              1.391              0.839
 Vibration    23          0.826              1.320              0.742
 Vibration    24          0.862              1.234              0.641
 Vibration    25          0.893              1.167              0.570
 Vibration    26          0.910              1.129              0.534
 Vibration    27          0.949              1.050              0.464

 Optimization completed.
    -- Stationary point found.
 Normal termination of Gaussian 16 at Fri Dec 11 22:32:53 2020.

 ----------------------------------------------------------------------
 # B3LYP/6-311++G(d,p) empiricaldispersion=gd3bj scf=xqc pop=npa geom=c
 heck
 ----------------------------------------------------------------------

 ---------------------------------------
 CID_132014298_JID_8750_Energie_neutraal
 ---------------------------------------
 Structure from the checkpoint file:  "JID_8750.chk"
 Charge =  0 Multiplicity = 1

 SCF Done:  E(RB3LYP) =  -1451.72006227     A.U. after   17 cycles
 Normal termination of Gaussian 16 at Fri Dec 11 22:42:21 2020.

 ----------------------------------------------------------------------
 # B3LYP/6-311++G(d,p) empiricaldispersion=gd3bj scf=xqc pop=npa geom=c
 heck
 ----------------------------------------------------------------------

 -------------------------------------
 CID_132014298_JID_8750_Energie_kation
 -------------------------------------
 Structure from the checkpoint file:  "JID_8750.chk"
 Charge =  1 Multiplicity = 2

 SCF Done:  E(UB3LYP) =  -1451.44499741     A.U. after   33 cycles
 SCF Done:  E(UB3LYP) =  -1451.44499741     a.u. after    1 cycles
 Normal termination of Gaussian 16 at Fri Dec 11 23:07:41 2020.
 Gaussian 16:  ES64L-G16RevA.03 25-Dec-2016

 ----------------------------------------------------------------------
 # B3LYP/6-311++G(d,p) empiricaldispersion=gd3bj scf=xqc pop=npa geom=c
 heck
 ----------------------------------------------------------------------

 ------------------------------------
 CID_132014298_JID_8750_Energie_anion
 ------------------------------------
 Structure from the checkpoint file:  "JID_8750.chk"
 Charge = -1 Multiplicity = 2

                         Standard orientation:
 ---------------------------------------------------------------------
 Center     Atomic      Atomic             Coordinates (Angstroms)
 Number     Number       Type             X           Y           Z
 ---------------------------------------------------------------------
      1          6           0       -2.322969    3.144116   -0.302067
      2          6           0       -0.915204    2.948801    0.258644
      3          7           0        0.010456    2.413427   -0.739174
      4          6           0        1.424458    2.592781   -0.444063
      5          6           0        1.992774    1.548685    0.521164
      6          7           0        1.755853    0.196688   -0.009199
      7          6           0        0.354289   -0.092919   -0.370204
      8          6           0       -0.221738    1.062512   -1.225733
      9          6           0       -0.449807   -0.477708    0.895079
     10          6           0       -1.860348   -0.906208    0.570373
     11          6           0       -2.962846   -0.152462    0.986678
     12          6           0       -4.262097   -0.539704    0.654172
     13          6           0       -4.475742   -1.691521   -0.102480
     14          6           0       -3.383545   -2.457029   -0.516562
     15          6           0       -2.088083   -2.067709   -0.180900
     16          6           0        2.718953   -0.748264    0.046301
     17         16           0        4.278832   -0.530137    0.606063
     18         16           0        2.193707   -2.368056   -0.564021
     19          1           0       -2.285804    3.758895   -1.206683
     20          1           0       -2.955068    3.646032    0.439090
     21          1           0       -2.804414    2.193345   -0.549639
     22          1           0       -0.517407    3.926693    0.554351
     23          1           0       -0.968958    2.350620    1.185478
     24          1           0        1.984489    2.529441   -1.387073
     25          1           0        1.585242    3.593455   -0.029641
     26          1           0        1.521856    1.629724    1.509721
     27          1           0        3.066749    1.671942    0.651030
     28          1           0        0.355531   -0.960175   -1.034687
     29          1           0       -1.290689    0.888720   -1.362677
     30          1           0        0.249435    0.985466   -2.214712
     31          1           0        0.089080   -1.298809    1.382578
     32          1           0       -0.462232    0.356386    1.601286
     33          1           0       -2.802009    0.742911    1.581159
     34          1           0       -5.105214    0.058348    0.988542
     35          1           0       -5.485534   -1.994681   -0.363590
     36          1           0       -3.541506   -3.361232   -1.097735
     37          1           0       -1.243170   -2.675790   -0.496064
     38          1           0        3.396278   -2.921224   -0.327213
 ---------------------------------------------------------------------

 SCF Done:  E(UB3LYP) =  -1451.71614341     A.U. after   33 cycles
 SCF Done:  E(UB3LYP) =  -1451.71614341     a.u. after    1 cycles

 The electronic state is 2-A.
 Alpha  occ. eigenvalues --  -88.75348 -88.67541 -14.24832 -14.21160 -10.14617
 Alpha  occ. eigenvalues --  -10.12142 -10.10408 -10.10244 -10.10139 -10.10026
 Alpha  occ. eigenvalues --  -10.08723 -10.08556 -10.08279 -10.08058 -10.08043
 Alpha  occ. eigenvalues --  -10.08015 -10.07984 -10.06776  -7.84062  -7.76299
 Alpha  occ. eigenvalues --   -5.80426  -5.80035  -5.79510  -5.72692  -5.72142
 Alpha  occ. eigenvalues --   -5.71860  -0.87607  -0.82890  -0.76895  -0.71041
 Alpha  occ. eigenvalues --   -0.69408  -0.66505  -0.66294  -0.65570  -0.61589
 Alpha  occ. eigenvalues --   -0.59160  -0.58753  -0.54616  -0.53024  -0.51663
 Alpha  occ. eigenvalues --   -0.49618  -0.48229  -0.43844  -0.42393  -0.39846
 Alpha  occ. eigenvalues --   -0.38867  -0.38262  -0.37969  -0.36847  -0.36490
 Alpha  occ. eigenvalues --   -0.34772  -0.34480  -0.33200  -0.32651  -0.31499
 Alpha  occ. eigenvalues --   -0.30996  -0.30125  -0.29843  -0.28809  -0.28011
 Alpha  occ. eigenvalues --   -0.27170  -0.27004  -0.26054  -0.25962  -0.25630
 Alpha  occ. eigenvalues --   -0.25168  -0.24632  -0.23479  -0.22605  -0.16651
 Alpha  occ. eigenvalues --   -0.16356  -0.15345  -0.12328  -0.10739  -0.09764
 Alpha  occ. eigenvalues --    0.03973
 Alpha virt. eigenvalues --    0.05740   0.06391   0.07087   0.07267   0.07496
 Alpha virt. eigenvalues --    0.08179   0.08315   0.08712   0.09478   0.09675
 Alpha virt. eigenvalues --    0.10229   0.10762   0.10979   0.11043   0.12002

  Beta  occ. eigenvalues --  -88.75345 -88.67520 -14.24761 -14.21158 -10.14141
  Beta  occ. eigenvalues --  -10.12135 -10.10400 -10.10221 -10.10122 -10.10026
  Beta  occ. eigenvalues --  -10.08657 -10.08558 -10.08263 -10.08036 -10.08034
  Beta  occ. eigenvalues --  -10.07969 -10.07941 -10.06764  -7.84058  -7.76281
  Beta  occ. eigenvalues --   -5.80434  -5.80040  -5.79482  -5.72697  -5.72059
  Beta  occ. eigenvalues --   -5.71849  -0.87390  -0.82804  -0.76802  -0.70898
  Beta  occ. eigenvalues --   -0.69156  -0.66436  -0.66186  -0.65502  -0.61501
  Beta  occ. eigenvalues --   -0.59047  -0.58656  -0.54551  -0.52932  -0.51626
  Beta  occ. eigenvalues --   -0.49518  -0.48074  -0.43763  -0.42328  -0.39708
  Beta  occ. eigenvalues --   -0.38820  -0.38198  -0.37886  -0.36732  -0.36422
  Beta  occ. eigenvalues --   -0.34580  -0.34337  -0.33170  -0.32520  -0.31426
  Beta  occ. eigenvalues --   -0.30955  -0.30006  -0.29740  -0.28678  -0.27899
  Beta  occ. eigenvalues --   -0.27122  -0.26925  -0.25888  -0.25625  -0.25557
  Beta  occ. eigenvalues --   -0.24994  -0.24576  -0.22860  -0.22405  -0.16494
  Beta  occ. eigenvalues --   -0.16015  -0.15069  -0.12105  -0.10321  -0.09711
  Beta virt. eigenvalues --    0.06037   0.06849   0.07266   0.07479   0.07502
  Beta virt. eigenvalues --    0.08386   0.08410   0.08788   0.09372   0.09637
  Beta virt. eigenvalues --    0.09818   0.10344   0.10833   0.10956   0.11231

 Mulliken charges and spin densities:
               1          2
     1  C    0.149182  -0.648499
     2  C   -0.238226  -0.047131
     3  N    0.120209   0.074197
     4  C   -0.525490   0.138416
     5  C    0.385911  -0.394862
     6  N    0.798673   0.004358
     7  C   -1.432407   0.624789
     8  C   -0.132025  -0.707402
     9  C    1.090610  -1.205218
    10  C    0.030735   0.758419
    11  C   -0.314368  -0.102042
    12  C    0.263954  -0.702567
    13  C    0.376180  -0.625394
    14  C   -0.147249  -0.227428
    15  C   -0.894386   1.008373
    16  C    0.116874   0.156024
    17  S   -0.727444   0.110495
    18  S   -0.061946   0.066381
    19  H    0.144512  -0.002496
    20  H   -0.177618   0.320838
    21  H    0.142608   0.017748
    22  H   -0.350487   0.495776
    23  H   -0.022487   0.095716
    24  H    0.077148   0.059703
    25  H   -0.101548   0.286650
    26  H    0.131920   0.011347
    27  H    0.035663   0.079438
    28  H    0.033422  -0.020680
    29  H    0.255943  -0.111351
    30  H    0.143569   0.060770
    31  H    0.199220  -0.022534
    32  H   -0.052757   0.296609
    33  H   -0.023069   0.160362
    34  H   -0.376650   0.556231
    35  H   -0.094359   0.240486
    36  H    0.035057   0.127971
    37  H    0.072570   0.056025
    38  H    0.068554   0.010482
 Sum of Mulliken charges =  -1.00000   1.00000

 Dipole moment (field-independent basis, Debye):
    X=             -1.7733    Y=             -1.5626    Z=             -2.4347  Tot=              3.3933
 Quadrupole moment (field-independent basis, Debye-Ang):
   XX=           -217.9794   YY=           -166.0177   ZZ=           -149.9198
   XY=              4.6235   XZ=              1.8212   YZ=             -2.3616

 Summary of Natural Population Analysis:

                                       Natural Population
                Natural  -----------------------------------------------
    Atom  No    Charge         Core      Valence    Rydberg      Total
 -----------------------------------------------------------------------
      C    1   -0.29127      0.99966     2.28572    0.00589     3.29127
      C    2   -0.08358      0.99961     2.07250    0.01146     3.08358
      N    3   -0.28127      0.99972     2.76858    0.01297     3.78127
      C    4   -0.08590      0.99961     2.07515    0.01115     3.08590
      C    5   -0.09943      0.99960     2.08976    0.01008     3.09943
      N    6   -0.25166      0.99958     2.73578    0.01631     3.75166
      C    7   -0.00520      0.99957     1.99480    0.01084     3.00520
      C    8   -0.08853      0.99958     2.07771    0.01124     3.08853
      C    9   -0.20608      0.99957     2.19744    0.00908     3.20608
      C   10   -0.00880      0.99951     1.99883    0.01046     3.00880
      C   11   -0.10180      0.99951     2.09296    0.00933     3.10180
      C   12   -0.09922      0.99956     2.08945    0.01021     3.09922
      C   13   -0.09774      0.99956     2.08804    0.01014     3.09774
      C   14   -0.10225      0.99957     2.09329    0.00939     3.10225
      C   15   -0.10046      0.99951     2.09323    0.00772     3.10046
      C   16    0.06150      0.99962     1.92118    0.01770     2.93850
      S   17   -0.12462      4.99950     3.11006    0.01505     8.12462
      S   18   -0.01373      4.99949     2.99854    0.01569     8.01373
      H   19    0.09804      0.00000     0.40079    0.00117     0.40196
      H   20    0.10004      0.00000     0.39902    0.00094     0.39996
      H   21    0.09998      0.00000     0.39887    0.00115     0.40002
      H   22    0.09474      0.00000     0.40369    0.00157     0.40526
      H   23    0.07885      0.00000     0.41929    0.00186     0.42115
      H   24    0.09472      0.00000     0.40421    0.00107     0.40528
      H   25    0.09924      0.00000     0.39970    0.00105     0.40076
      H   26    0.09376      0.00000     0.40513    0.00111     0.40624
      H   27    0.12120      0.00000     0.37729    0.00151     0.37880
      H   28    0.10542      0.00000     0.39192    0.00266     0.39458
      H   29    0.10585      0.00000     0.39314    0.00101     0.39415
      H   30    0.09643      0.00000     0.40251    0.00106     0.40357
      H   31    0.11231      0.00000     0.38647    0.00122     0.38769
      H   32    0.10265      0.00000     0.39590    0.00145     0.39735
      H   33    0.10157      0.00000     0.39658    0.00184     0.39843
      H   34    0.10108      0.00000     0.39784    0.00109     0.39892
      H   35    0.09846      0.00000     0.40073    0.00081     0.40154
      H   36    0.09814      0.00000     0.40109    0.00078     0.40186
      H   37    0.10140      0.00000     0.39729    0.00131     0.39860
      H   38    0.07618      0.00000     0.42043    0.00339     0.42382
 =======================================================================
   * Total *    0.00000     25.99233    48.77492    0.23275    75.00000

 Normal termination of Gaussian 16 at Fri Dec 11 23:33:07 2020.
