 Gaussian 16, Revision A.03,

 -----------------------------------------------------------
 # opt freq B3LYP/6-31G(d) empiricaldispersion=gd3bj scf=xqc
 -----------------------------------------------------------

 -------------------------------
 CID_124748082_JID_2210_neutraal
 -------------------------------
 Symbolic Z-matrix:
 Charge =  0 Multiplicity = 1

 SCF Done:  E(RB3LYP) =  -578.291687057     A.U. after   13 cycles
 SCF Done:  E(RB3LYP) =  -578.294926521     A.U. after   11 cycles
 SCF Done:  E(RB3LYP) =  -578.295194123     A.U. after   10 cycles
 SCF Done:  E(RB3LYP) =  -578.295268995     A.U. after    9 cycles
 SCF Done:  E(RB3LYP) =  -578.295283235     A.U. after    9 cycles
 SCF Done:  E(RB3LYP) =  -578.295287715     A.U. after    8 cycles
 SCF Done:  E(RB3LYP) =  -578.295289257     A.U. after    7 cycles
 SCF Done:  E(RB3LYP) =  -578.295289506     A.U. after    7 cycles
 Optimization completed.
    -- Stationary point found.

 1\1\GINC-NODE200\FOpt\RB3LYP\6-31G(d)\C9H16O3\VSC10255\09-Dec-2020\0\\
 # opt freq B3LYP/6-31G(d) empiricaldispersion=gd3bj scf=xqc\\CID_12474
 8082_JID_2210_neutraal\\0,1\C,1.0862095718,-0.0496693008,0.0361242332\
 C,0.4951020077,-1.4131066313,0.3646807427\C,0.8388565961,-2.434656918,
 -0.7274476438\O,0.4034485924,-3.7332691584,-0.3279079804\C,-1.02393705
 11,-3.7884511525,-0.2608235487\C,-1.5635257237,-2.8145546636,0.7839173
 738\C,-1.0540225592,-1.3835776422,0.5385814472\C,-1.5359478585,-0.4045
 455091,1.6349112889\C,-2.1330530256,0.7747749362,0.8516849493\C,-2.607

 Normal termination of Gaussian 16 at Wed Dec  9 16:53:15 2020.

 --------------------------------------------------------------------
 #N Geom=AllCheck Guess=TCheck SCRF=Check GenChk RB3LYP/6-31G(d) Freq
 --------------------------------------------------------------------

 Structure from the checkpoint file:  "JID_2210.chk"
 -------------------------------
 CID_124748082_JID_2210_neutraal
 -------------------------------
 Charge =  0 Multiplicity = 1

 SCF Done:  E(RB3LYP) =  -578.295289506     A.U. after    1 cycles

  Exact polarizability: 105.543   0.425  98.524   1.573  -2.920  88.757
 Approx polarizability: 138.687   2.317 136.947   4.526  -0.304 135.839

                      1                      2                      3
                      A                      A                      A
 Frequencies --     89.4668               117.1098               177.4334
 Red. masses --      2.8387                 3.6121                 3.0902
 Frc consts  --      0.0134                 0.0292                 0.0573
 IR Inten    --      0.8336                 1.3689                 1.7121

                      4                      5                      6
                      A                      A                      A
 Frequencies --    193.0473               232.5878               264.1322
 Red. masses --      2.6752                 1.1533                 2.4366
 Frc consts  --      0.0587                 0.0368                 0.1002
 IR Inten    --      2.0854                 0.9052                 4.8077

                      7                      8                      9
                      A                      A                      A
 Frequencies --    296.0737               309.7489               331.8238
 Red. masses --      2.2559                 4.0121                 3.3674
 Frc consts  --      0.1165                 0.2268                 0.2185
 IR Inten    --      1.6307                 3.8203                 3.3246

                     10                     11                     12
                      A                      A                      A
 Frequencies --    351.1632               371.7086               423.5145
 Red. masses --      2.6306                 3.4632                 2.1340
 Frc consts  --      0.1911                 0.2819                 0.2255
 IR Inten    --      4.1851                 4.4309                 2.8695

                     13                     14                     15
                      A                      A                      A
 Frequencies --    475.5858               501.7641               528.1910
 Red. masses --      3.0665                 2.5257                 2.5156
 Frc consts  --      0.4087                 0.3747                 0.4135
 IR Inten    --      2.6322                 5.0757                27.2361

                     16                     17                     18
                      A                      A                      A
 Frequencies --    533.1486               596.4639               628.5831
 Red. masses --      1.2289                 2.0898                 3.2234
 Frc consts  --      0.2058                 0.4381                 0.7504
 IR Inten    --     55.9102                 1.9234                 5.2003

                     19                     20                     21
                      A                      A                      A
 Frequencies --    651.4859               728.6739               811.5597
 Red. masses --      2.8514                 3.2434                 2.6468
 Frc consts  --      0.7130                 1.0146                 1.0271
 IR Inten    --     23.6051                 1.4836                 8.9219

                     22                     23                     24
                      A                      A                      A
 Frequencies --    869.0101               879.9617               903.8176
 Red. masses --      1.9854                 2.3763                 1.9967
 Frc consts  --      0.8834                 1.0841                 0.9610
 IR Inten    --      4.8402                 6.2352                14.3629

                     25                     26                     27
                      A                      A                      A
 Frequencies --    914.8972               937.6437               949.3724
 Red. masses --      2.0952                 2.4713                 2.0142
 Frc consts  --      1.0333                 1.2801                 1.0696
 IR Inten    --      2.1385                 1.7847                17.6811

                     28                     29                     30
                      A                      A                      A
 Frequencies --    967.8582               990.0301              1016.9697
 Red. masses --      2.0286                 2.1396                 2.0674
 Frc consts  --      1.1196                 1.2356                 1.2598
 IR Inten    --     15.0339                 8.9879                13.4085

                     31                     32                     33
                      A                      A                      A
 Frequencies --   1031.4836              1055.3431              1074.2990
 Red. masses --      1.5533                 1.6449                 2.8732
 Frc consts  --      0.9737                 1.0794                 1.9538
 IR Inten    --      3.0493                 9.9945                25.5748

                     34                     35                     36
                      A                      A                      A
 Frequencies --   1108.9786              1117.0199              1134.8614
 Red. masses --      3.0705                 4.8095                 2.4726
 Frc consts  --      2.2249                 3.5357                 1.8763
 IR Inten    --    141.5324               112.1628                 6.4915

                     37                     38                     39
                      A                      A                      A
 Frequencies --   1164.7630              1190.2693              1212.6537
 Red. masses --      2.9069                 2.0178                 1.6152
 Frc consts  --      2.3236                 1.6843                 1.3994
 IR Inten    --     22.3509                10.6491                 4.4140

                     40                     41                     42
                      A                      A                      A
 Frequencies --   1227.6256              1232.2753              1248.5311
 Red. masses --      2.3749                 1.6014                 1.8484
 Frc consts  --      2.1088                 1.4327                 1.6976
 IR Inten    --     18.3146                 5.6414                 8.7604

                     43                     44                     45
                      A                      A                      A
 Frequencies --   1265.2616              1279.9320              1334.9562
 Red. masses --      1.2954                 1.2407                 1.4299
 Frc consts  --      1.2218                 1.1976                 1.5014
 IR Inten    --     12.3455                26.1882                11.1798

                     46                     47                     48
                      A                      A                      A
 Frequencies --   1336.5461              1346.9615              1360.5908
 Red. masses --      1.5778                 1.4155                 1.2751
 Frc consts  --      1.6606                 1.5131                 1.3907
 IR Inten    --     17.1571                11.9357                 2.5783

                     49                     50                     51
                      A                      A                      A
 Frequencies --   1369.2186              1389.8535              1405.7400
 Red. masses --      1.3150                 1.4263                 1.3687
 Frc consts  --      1.4525                 1.6233                 1.5936
 IR Inten    --     33.0570                 1.0465                 2.9955

                     52                     53                     54
                      A                      A                      A
 Frequencies --   1417.3257              1432.6971              1445.3575
 Red. masses --      1.2737                 1.3250                 1.6769
 Frc consts  --      1.5075                 1.6024                 2.0640
 IR Inten    --     25.1168                 4.5386                29.4327

                     55                     56                     57
                      A                      A                      A
 Frequencies --   1503.9825              1511.6756              1514.5498
 Red. masses --      1.0905                 1.0824                 1.0777
 Frc consts  --      1.4534                 1.4573                 1.4565
 IR Inten    --      3.3044                 1.9615                 2.7659

                     58                     59                     60
                      A                      A                      A
 Frequencies --   1522.6936              1530.8078              1532.9917
 Red. masses --      1.0730                 1.0763                 1.0847
 Frc consts  --      1.4659                 1.4861                 1.5019
 IR Inten    --      0.9383                 3.9462                 8.2589

                     61                     62                     63
                      A                      A                      A
 Frequencies --   1539.6643              1554.4504              2992.0699
 Red. masses --      1.0775                 1.0994                 1.0726
 Frc consts  --      1.5049                 1.5651                 5.6574
 IR Inten    --      6.7521                 3.3813                72.7302

                     64                     65                     66
                      A                      A                      A
 Frequencies --   3028.7472              3045.7474              3052.1902
 Red. masses --      1.0678                 1.0622                 1.0610
 Frc consts  --      5.7711                 5.8055                 5.8236
 IR Inten    --     37.2696                32.3363                 9.2330

                     67                     68                     69
                      A                      A                      A
 Frequencies --   3064.8198              3068.6893              3076.6369
 Red. masses --      1.0694                 1.0379                 1.0602
 Frc consts  --      5.9183                 5.7585                 5.9126
 IR Inten    --     35.3122                 8.8110                25.8163

                     70                     71                     72
                      A                      A                      A
 Frequencies --   3094.9929              3107.6208              3115.9471
 Red. masses --      1.1024                 1.0919                 1.0995
 Frc consts  --      6.2219                 6.2130                 6.2898
 IR Inten    --     30.7712                46.0956                38.4383

                     73                     74                     75
                      A                      A                      A
 Frequencies --   3118.8089              3123.2620              3132.0978
 Red. masses --      1.1031                 1.1046                 1.1014
 Frc consts  --      6.3216                 6.3483                 6.3662
 IR Inten    --     21.3895                44.2252                30.8556

                     76                     77                     78
                      A                      A                      A
 Frequencies --   3142.4914              3156.0626              3683.8618
 Red. masses --      1.0967                 1.1022                 1.0652
 Frc consts  --      6.3812                 6.4685                 8.5173
 IR Inten    --     12.3261                15.5846                37.6916

 - Thermochemistry -
 -------------------
 Temperature   298.150 Kelvin.  Pressure   1.00000 Atm.
 Atom     1 has atomic number  6 and mass  12.00000

 Molecular mass:   172.10994 amu.
 Principal axes and moments of inertia in atomic units:
                           1         2         3
     Eigenvalues --  1226.275472059.219982452.14897
           X            0.99992  -0.01008  -0.00702
           Y            0.00963   0.99812  -0.06056
           Z            0.00761   0.06049   0.99814
 This molecule is an asymmetric top.
 Rotational symmetry number  1.
 Warning -- assumption of classical behavior for rotation
           may cause significant error
 Rotational temperatures (Kelvin)      0.07063     0.04206     0.03532
 Rotational constants (GHZ):           1.47173     0.87642     0.73598
 Zero-point vibrational energy     654598.0 (Joules/Mol)
                                  156.45267 (Kcal/Mol)
 Warning -- explicit consideration of  17 degrees of freedom as
           vibrations may cause significant error
 Vibrational temperatures:    128.72   168.49   255.29   277.75   334.64
          (Kelvin)            380.03   425.98   445.66   477.42   505.25
                              534.81   609.34   684.26   721.93   759.95
                              767.08   858.18   904.39   937.34  1048.40
                             1167.65  1250.31  1266.07  1300.39  1316.33
                             1349.06  1365.94  1392.53  1424.43  1463.19
                             1484.07  1518.40  1545.68  1595.57  1607.14
                             1632.81  1675.83  1712.53  1744.74  1766.28
                             1772.97  1796.36  1820.43  1841.54  1920.70
                             1922.99  1937.98  1957.59  1970.00  1999.69
                             2022.55  2039.22  2061.33  2079.55  2163.90
                             2174.96  2179.10  2190.82  2202.49  2205.63
                             2215.23  2236.51  4304.92  4357.69  4382.15
                             4391.42  4409.59  4415.16  4426.59  4453.00
                             4471.17  4483.15  4487.27  4493.68  4506.39
                             4521.34  4540.87  5300.26

 Zero-point correction=                           0.249323 (Hartree/Particle)
 Thermal correction to Energy=                    0.260273
 Thermal correction to Enthalpy=                  0.261217
 Thermal correction to Gibbs Free Energy=         0.213750
 Sum of electronic and zero-point Energies=           -578.045966
 Sum of electronic and thermal Energies=              -578.035016
 Sum of electronic and thermal Enthalpies=            -578.034072
 Sum of electronic and thermal Free Energies=         -578.081539

                     E (Thermal)             CV                S
                      KCal/Mol        Cal/Mol-Kelvin    Cal/Mol-Kelvin
 Total                  163.324             44.866             99.903
 Electronic               0.000              0.000              0.000
 Translational            0.889              2.981             41.336
 Rotational               0.889              2.981             30.205
 Vibrational            161.546             38.904             28.361
 Vibration     1          0.602              1.957              3.672
 Vibration     2          0.608              1.935              3.148
 Vibration     3          0.628              1.870              2.355
 Vibration     4          0.635              1.850              2.198
 Vibration     5          0.653              1.791              1.859
 Vibration     6          0.671              1.739              1.634
 Vibration     7          0.690              1.681              1.439
 Vibration     8          0.699              1.655              1.364
 Vibration     9          0.714              1.612              1.251
 Vibration    10          0.728              1.573              1.161
 Vibration    11          0.743              1.530              1.073
 Vibration    12          0.786              1.419              0.880
 Vibration    13          0.832              1.304              0.722
 Vibration    14          0.857              1.246              0.654
 Vibration    15          0.883              1.188              0.591
 Vibration    16          0.888              1.177              0.580
 Vibration    17          0.954              1.039              0.456

 Optimization completed.
    -- Stationary point found.

 1\1\GINC-NODE200\Freq\RB3LYP\6-31G(d)\C9H16O3\VSC10255\09-Dec-2020\0\\
 #N Geom=AllCheck Guess=TCheck SCRF=Check GenChk RB3LYP/6-31G(d) Freq\\
 CID_124748082_JID_2210_neutraal\\0,1\C,1.0862095718,-0.0496693008,0.03
 61242332\C,0.4951020077,-1.4131066313,0.3646807427\C,0.8388565961,-2.4
 34656918,-0.7274476438\O,0.4034485924,-3.7332691584,-0.3279079804\C,-1
 .0239370511,-3.7884511525,-0.2608235487\C,-1.5635257237,-2.8145546636,
 0.7839173738\C,-1.0540225592,-1.3835776422,0.5385814472\C,-1.535947858
 5,-0.4045455091,1.6349112889\C,-2.1330530256,0.7747749362,0.8516849493

 Normal termination of Gaussian 16 at Wed Dec  9 17:01:01 2020.

 ----------------------------------------------------------------------
 # B3LYP/6-311++G(d,p) empiricaldispersion=gd3bj scf=xqc pop=npa geom=c
 heck
 ----------------------------------------------------------------------

 ---------------------------------------
 CID_124748082_JID_2210_Energie_neutraal
 ---------------------------------------
 Structure from the checkpoint file:  "JID_2210.chk"
 Charge =  0 Multiplicity = 1

 SCF Done:  E(RB3LYP) =  -578.467879176     A.U. after   14 cycles
 Normal termination of Gaussian 16 at Wed Dec  9 17:04:23 2020.

 ----------------------------------------------------------------------
 # B3LYP/6-311++G(d,p) empiricaldispersion=gd3bj scf=xqc pop=npa geom=c
 heck
 ----------------------------------------------------------------------

 -------------------------------------
 CID_124748082_JID_2210_Energie_kation
 -------------------------------------
 Structure from the checkpoint file:  "JID_2210.chk"
 Charge =  1 Multiplicity = 2

 SCF Done:  E(UB3LYP) =  -578.149061303     A.U. after   21 cycles
 Normal termination of Gaussian 16 at Wed Dec  9 17:11:38 2020.
 Gaussian 16:  ES64L-G16RevA.03 25-Dec-2016

 ------------------------------------
 CID_124748082_JID_2210_Energie_anion
 ------------------------------------
 Structure from the checkpoint file:  "JID_2210.chk"
 Charge = -1 Multiplicity = 2

                         Standard orientation:
 ---------------------------------------------------------------------
 Center     Atomic      Atomic             Coordinates (Angstroms)
 Number     Number       Type             X           Y           Z
 ---------------------------------------------------------------------
      1          6           0       -0.140591    2.140024   -0.673579
      2          6           0        0.583776    0.966300   -0.030164
      3          6           0        1.731786    0.477412   -0.923214
      4          8           0        2.485573   -0.520851   -0.237006
      5          6           0        1.698743   -1.697873   -0.035779
      6          6           0        0.481594   -1.403151    0.837606
      7          6           0       -0.353902   -0.242865    0.269134
      8          6           0       -1.547752    0.111083    1.186815
      9          6           0       -2.757663    0.133853    0.240046
     10          6           0       -2.326678   -0.871345   -0.827379
     11          8           0       -0.926986   -0.658979   -0.993771
     12          8           0        1.143774    1.428092    1.203131
     13          1           0       -0.887776    2.555032    0.009472
     14          1           0       -0.637710    1.828513   -1.595171
     15          1           0        0.576392    2.935361   -0.900792
     16          1           0        2.424436    1.300291   -1.122283
     17          1           0        1.344122    0.086204   -1.873383
     18          1           0        1.373143   -2.091061   -1.009692
     19          1           0        2.362276   -2.429586    0.433556
     20          1           0        0.805848   -1.145977    1.853019
     21          1           0       -0.151356   -2.295872    0.912908
     22          1           0       -1.675167   -0.670663    1.944482
     23          1           0       -1.379585    1.050569    1.716753
     24          1           0       -2.885554    1.124397   -0.208078
     25          1           0       -3.694985   -0.142431    0.732594
     26          1           0       -2.803598   -0.727869   -1.801424
     27          1           0       -2.523527   -1.903591   -0.494375
     28          1           0        1.918277    0.859949    1.362661
 ---------------------------------------------------------------------

 SCF Done:  E(UB3LYP) =  -578.450601428     A.U. after   28 cycles

 The electronic state is 2-A.
 Alpha  occ. eigenvalues --  -19.03365 -19.02043 -19.01502 -10.12712 -10.12296
 Alpha  occ. eigenvalues --  -10.11676 -10.11373 -10.10435 -10.06350 -10.06132
 Alpha  occ. eigenvalues --  -10.06070 -10.05959  -0.95468  -0.93168  -0.91810
 Alpha  occ. eigenvalues --   -0.69841  -0.67678  -0.67219  -0.60995  -0.58293
 Alpha  occ. eigenvalues --   -0.51895  -0.50916  -0.48910  -0.44143  -0.41818
 Alpha  occ. eigenvalues --   -0.40412  -0.39609  -0.37624  -0.36429  -0.34440
 Alpha  occ. eigenvalues --   -0.33555  -0.32710  -0.31225  -0.29406  -0.28835
 Alpha  occ. eigenvalues --   -0.28578  -0.27195  -0.26598  -0.25277  -0.24939
 Alpha  occ. eigenvalues --   -0.23829  -0.22454  -0.22069  -0.20792  -0.19585
 Alpha  occ. eigenvalues --   -0.16057  -0.14436   0.04868
 Alpha virt. eigenvalues --    0.07102   0.07482   0.08415   0.09195   0.09708
 Alpha virt. eigenvalues --    0.09842   0.10367   0.10912   0.12050   0.12318
 Alpha virt. eigenvalues --    0.13161   0.13261   0.13772   0.14674   0.15893

  Beta  occ. eigenvalues --  -19.03358 -19.02034 -19.01499 -10.12709 -10.12297
  Beta  occ. eigenvalues --  -10.11668 -10.11354 -10.10398 -10.06325 -10.06115
  Beta  occ. eigenvalues --  -10.06039 -10.05940  -0.95455  -0.93158  -0.91792
  Beta  occ. eigenvalues --   -0.69818  -0.67647  -0.67176  -0.60958  -0.58251
  Beta  occ. eigenvalues --   -0.51838  -0.50871  -0.48843  -0.44095  -0.41795
  Beta  occ. eigenvalues --   -0.40389  -0.39569  -0.37594  -0.36371  -0.34406
  Beta  occ. eigenvalues --   -0.33522  -0.32669  -0.31192  -0.29371  -0.28808
  Beta  occ. eigenvalues --   -0.28555  -0.27167  -0.26571  -0.25241  -0.24897
  Beta  occ. eigenvalues --   -0.23803  -0.22425  -0.22044  -0.20762  -0.19562
  Beta  occ. eigenvalues --   -0.16031  -0.14418
  Beta virt. eigenvalues --    0.07169   0.08066   0.08352   0.08960   0.09902
  Beta virt. eigenvalues --    0.10286   0.10396   0.10777   0.11293   0.12609
  Beta virt. eigenvalues --    0.12807   0.13576   0.13737   0.14109   0.15020

 Mulliken charges and spin densities:
               1          2
     1  C    1.086674  -1.651529
     2  C   -1.717099   1.563824
     3  C    0.343301  -0.863325
     4  O   -0.192223   0.058273
     5  C    0.596033  -0.940755
     6  C    0.724388  -0.961620
     7  C   -1.194102   1.074851
     8  C    1.026453  -1.232384
     9  C   -0.653925   0.334717
    10  C    1.597992  -1.761266
    11  O   -0.101409   0.078919
    12  O   -0.095818   0.001002
    13  H   -0.009487   0.190247
    14  H   -0.280988   0.461346
    15  H    0.189830  -0.021418
    16  H    0.107991   0.077995
    17  H   -0.013237   0.201986
    18  H    0.171083  -0.014871
    19  H   -0.552506   0.761448
    20  H    0.059993   0.123211
    21  H   -0.510722   0.675450
    22  H   -0.304468   0.476555
    23  H   -0.019917   0.213899
    24  H    0.142645  -0.025759
    25  H   -0.926691   1.111663
    26  H   -0.420334   0.591255
    27  H   -0.132083   0.278501
    28  H    0.078626   0.197787
 Sum of Mulliken charges =  -1.00000   1.00000

 Dipole moment (field-independent basis, Debye):
    X=              4.5273    Y=              3.3892    Z=             -1.4281  Tot=              5.8329
 Quadrupole moment (field-independent basis, Debye-Ang):
   XX=           -135.7488   YY=           -117.1590   ZZ=           -110.4873
   XY=             -2.1598   XZ=             -1.2035   YZ=              4.1075

 Summary of Natural Population Analysis:

                                       Natural Population
                Natural  -----------------------------------------------
    Atom  No    Charge         Core      Valence    Rydberg      Total
 -----------------------------------------------------------------------
      C    1   -0.29502      0.99961     2.28795    0.00747     3.29502
      C    2    0.11313      0.99944     1.87119    0.01624     2.88687
      C    3   -0.02124      0.99950     2.01002    0.01171     3.02124
      O    4   -0.30720      0.99989     3.29828    0.00903     4.30720
      C    5   -0.01066      0.99957     1.99778    0.01331     3.01066
      C    6   -0.21757      0.99956     2.20632    0.01170     3.21757
      C    7    0.13950      0.99946     1.84053    0.02052     2.86050
      C    8   -0.20365      0.99958     2.19426    0.00981     3.20365
      C    9   -0.20278      0.99963     2.19512    0.00802     3.20278
      C   10   -0.00664      0.99958     1.99447    0.01259     3.00664
      O   11   -0.31926      0.99988     3.31012    0.00927     4.31926
      O   12   -0.38142      0.99989     3.37497    0.00656     4.38142
      H   13    0.10534      0.00000     0.39369    0.00097     0.39466
      H   14    0.10982      0.00000     0.38889    0.00129     0.39018
      H   15    0.10083      0.00000     0.39828    0.00089     0.39917
      H   16    0.09193      0.00000     0.40679    0.00129     0.40807
      H   17    0.09332      0.00000     0.40511    0.00157     0.40668
      H   18    0.08406      0.00000     0.41428    0.00166     0.41594
      H   19    0.09300      0.00000     0.40532    0.00167     0.40700
      H   20    0.10239      0.00000     0.39600    0.00160     0.39761
      H   21    0.11059      0.00000     0.38748    0.00193     0.38941
      H   22    0.10285      0.00000     0.39546    0.00168     0.39715
      H   23    0.11042      0.00000     0.38825    0.00133     0.38958
      H   24    0.09638      0.00000     0.40197    0.00166     0.40362
      H   25    0.10663      0.00000     0.39064    0.00273     0.39337
      H   26    0.09139      0.00000     0.40689    0.00172     0.40861
      H   27    0.08014      0.00000     0.41749    0.00237     0.41986
      H   28    0.23371      0.00000     0.26281    0.00348     0.26629
 =======================================================================
   * Total *   -0.00000     11.99559    34.84033    0.16408    47.00000

 Normal termination of Gaussian 16 at Wed Dec  9 17:21:04 2020.
