 Gaussian 16, Revision A.03,

 -----------------------------------------------------------
 # opt freq B3LYP/6-31G(d) empiricaldispersion=gd3bj scf=xqc
 -----------------------------------------------------------

 -------------------------------
 CID_147032153_JID_1423_neutraal
 -------------------------------
 Symbolic Z-matrix:
 Charge =  0 Multiplicity = 1

 SCF Done:  E(RB3LYP) =  -430.041110946     A.U. after   13 cycles
 SCF Done:  E(RB3LYP) =  -430.045591277     A.U. after   11 cycles
 SCF Done:  E(RB3LYP) =  -430.045478854     A.U. after   10 cycles
 SCF Done:  E(RB3LYP) =  -430.045841679     A.U. after   10 cycles
 SCF Done:  E(RB3LYP) =  -430.045899703     A.U. after    9 cycles
 SCF Done:  E(RB3LYP) =  -430.045906605     A.U. after    9 cycles
 SCF Done:  E(RB3LYP) =  -430.045912682     A.U. after    9 cycles
 SCF Done:  E(RB3LYP) =  -430.045913535     A.U. after    7 cycles
 SCF Done:  E(RB3LYP) =  -430.045913563     A.U. after    6 cycles
 Optimization completed.
    -- Stationary point found.
 Normal termination of Gaussian 16 at Tue Dec  8 19:58:12 2020.

 --------------------------------------------------------------------
 #N Geom=AllCheck Guess=TCheck SCRF=Check GenChk RB3LYP/6-31G(d) Freq
 --------------------------------------------------------------------

 Structure from the checkpoint file:  "JID_1423.chk"
 -------------------------------
 CID_147032153_JID_1423_neutraal
 -------------------------------
 Charge =  0 Multiplicity = 1

 SCF Done:  E(RB3LYP) =  -430.045913563     A.U. after    1 cycles

  Exact polarizability: 118.080   6.816 112.942  -1.831   3.192  94.056
 Approx polarizability: 154.969  12.465 168.114  -0.606   6.991 139.076

                      1                      2                      3
                      A                      A                      A
 Frequencies --     73.9658                83.1858               102.8816
 Red. masses --      3.0640                 2.3578                 2.4141
 Frc consts  --      0.0099                 0.0096                 0.0151
 IR Inten    --      0.0512                 0.0373                 0.0830

                      4                      5                      6
                      A                      A                      A
 Frequencies --    174.6025               191.9133               246.0002
 Red. masses --      1.8995                 2.4260                 1.4787
 Frc consts  --      0.0341                 0.0526                 0.0527
 IR Inten    --      0.2413                 0.0436                 0.7026

                      7                      8                      9
                      A                      A                      A
 Frequencies --    273.7677               291.4860               338.6814
 Red. masses --      2.4610                 1.6000                 2.2359
 Frc consts  --      0.1087                 0.0801                 0.1511
 IR Inten    --      0.6699                 0.0712                 0.5965

                     10                     11                     12
                      A                      A                      A
 Frequencies --    376.4117               432.1620               512.2609
 Red. masses --      1.9805                 2.7072                 2.4313
 Frc consts  --      0.1653                 0.2979                 0.3759
 IR Inten    --      0.1513                 0.7099                 0.0761

                     13                     14                     15
                      A                      A                      A
 Frequencies --    563.3610               579.6253               616.7584
 Red. masses --      2.8311                 2.6077                 2.6552
 Frc consts  --      0.5294                 0.5162                 0.5951
 IR Inten    --      0.6508                 0.7773                 1.4333

                     16                     17                     18
                      A                      A                      A
 Frequencies --    717.4023               750.6887               799.2892
 Red. masses --      2.6505                 1.8528                 1.8833
 Frc consts  --      0.8037                 0.6152                 0.7089
 IR Inten    --      1.2390                 1.4640                 2.2146

                     19                     20                     21
                      A                      A                      A
 Frequencies --    820.8704               827.2704               864.6339
 Red. masses --      1.2990                 1.9300                 2.0911
 Frc consts  --      0.5157                 0.7782                 0.9211
 IR Inten    --     17.5956                 1.0395                 0.0193

                     22                     23                     24
                      A                      A                      A
 Frequencies --    886.7310               892.4591               920.7967
 Red. masses --      1.9423                 1.6326                 2.4888
 Frc consts  --      0.8998                 0.7661                 1.2433
 IR Inten    --      0.7631                 2.7326                 1.6142

                     25                     26                     27
                      A                      A                      A
 Frequencies --    939.6977               965.5595               974.8492
 Red. masses --      1.8030                 2.2259                 2.2240
 Frc consts  --      0.9381                 1.2227                 1.2452
 IR Inten    --      0.4051                 0.7936                 0.9032

                     28                     29                     30
                      A                      A                      A
 Frequencies --    987.7321              1010.7400              1016.9561
 Red. masses --      1.7444                 2.0496                 1.8532
 Frc consts  --      1.0027                 1.2337                 1.1292
 IR Inten    --      2.5514                 2.0677                 0.1774

                     31                     32                     33
                      A                      A                      A
 Frequencies --   1074.2036              1089.4134              1110.7824
 Red. masses --      1.7331                 2.0912                 1.6383
 Frc consts  --      1.1783                 1.4623                 1.1910
 IR Inten    --      1.3819                 0.9303                 1.4451

                     34                     35                     36
                      A                      A                      A
 Frequencies --   1120.2828              1133.9258              1158.5062
 Red. masses --      1.9619                 1.5492                 1.5298
 Frc consts  --      1.4507                 1.1736                 1.2097
 IR Inten    --      0.0755                 1.5298                 0.2759

                     37                     38                     39
                      A                      A                      A
 Frequencies --   1187.8995              1201.1944              1224.8285
 Red. masses --      1.4960                 1.4835                 1.6455
 Frc consts  --      1.2438                 1.2612                 1.4545
 IR Inten    --      3.4014                 1.7909                 0.6510

                     40                     41                     42
                      A                      A                      A
 Frequencies --   1242.0255              1261.2714              1276.5312
 Red. masses --      1.3916                 1.2554                 1.3452
 Frc consts  --      1.2648                 1.1767                 1.2915
 IR Inten    --      0.5216                 1.0647                 0.3030

                     43                     44                     45
                      A                      A                      A
 Frequencies --   1303.3884              1311.2591              1316.3652
 Red. masses --      1.4226                 1.3907                 1.3530
 Frc consts  --      1.4239                 1.4088                 1.3813
 IR Inten    --      2.1185                 0.4733                 1.0298

                     46                     47                     48
                      A                      A                      A
 Frequencies --   1327.8416              1335.0345              1354.0159
 Red. masses --      1.2797                 1.4025                 1.2593
 Frc consts  --      1.3293                 1.4727                 1.3603
 IR Inten    --      2.0289                 0.3870                 1.1462

                     49                     50                     51
                      A                      A                      A
 Frequencies --   1369.7656              1371.3143              1384.5180
 Red. masses --      1.5094                 1.6595                 1.5285
 Frc consts  --      1.6686                 1.8387                 1.7263
 IR Inten    --      3.7780                 2.5106                 0.9679

                     52                     53                     54
                      A                      A                      A
 Frequencies --   1404.9118              1415.9493              1446.2129
 Red. masses --      1.3289                 1.4612                 1.2513
 Frc consts  --      1.5454                 1.7261                 1.5420
 IR Inten    --      3.0733                 3.2090                 3.2556

                     55                     56                     57
                      A                      A                      A
 Frequencies --   1512.3190              1513.5137              1515.9272
 Red. masses --      1.0819                 1.0874                 1.0723
 Frc consts  --      1.4579                 1.4676                 1.4518
 IR Inten    --      1.2451                 0.5803                 0.7535

                     58                     59                     60
                      A                      A                      A
 Frequencies --   1519.9372              1529.4293              1530.2460
 Red. masses --      1.0821                 1.0538                 1.0934
 Frc consts  --      1.4729                 1.4523                 1.5085
 IR Inten    --      5.7405                 3.2591                 2.5583

                     61                     62                     63
                      A                      A                      A
 Frequencies --   1536.6913              1538.6918              1740.9026
 Red. masses --      1.0796                 1.0843                 8.1316
 Frc consts  --      1.5020                 1.5125                14.5203
 IR Inten    --      4.8227                 6.5307                 0.8207

                     64                     65                     66
                      A                      A                      A
 Frequencies --   2973.8924              3008.5728              3011.4471
 Red. masses --      1.0819                 1.0708                 1.0775
 Frc consts  --      5.6376                 5.7108                 5.7573
 IR Inten    --     32.9707                63.9455                 4.9590

                     67                     68                     69
                      A                      A                      A
 Frequencies --   3026.6920              3035.0157              3046.1213
 Red. masses --      1.0670                 1.0628                 1.0664
 Frc consts  --      5.7589                 5.7682                 5.8299
 IR Inten    --     39.8824                29.5090                 8.0058

                     70                     71                     72
                      A                      A                      A
 Frequencies --   3048.8755              3052.4894              3057.5281
 Red. masses --      1.0450                 1.0647                 1.0744
 Frc consts  --      5.7232                 5.8452                 5.9177
 IR Inten    --     21.9585                38.3664                22.0920

                     73                     74                     75
                      A                      A                      A
 Frequencies --   3059.5806              3067.5689              3068.4521
 Red. masses --      1.0893                 1.0988                 1.0878
 Frc consts  --      6.0078                 6.0922                 6.0345
 IR Inten    --     67.0541                51.4311                53.8267

                     76                     77                     78
                      A                      A                      A
 Frequencies --   3098.6172              3105.0416              3106.3648
 Red. masses --      1.0976                 1.1023                 1.1012
 Frc consts  --      6.2089                 6.2617                 6.2605
 IR Inten    --     39.0762                16.0338                42.1056

                     79                     80                     81
                      A                      A                      A
 Frequencies --   3108.5739              3151.7080              3197.4257
 Red. masses --      1.1037                 1.0966                 1.0935
 Frc consts  --      6.2837                 6.4177                 6.5870
 IR Inten    --    107.7548                32.3772                19.2404

 - Thermochemistry -
 -------------------
 Temperature   298.150 Kelvin.  Pressure   1.00000 Atm.
 Atom     1 has atomic number  6 and mass  12.00000

 Molecular mass:   150.14085 amu.
 Principal axes and moments of inertia in atomic units:
                           1         2         3
     Eigenvalues --  1187.019331891.527402279.56473
           X            0.99999  -0.00423  -0.00290
           Y            0.00420   0.99992  -0.01227
           Z            0.00295   0.01226   0.99992
 This molecule is an asymmetric top.
 Rotational symmetry number  1.
 Warning -- assumption of classical behavior for rotation
           may cause significant error
 Rotational temperatures (Kelvin)      0.07297     0.04579     0.03800
 Rotational constants (GHZ):           1.52040     0.95412     0.79170
 Zero-point vibrational energy     704695.0 (Joules/Mol)
                                  168.42615 (Kcal/Mol)
 Warning -- explicit consideration of  15 degrees of freedom as
           vibrations may cause significant error
 Vibrational temperatures:    106.42   119.69   148.02   251.21   276.12
          (Kelvin)            353.94   393.89   419.38   487.29   541.57
                              621.78   737.03   810.55   833.95   887.38
                             1032.18  1080.07  1150.00  1181.05  1190.26
                             1244.02  1275.81  1284.05  1324.82  1352.02
                             1389.22  1402.59  1421.13  1454.23  1463.17
                             1545.54  1567.42  1598.17  1611.84  1631.47
                             1666.83  1709.12  1728.25  1762.26  1787.00
                             1814.69  1836.64  1875.29  1886.61  1893.96
                             1910.47  1920.82  1948.13  1970.79  1973.02
                             1992.01  2021.35  2037.24  2080.78  2175.89
                             2177.61  2181.08  2186.85  2200.51  2201.68
                             2210.96  2213.83  2504.77  4278.77  4328.67
                             4332.80  4354.73  4366.71  4382.69  4386.65
                             4391.85  4399.10  4402.05  4413.55  4414.82
                             4458.22  4467.46  4469.37  4472.54  4534.60
                             4600.38

 Zero-point correction=                           0.268404 (Hartree/Particle)
 Thermal correction to Energy=                    0.279034
 Thermal correction to Enthalpy=                  0.279978
 Thermal correction to Gibbs Free Energy=         0.232465
 Sum of electronic and zero-point Energies=           -429.777509
 Sum of electronic and thermal Energies=              -429.766880
 Sum of electronic and thermal Enthalpies=            -429.765935
 Sum of electronic and thermal Free Energies=         -429.813448

                     E (Thermal)             CV                S
                      KCal/Mol        Cal/Mol-Kelvin    Cal/Mol-Kelvin
 Total                  175.097             42.278            100.000
 Electronic               0.000              0.000              0.000
 Translational            0.889              2.981             40.929
 Rotational               0.889              2.981             30.016
 Vibrational            173.319             36.316             29.054
 Vibration     1          0.599              1.966              4.045
 Vibration     2          0.600              1.961              3.814
 Vibration     3          0.605              1.947              3.399
 Vibration     4          0.627              1.874              2.385
 Vibration     5          0.634              1.851              2.209
 Vibration     6          0.660              1.769              1.759
 Vibration     7          0.676              1.722              1.572
 Vibration     8          0.687              1.690              1.465
 Vibration     9          0.719              1.598              1.218
 Vibration    10          0.747              1.520              1.054
 Vibration    11          0.793              1.400              0.852
 Vibration    12          0.867              1.223              0.628
 Vibration    13          0.919              1.111              0.517
 Vibration    14          0.936              1.075              0.486
 Vibration    15          0.976              0.996              0.422

 Optimization completed.
    -- Stationary point found.
 Normal termination of Gaussian 16 at Tue Dec  8 20:06:03 2020.

 ----------------------------------------------------------------------
 # B3LYP/6-311++G(d,p) empiricaldispersion=gd3bj scf=xqc pop=npa geom=c
 heck
 ----------------------------------------------------------------------

 ---------------------------------------
 CID_147032153_JID_1423_Energie_neutraal
 ---------------------------------------
 Structure from the checkpoint file:  "JID_1423.chk"
 Charge =  0 Multiplicity = 1

 SCF Done:  E(RB3LYP) =  -430.158635639     A.U. after   13 cycles
 Normal termination of Gaussian 16 at Tue Dec  8 20:09:19 2020.

 ----------------------------------------------------------------------
 # B3LYP/6-311++G(d,p) empiricaldispersion=gd3bj scf=xqc pop=npa geom=c
 heck
 ----------------------------------------------------------------------

 -------------------------------------
 CID_147032153_JID_1423_Energie_kation
 -------------------------------------
 Structure from the checkpoint file:  "JID_1423.chk"
 Charge =  1 Multiplicity = 2

 SCF Done:  E(UB3LYP) =  -429.858713276     A.U. after   18 cycles
 Normal termination of Gaussian 16 at Tue Dec  8 20:15:40 2020.
 Gaussian 16:  ES64L-G16RevA.03 25-Dec-2016

 ----------------------------------------------------------------------
 # B3LYP/6-311++G(d,p) empiricaldispersion=gd3bj scf=xqc pop=npa geom=c
 heck
 ----------------------------------------------------------------------

 ------------------------------------
 CID_147032153_JID_1423_Energie_anion
 ------------------------------------
 Structure from the checkpoint file:  "JID_1423.chk"
 Charge = -1 Multiplicity = 2

                         Standard orientation:
 ---------------------------------------------------------------------
 Center     Atomic      Atomic             Coordinates (Angstroms)
 Number     Number       Type             X           Y           Z
 ---------------------------------------------------------------------
      1          6           0        1.509376   -1.749608    1.111574
      2          6           0        2.416801   -0.678669    0.496958
      3          6           0        2.031378   -0.179330   -0.906489
      4          6           0        0.799969    0.746168   -1.034599
      5          6           0        0.784837    1.954854   -0.037289
      6          6           0       -0.312819    1.640803    1.008588
      7          6           0       -1.377147    0.917726    0.167600
      8          6           0       -0.533164    0.084742   -0.775498
      9          6           0       -1.102924   -1.090943   -1.046171
     10          6           0       -2.428092   -1.230625   -0.316001
     11          6           0       -2.344106   -0.118195    0.770392
     12          1           0        0.508784   -1.368831    1.326054
     13          1           0        1.939036   -2.124158    2.048285
     14          1           0        1.391165   -2.601601    0.431393
     15          1           0        2.490916    0.174430    1.184302
     16          1           0        3.433695   -1.087827    0.427647
     17          1           0        2.891452    0.370735   -1.312041
     18          1           0        1.886166   -1.045098   -1.567582
     19          1           0        0.821684    1.137131   -2.061569
     20          1           0        0.512845    2.867937   -0.580121
     21          1           0        1.764558    2.137117    0.415892
     22          1           0        0.076108    0.958566    1.775210
     23          1           0       -0.678146    2.539254    1.517171
     24          1           0       -1.939283    1.673673   -0.407396
     25          1           0       -0.691422   -1.874779   -1.676120
     26          1           0       -2.569238   -2.228581    0.117508
     27          1           0       -3.280417   -1.063987   -0.993313
     28          1           0       -1.900202   -0.538880    1.681775
     29          1           0       -3.322359    0.293364    1.038516
 ---------------------------------------------------------------------

 SCF Done:  E(UB3LYP) =  -430.140246372     A.U. after   33 cycles
 SCF Done:  E(UB3LYP) =  -430.140246372     a.u. after    1 cycles

 The electronic state is 2-A.
 Alpha  occ. eigenvalues --  -10.06425 -10.06400 -10.06111 -10.05923 -10.05647
 Alpha  occ. eigenvalues --  -10.05601 -10.05474 -10.05440 -10.05254 -10.04802
 Alpha  occ. eigenvalues --  -10.04794  -0.75589  -0.69492  -0.66642  -0.62598
 Alpha  occ. eigenvalues --   -0.58731  -0.57117  -0.53687  -0.48651  -0.46764
 Alpha  occ. eigenvalues --   -0.44459  -0.40286  -0.37451  -0.36942  -0.35356
 Alpha  occ. eigenvalues --   -0.32650  -0.32260  -0.30292  -0.29500  -0.29074
 Alpha  occ. eigenvalues --   -0.27295  -0.25893  -0.24663  -0.24501  -0.23547
 Alpha  occ. eigenvalues --   -0.23259  -0.22812  -0.21382  -0.20470  -0.20242
 Alpha  occ. eigenvalues --   -0.19518  -0.12150   0.04900
 Alpha virt. eigenvalues --    0.07146   0.07363   0.07814   0.09150   0.09573
 Alpha virt. eigenvalues --    0.09793   0.09907   0.10464   0.11505   0.12136
 Alpha virt. eigenvalues --    0.12201   0.12502   0.12954   0.13277   0.13507

  Beta  occ. eigenvalues --  -10.06417 -10.06389 -10.06098 -10.05911 -10.05628
  Beta  occ. eigenvalues --  -10.05585 -10.05453 -10.05418 -10.05253 -10.04785
  Beta  occ. eigenvalues --  -10.04754  -0.75552  -0.69454  -0.66605  -0.62560
  Beta  occ. eigenvalues --   -0.58690  -0.57067  -0.53635  -0.48589  -0.46700
  Beta  occ. eigenvalues --   -0.44399  -0.40231  -0.37423  -0.36879  -0.35316
  Beta  occ. eigenvalues --   -0.32613  -0.32226  -0.30260  -0.29469  -0.29029
  Beta  occ. eigenvalues --   -0.27253  -0.25859  -0.24617  -0.24463  -0.23505
  Beta  occ. eigenvalues --   -0.23231  -0.22779  -0.21355  -0.20422  -0.20209
  Beta  occ. eigenvalues --   -0.19486  -0.12023
  Beta virt. eigenvalues --    0.07078   0.07916   0.08076   0.08407   0.09732
  Beta virt. eigenvalues --    0.10043   0.10185   0.10441   0.10929   0.11780
  Beta virt. eigenvalues --    0.12543   0.12609   0.13048   0.13306   0.13663

 Mulliken charges and spin densities:
               1          2
     1  C   -0.007416  -0.564303
     2  C   -0.772715   0.635738
     3  C    1.390332  -1.992723
     4  C   -0.337354   0.809771
     5  C    0.269607  -0.883385
     6  C    0.841155  -1.261744
     7  C   -1.265702   1.278203
     8  C    2.310740  -1.946742
     9  C   -1.353254   1.132442
    10  C    0.871192  -1.458763
    11  C   -0.456727   0.060228
    12  H    0.652835  -0.504649
    13  H   -0.262983   0.396790
    14  H   -0.080839   0.209874
    15  H    0.030406   0.085646
    16  H   -0.188577   0.341441
    17  H   -0.529636   0.691924
    18  H   -0.047822   0.177232
    19  H   -0.395382   0.636984
    20  H   -0.267834   0.429931
    21  H   -0.078872   0.227385
    22  H   -0.033435   0.148465
    23  H   -0.175985   0.341706
    24  H   -0.281687   0.479222
    25  H   -0.462209   0.624599
    26  H   -0.007459   0.137245
    27  H   -0.026234   0.152455
    28  H   -0.103612   0.226017
    29  H   -0.230533   0.389011
 Sum of Mulliken charges =  -1.00000   1.00000

 Dipole moment (field-independent basis, Debye):
    X=             -1.7937    Y=             -1.6586    Z=              2.3459  Tot=              3.3870
 Quadrupole moment (field-independent basis, Debye-Ang):
   XX=           -125.2873   YY=           -115.9907   ZZ=           -108.0586
   XY=              4.3880   XZ=              3.0422   YZ=              2.3773

 Summary of Natural Population Analysis:

                                       Natural Population
                Natural  -----------------------------------------------
    Atom  No    Charge         Core      Valence    Rydberg      Total
 -----------------------------------------------------------------------
      C    1   -0.28507      0.99966     2.27995    0.00545     3.28507
      C    2   -0.19140      0.99963     2.18383    0.00793     3.19140
      C    3   -0.17966      0.99961     2.17009    0.00996     3.17966
      C    4   -0.12755      0.99955     2.11472    0.01328     3.12755
      C    5   -0.18572      0.99963     2.17725    0.00883     3.18572
      C    6   -0.18693      0.99962     2.17882    0.00848     3.18693
      C    7   -0.12347      0.99954     2.11241    0.01152     3.12347
      C    8    0.00665      0.99949     1.98106    0.01281     2.99335
      C    9   -0.09591      0.99942     2.08720    0.00929     3.09591
      C   10   -0.19721      0.99964     2.19061    0.00696     3.19721
      C   11   -0.18223      0.99963     2.17391    0.00869     3.18223
      H   12    0.09880      0.00000     0.39967    0.00153     0.40120
      H   13    0.09409      0.00000     0.40505    0.00087     0.40591
      H   14    0.09533      0.00000     0.40359    0.00108     0.40467
      H   15    0.09223      0.00000     0.40639    0.00139     0.40777
      H   16    0.09521      0.00000     0.40346    0.00133     0.40479
      H   17    0.09894      0.00000     0.39925    0.00181     0.40106
      H   18    0.09631      0.00000     0.40224    0.00145     0.40369
      H   19    0.10924      0.00000     0.38853    0.00223     0.39076
      H   20    0.09943      0.00000     0.39869    0.00188     0.40057
      H   21    0.09805      0.00000     0.40083    0.00112     0.40195
      H   22    0.09280      0.00000     0.40546    0.00174     0.40720
      H   23    0.09913      0.00000     0.39977    0.00110     0.40087
      H   24    0.09979      0.00000     0.39811    0.00211     0.40021
      H   25    0.09823      0.00000     0.40065    0.00112     0.40177
      H   26    0.09531      0.00000     0.40337    0.00133     0.40469
      H   27    0.09468      0.00000     0.40393    0.00139     0.40532
      H   28    0.09353      0.00000     0.40501    0.00146     0.40647
      H   29    0.09741      0.00000     0.40150    0.00108     0.40259
 =======================================================================
   * Total *    0.00000     10.99541    30.87534    0.12925    42.00000

 Normal termination of Gaussian 16 at Tue Dec  8 20:27:19 2020.
