 Gaussian 16, Revision A.03,

 -----------------------------------------------------------
 # opt freq B3LYP/6-31G(d) empiricaldispersion=gd3bj scf=xqc
 -----------------------------------------------------------

 ------------------------------
 CID_135052411_JID_572_neutraal
 ------------------------------
 Symbolic Z-matrix:
 Charge =  0 Multiplicity = 1

 SCF Done:  E(RB3LYP) =  -1177.62341021     A.U. after   15 cycles
 SCF Done:  E(RB3LYP) =  -1177.62852167     A.U. after   13 cycles
 SCF Done:  E(RB3LYP) =  -1177.62587221     A.U. after   14 cycles
 SCF Done:  E(RB3LYP) =  -1177.62973085     A.U. after   14 cycles
 SCF Done:  E(RB3LYP) =  -1177.63021005     A.U. after   16 cycles
 SCF Done:  E(RB3LYP) =  -1177.63120073     A.U. after   14 cycles
 SCF Done:  E(RB3LYP) =  -1177.63164609     A.U. after   12 cycles
 SCF Done:  E(RB3LYP) =  -1177.63223016     A.U. after   13 cycles
 SCF Done:  E(RB3LYP) =  -1177.63246561     A.U. after   13 cycles
 SCF Done:  E(RB3LYP) =  -1177.63286557     A.U. after   12 cycles
 SCF Done:  E(RB3LYP) =  -1177.64638456     A.U. after   12 cycles
 SCF Done:  E(RB3LYP) =  -1177.64641737     A.U. after   11 cycles
 SCF Done:  E(RB3LYP) =  -1177.64642079     A.U. after   10 cycles
 SCF Done:  E(RB3LYP) =  -1177.64642045     A.U. after   10 cycles
 SCF Done:  E(RB3LYP) =  -1177.64642124     A.U. after    9 cycles
 Optimization completed.
    -- Stationary point found.
 Normal termination of Gaussian 16 at Tue Dec  8 12:40:04 2020.

 --------------------------------------------------------------------
 #N Geom=AllCheck Guess=TCheck SCRF=Check GenChk RB3LYP/6-31G(d) Freq
 --------------------------------------------------------------------

 Structure from the checkpoint file:  "JID_572.chk"
 ------------------------------
 CID_135052411_JID_572_neutraal
 ------------------------------
 Charge =  0 Multiplicity = 1

 SCF Done:  E(RB3LYP) =  -1177.64642124     A.U. after    1 cycles

  Exact polarizability: 148.247  -5.119  99.178   9.803   9.025  82.733
 Approx polarizability: 233.466  -6.877 162.810  28.978  25.618 129.533

                      1                      2                      3
                      A                      A                      A
 Frequencies --     44.0961                62.3531                80.5092
 Red. masses --      4.3596                 5.5125                 1.1666
 Frc consts  --      0.0050                 0.0126                 0.0045
 IR Inten    --      0.2178                 1.0007                 0.0219

                      4                      5                      6
                      A                      A                      A
 Frequencies --    119.2654               140.9692               186.7615
 Red. masses --      6.0033                 3.7846                 3.9335
 Frc consts  --      0.0503                 0.0443                 0.0808
 IR Inten    --      2.1764                 1.8487                 4.7792

                      7                      8                      9
                      A                      A                      A
 Frequencies --    223.7329               239.4503               257.6305
 Red. masses --      1.3193                 3.6428                 4.2801
 Frc consts  --      0.0389                 0.1231                 0.1674
 IR Inten    --      1.0595                 1.0729                 1.2345

                     10                     11                     12
                      A                      A                      A
 Frequencies --    297.1728               323.9320               364.6900
 Red. masses --      4.0649                 3.5382                 3.0896
 Frc consts  --      0.2115                 0.2187                 0.2421
 IR Inten    --      0.7014                 1.0494                20.8156

                     13                     14                     15
                      A                      A                      A
 Frequencies --    402.6534               443.8243               497.4325
 Red. masses --      1.7295                 2.9134                 2.9741
 Frc consts  --      0.1652                 0.3381                 0.4336
 IR Inten    --     44.6773                49.5368                44.8598

                     16                     17                     18
                      A                      A                      A
 Frequencies --    503.5248               533.8880               544.1873
 Red. masses --      1.5838                 3.4213                 3.3239
 Frc consts  --      0.2366                 0.5746                 0.5800
 IR Inten    --     75.3512                 3.3926                79.4652

                     19                     20                     21
                      A                      A                      A
 Frequencies --    600.1981               642.1622               652.8438
 Red. masses --      4.6551                 1.4635                 4.1647
 Frc consts  --      0.9880                 0.3556                 1.0458
 IR Inten    --     13.5579                15.0252                 5.9406

                     22                     23                     24
                      A                      A                      A
 Frequencies --    675.5545               814.7652               888.4799
 Red. masses --      2.0723                 2.8928                 3.4518
 Frc consts  --      0.5572                 1.1314                 1.6054
 IR Inten    --     28.8476                 1.6364               131.9639

                     25                     26                     27
                      A                      A                      A
 Frequencies --    976.1649              1019.3904              1037.1099
 Red. masses --      3.0751                 1.9914                 1.7355
 Frc consts  --      1.7265                 1.2193                 1.0998
 IR Inten    --     61.8644                40.3281                32.7890

                     28                     29                     30
                      A                      A                      A
 Frequencies --   1058.3466              1100.3929              1127.7465
 Red. masses --      1.5418                 1.8570                 2.0809
 Frc consts  --      1.0175                 1.3248                 1.5593
 IR Inten    --      1.0915                11.4198                18.9476

                     31                     32                     33
                      A                      A                      A
 Frequencies --   1237.2369              1265.3020              1270.5914
 Red. masses --      1.5061                 1.6515                 1.6632
 Frc consts  --      1.3583                 1.5578                 1.5820
 IR Inten    --     39.5981                18.4558               113.5692

                     34                     35                     36
                      A                      A                      A
 Frequencies --   1372.7241              1405.8995              1412.6297
 Red. masses --      1.5419                 3.2525                 1.5598
 Frc consts  --      1.7119                 3.7877                 1.8339
 IR Inten    --      8.0441               212.4204                33.4078

                     37                     38                     39
                      A                      A                      A
 Frequencies --   1432.9302              1447.5843              1498.6637
 Red. masses --      1.2298                 1.2314                 1.0488
 Frc consts  --      1.4877                 1.5203                 1.3879
 IR Inten    --     15.2145                 2.6636                12.1322

                     40                     41                     42
                      A                      A                      A
 Frequencies --   1514.0030              1520.1811              1529.8013
 Red. masses --      1.0832                 1.0549                 1.0494
 Frc consts  --      1.4629                 1.4363                 1.4470
 IR Inten    --     12.7204                 4.8224                 2.4898

                     43                     44                     45
                      A                      A                      A
 Frequencies --   1688.9865              1722.9860              3063.2056
 Red. masses --      1.1979                 6.5470                 1.0649
 Frc consts  --      2.0134                11.4513                 5.8870
 IR Inten    --     89.6010                 4.0273                 0.3205

                     46                     47                     48
                      A                      A                      A
 Frequencies --   3066.3342              3073.8293              3125.2006
 Red. masses --      1.0549                 1.0399                 1.0988
 Frc consts  --      5.8436                 5.7887                 6.3231
 IR Inten    --      8.4237                21.2620                 4.7498

                     49                     50                     51
                      A                      A                      A
 Frequencies --   3142.7820              3161.5322              3171.2840
 Red. masses --      1.1012                 1.1035                 1.1007
 Frc consts  --      6.4084                 6.4984                 6.5222
 IR Inten    --     12.5138                 6.6458                 8.1393

                     52                     53                     54
                      A                      A                      A
 Frequencies --   3452.6743              3639.2409              3757.1730
 Red. masses --      1.0567                 1.0949                 1.0678
 Frc consts  --      7.4219                 8.5439                 8.8807
 IR Inten    --    216.7873                88.9429                76.7203

 - Thermochemistry -
 -------------------
 Temperature   298.150 Kelvin.  Pressure   1.00000 Atm.
 Atom     1 has atomic number  6 and mass  12.00000

 Molecular mass:   178.02346 amu.
 Principal axes and moments of inertia in atomic units:
                           1         2         3
     Eigenvalues --  1172.618943110.685893365.16157
           X            0.99988  -0.00743  -0.01393
           Y            0.00698   0.99947  -0.03181
           Z            0.01416   0.03171   0.99940
 This molecule is an asymmetric top.
 Rotational symmetry number  1.
 Warning -- assumption of classical behavior for rotation
           may cause significant error
 Rotational temperatures (Kelvin)      0.07386     0.02784     0.02574
 Rotational constants (GHZ):           1.53907     0.58017     0.53630
 Zero-point vibrational energy     411706.8 (Joules/Mol)
                                   98.40029 (Kcal/Mol)
 Warning -- explicit consideration of  19 degrees of freedom as
           vibrations may cause significant error
 Vibrational temperatures:     63.44    89.71   115.83   171.60   202.82
          (Kelvin)            268.71   321.90   344.52   370.67   427.57
                              466.07   524.71   579.33   638.56   715.69
                              724.46   768.15   782.96   863.55   923.93
                              939.30   971.97  1172.27  1278.32  1404.48
                             1466.68  1492.17  1522.72  1583.22  1622.58
                             1780.11  1820.49  1828.10  1975.04  2022.78
                             2032.46  2061.67  2082.75  2156.24  2178.31
                             2187.20  2201.04  2430.07  2478.99  4407.27
                             4411.77  4422.55  4496.47  4521.76  4548.74
                             4562.77  4967.63  5236.06  5405.73

 Zero-point correction=                           0.156811 (Hartree/Particle)
 Thermal correction to Energy=                    0.169056
 Thermal correction to Enthalpy=                  0.170001
 Thermal correction to Gibbs Free Energy=         0.117811
 Sum of electronic and zero-point Energies=          -1177.489610
 Sum of electronic and thermal Energies=             -1177.477365
 Sum of electronic and thermal Enthalpies=           -1177.476421
 Sum of electronic and thermal Free Energies=        -1177.528610

                     E (Thermal)             CV                S
                      KCal/Mol        Cal/Mol-Kelvin    Cal/Mol-Kelvin
 Total                  106.084             43.673            109.841
 Electronic               0.000              0.000              0.000
 Translational            0.889              2.981             41.437
 Rotational               0.889              2.981             30.885
 Vibrational            104.307             37.711             37.519
 Vibration     1          0.595              1.980              5.066
 Vibration     2          0.597              1.972              4.381
 Vibration     3          0.600              1.962              3.878
 Vibration     4          0.609              1.933              3.112
 Vibration     5          0.615              1.912              2.791
 Vibration     6          0.632              1.858              2.260
 Vibration     7          0.649              1.805              1.929
 Vibration     8          0.657              1.780              1.807
 Vibration     9          0.667              1.750              1.678
 Vibration    10          0.691              1.679              1.433
 Vibration    11          0.708              1.628              1.290
 Vibration    12          0.738              1.545              1.102
 Vibration    13          0.768              1.464              0.953
 Vibration    14          0.803              1.375              0.815
 Vibration    15          0.853              1.256              0.665
 Vibration    16          0.859              1.242              0.649
 Vibration    17          0.889              1.175              0.579
 Vibration    18          0.899              1.152              0.556
 Vibration    19          0.958              1.031              0.449

 Optimization completed.
    -- Stationary point found.
 Normal termination of Gaussian 16 at Tue Dec  8 12:48:44 2020.

 ----------------------------------------------------------------------
 # B3LYP/6-311++G(d,p) empiricaldispersion=gd3bj scf=xqc pop=npa geom=c
 heck
 ----------------------------------------------------------------------

 --------------------------------------
 CID_135052411_JID_572_Energie_neutraal
 --------------------------------------
 Structure from the checkpoint file:  "JID_572.chk"
 Charge =  0 Multiplicity = 1

 SCF Done:  E(RB3LYP) =  -1177.82449179     A.U. after   15 cycles
 Normal termination of Gaussian 16 at Tue Dec  8 13:04:43 2020.

 ----------------------------------------------------------------------
 # B3LYP/6-311++G(d,p) empiricaldispersion=gd3bj scf=xqc pop=npa geom=c
 heck
 ----------------------------------------------------------------------

 ------------------------------------
 CID_135052411_JID_572_Energie_kation
 ------------------------------------
 Structure from the checkpoint file:  "JID_572.chk"
 Charge =  1 Multiplicity = 2

 SCF Done:  E(UB3LYP) =  -1177.52781739     A.U. after   27 cycles
 Normal termination of Gaussian 16 at Tue Dec  8 13:17:07 2020.
 Gaussian 16:  ES64L-G16RevA.03 25-Dec-2016

 ----------------------------------------------------------------------
 # B3LYP/6-311++G(d,p) empiricaldispersion=gd3bj scf=xqc pop=npa geom=c
 heck
 ----------------------------------------------------------------------

 -----------------------------------
 CID_135052411_JID_572_Energie_anion
 -----------------------------------
 Structure from the checkpoint file:  "JID_572.chk"
 Charge = -1 Multiplicity = 2

                         Standard orientation:
 ---------------------------------------------------------------------
 Center     Atomic      Atomic             Coordinates (Angstroms)
 Number     Number       Type             X           Y           Z
 ---------------------------------------------------------------------
      1          6           0       -0.735596    1.462324   -1.768448
      2          6           0       -0.807338    1.278068   -0.252656
      3          6           0       -1.744408    0.209992    0.252319
      4          7           0       -2.015279   -0.746947   -0.561004
      5          8           0       -2.865729   -1.700536    0.026715
      6          6           0       -2.270866    0.283317    1.656996
      7         16           0        0.881086    1.101883    0.547198
      8          6           0        1.653364   -0.371081   -0.088271
      9         16           0        3.249309   -0.596739    0.320554
     10          7           0        0.941096   -1.215507   -0.855096
     11          1           0       -0.311296    0.593677   -2.273623
     12          1           0       -0.112105    2.329324   -2.000806
     13          1           0       -1.741008    1.628181   -2.169189
     14          1           0       -1.123274    2.224274    0.202837
     15          1           0       -3.023053   -2.318563   -0.704100
     16          1           0       -1.851039    1.136889    2.192680
     17          1           0       -3.363834    0.362698    1.643706
     18          1           0       -2.026541   -0.633796    2.202083
     19          1           0       -0.073317   -1.174919   -0.938365
     20          1           0        1.413321   -2.064332   -1.139915
 ---------------------------------------------------------------------

 SCF Done:  E(UB3LYP) =  -1177.81776220     A.U. after   33 cycles
 SCF Done:  E(UB3LYP) =  -1177.81776220     a.u. after    1 cycles

 The electronic state is 2-A.
 Alpha  occ. eigenvalues --  -88.76046 -88.69076 -19.06423 -14.26547 -14.24010
 Alpha  occ. eigenvalues --  -10.17021 -10.12595 -10.12532 -10.07907 -10.06901
 Alpha  occ. eigenvalues --   -7.84615  -7.77847  -5.81026  -5.80569  -5.80029
 Alpha  occ. eigenvalues --   -5.74227  -5.73690  -5.73402  -0.98628  -0.84616
 Alpha  occ. eigenvalues --   -0.79008  -0.70734  -0.65786  -0.63723  -0.59689
 Alpha  occ. eigenvalues --   -0.54386  -0.48408  -0.46470  -0.43073  -0.40161
 Alpha  occ. eigenvalues --   -0.37986  -0.36913  -0.35189  -0.33817  -0.32024
 Alpha  occ. eigenvalues --   -0.30750  -0.29308  -0.28705  -0.28085  -0.26909
 Alpha  occ. eigenvalues --   -0.24926  -0.22862  -0.19214  -0.16641  -0.15814
 Alpha  occ. eigenvalues --   -0.12190  -0.11226   0.04204
 Alpha virt. eigenvalues --    0.05767   0.06667   0.07263   0.08118   0.08909
 Alpha virt. eigenvalues --    0.09651   0.10642   0.11394   0.11878   0.12433
 Alpha virt. eigenvalues --    0.13417   0.13698   0.14092   0.14872   0.15029

  Beta  occ. eigenvalues --  -88.76040 -88.69072 -19.06360 -14.26520 -14.23966
  Beta  occ. eigenvalues --  -10.16817 -10.12581 -10.12517 -10.07882 -10.06870
  Beta  occ. eigenvalues --   -7.84608  -7.77844  -5.81025  -5.80567  -5.80011
  Beta  occ. eigenvalues --   -5.74232  -5.73671  -5.73400  -0.98523  -0.84430
  Beta  occ. eigenvalues --   -0.78913  -0.70648  -0.65621  -0.63671  -0.59619
  Beta  occ. eigenvalues --   -0.54317  -0.48253  -0.46371  -0.43018  -0.40077
  Beta  occ. eigenvalues --   -0.37930  -0.36831  -0.35108  -0.33734  -0.31929
  Beta  occ. eigenvalues --   -0.30692  -0.29182  -0.28337  -0.27956  -0.26772
  Beta  occ. eigenvalues --   -0.24798  -0.22801  -0.19137  -0.16539  -0.15642
  Beta  occ. eigenvalues --   -0.12024  -0.11190
  Beta virt. eigenvalues --    0.06785   0.07003   0.07410   0.08096   0.08607
  Beta virt. eigenvalues --    0.09372   0.10366   0.10969   0.11730   0.12064
  Beta virt. eigenvalues --    0.12454   0.13568   0.13919   0.14245   0.15088

 Mulliken charges and spin densities:
               1          2
     1  C    0.602279  -1.429336
     2  C    0.825248  -0.329297
     3  C   -1.196250   1.148384
     4  N   -0.371390   0.045103
     5  O    0.001938  -0.017971
     6  C    0.780847  -1.453072
     7  S    0.514909  -0.571043
     8  C   -0.038867   0.212935
     9  S   -0.763443   0.111438
    10  N   -0.269484   0.004563
    11  H   -0.179082   0.340021
    12  H   -0.050168   0.202358
    13  H   -0.334225   0.503957
    14  H   -0.352082   0.645866
    15  H   -0.376771   0.668964
    16  H   -0.089434   0.216713
    17  H   -0.248990   0.440704
    18  H    0.128102   0.076169
    19  H    0.296111   0.019393
    20  H    0.120752   0.164152
 Sum of Mulliken charges =  -1.00000   1.00000

 Dipole moment (field-independent basis, Debye):
    X=              1.7860    Y=              1.0984    Z=              1.5251  Tot=              2.5927
 Quadrupole moment (field-independent basis, Debye-Ang):
   XX=           -142.2498   YY=           -110.9348   ZZ=           -103.1466
   XY=             -5.7638   XZ=             -6.5744   YZ=             -1.1292

 Summary of Natural Population Analysis:

                                       Natural Population
                Natural  -----------------------------------------------
    Atom  No    Charge         Core      Valence    Rydberg      Total
 -----------------------------------------------------------------------
      C    1   -0.29041      0.99963     2.28296    0.00782     3.29041
      C    2   -0.18177      0.99951     2.16700    0.01526     3.18177
      C    3    0.11763      0.99956     1.86435    0.01846     2.88237
      N    4   -0.10353      0.99956     2.58847    0.01550     3.60353
      O    5   -0.28219      0.99990     3.27506    0.00723     4.28219
      C    6   -0.31647      0.99961     2.30981    0.00705     3.31647
      S    7    0.14391      4.99946     2.83705    0.01958     7.85609
      C    8   -0.00826      0.99971     1.98705    0.02150     3.00826
      S    9   -0.10917      4.99950     3.09515    0.01452     8.10917
      N   10   -0.38817      0.99965     2.87628    0.01224     3.88817
      H   11    0.10769      0.00000     0.39070    0.00161     0.39231
      H   12    0.10359      0.00000     0.39536    0.00105     0.39641
      H   13    0.10781      0.00000     0.39029    0.00191     0.39219
      H   14    0.11439      0.00000     0.38399    0.00162     0.38561
      H   15    0.24224      0.00000     0.23270    0.02506     0.25776
      H   16    0.10533      0.00000     0.39363    0.00105     0.39467
      H   17    0.11703      0.00000     0.38176    0.00121     0.38297
      H   18    0.11627      0.00000     0.38269    0.00103     0.38373
      H   19    0.20794      0.00000     0.28875    0.00332     0.29206
      H   20    0.19617      0.00000     0.30123    0.00260     0.30383
 =======================================================================
   * Total *   -0.00000     17.99609    28.82428    0.17963    47.00000

 Normal termination of Gaussian 16 at Tue Dec  8 13:24:07 2020.
