 Gaussian 16, Revision A.03,

 -----------------------------------------------------------
 # opt freq B3LYP/6-31G(d) empiricaldispersion=gd3bj scf=xqc
 -----------------------------------------------------------

 -------------------------------
 CID_152907577_JID_1660_neutraal
 -------------------------------
 Symbolic Z-matrix:
 Charge =  0 Multiplicity = 1

 SCF Done:  E(RB3LYP) =  -481.965706045     A.U. after   15 cycles
 SCF Done:  E(RB3LYP) =  -481.969026265     A.U. after   13 cycles
 SCF Done:  E(RB3LYP) =  -481.969019209     A.U. after   13 cycles
 SCF Done:  E(RB3LYP) =  -481.970795100     A.U. after   13 cycles
 SCF Done:  E(RB3LYP) =  -481.972577669     A.U. after   15 cycles
 SCF Done:  E(RB3LYP) =  -481.973913216     A.U. after   12 cycles
 SCF Done:  E(RB3LYP) =  -481.974670334     A.U. after   14 cycles
 SCF Done:  E(RB3LYP) =  -481.975182080     A.U. after   12 cycles
 SCF Done:  E(RB3LYP) =  -481.975557014     A.U. after   13 cycles
 SCF Done:  E(RB3LYP) =  -481.976005532     A.U. after   13 cycles
 SCF Done:  E(RB3LYP) =  -481.978552575     A.U. after   10 cycles
 SCF Done:  E(RB3LYP) =  -481.978556379     A.U. after   10 cycles
 SCF Done:  E(RB3LYP) =  -481.978557343     A.U. after    8 cycles
 SCF Done:  E(RB3LYP) =  -481.978557530     A.U. after    7 cycles
 SCF Done:  E(RB3LYP) =  -481.978557572     A.U. after    8 cycles
 Optimization completed.
    -- Stationary point found.
 Normal termination of Gaussian 16 at Tue Dec  8 20:54:18 2020.

 --------------------------------------------------------------------
 #N Geom=AllCheck Guess=TCheck SCRF=Check GenChk RB3LYP/6-31G(d) Freq
 --------------------------------------------------------------------

 Structure from the checkpoint file:  "JID_1660.chk"
 -------------------------------
 CID_152907577_JID_1660_neutraal
 -------------------------------
 Charge =  0 Multiplicity = 1

 SCF Done:  E(RB3LYP) =  -481.978557572     A.U. after    1 cycles

  Exact polarizability: 113.354  -6.782 116.405   8.716  -0.981  89.764
 Approx polarizability: 156.006 -29.856 193.020  17.929  -5.354 135.557

                      1                      2                      3
                      A                      A                      A
 Frequencies --     43.6116                57.8362                90.3127
 Red. masses --      2.8366                 2.9110                 3.0142
 Frc consts  --      0.0032                 0.0057                 0.0145
 IR Inten    --      0.7454                 1.8167                 1.1818

                      4                      5                      6
                      A                      A                      A
 Frequencies --    110.3656               137.0811               160.4462
 Red. masses --      2.5038                 1.2317                 3.4280
 Frc consts  --      0.0180                 0.0136                 0.0520
 IR Inten    --      0.6737                 0.6730                 0.1175

                      7                      8                      9
                      A                      A                      A
 Frequencies --    172.5084               228.1396               245.1092
 Red. masses --      3.9354                 1.8282                 1.2225
 Frc consts  --      0.0690                 0.0561                 0.0433
 IR Inten    --      5.7095                 1.0058                 1.1350

                     10                     11                     12
                      A                      A                      A
 Frequencies --    259.6577               272.3250               299.0389
 Red. masses --      1.3871                 2.1062                 1.3281
 Frc consts  --      0.0551                 0.0920                 0.0700
 IR Inten    --      5.6930                53.2185               232.6536

                     13                     14                     15
                      A                      A                      A
 Frequencies --    344.8581               363.8811               434.3922
 Red. masses --      3.0455                 2.4108                 3.5556
 Frc consts  --      0.2134                 0.1881                 0.3953
 IR Inten    --      2.0697                 1.7213                 3.5649

                     16                     17                     18
                      A                      A                      A
 Frequencies --    439.7322               510.4283               544.8608
 Red. masses --      3.1122                 1.9967                 2.2345
 Frc consts  --      0.3546                 0.3065                 0.3908
 IR Inten    --      0.3887                16.6488                10.7146

                     19                     20                     21
                      A                      A                      A
 Frequencies --    559.4640               606.0062               637.9316
 Red. masses --      2.8477                 1.8222                 3.2998
 Frc consts  --      0.5252                 0.3943                 0.7912
 IR Inten    --     10.5940                 5.0739                14.9827

                     22                     23                     24
                      A                      A                      A
 Frequencies --    659.2912               694.5741               739.4096
 Red. masses --      2.9197                 3.7366                 1.0904
 Frc consts  --      0.7477                 1.0621                 0.3513
 IR Inten    --      5.0866                11.7637                 0.2469

                     25                     26                     27
                      A                      A                      A
 Frequencies --    814.7835               851.2113               932.7799
 Red. masses --      1.1942                 2.4343                 1.3672
 Frc consts  --      0.4671                 1.0392                 0.7009
 IR Inten    --      3.3826                 5.8593                37.9489

                     28                     29                     30
                      A                      A                      A
 Frequencies --    957.1164               970.9064              1026.8865
 Red. masses --      2.0812                 2.6491                 1.5775
 Frc consts  --      1.1233                 1.4713                 0.9801
 IR Inten    --     11.6292                28.0934                13.2910

                     31                     32                     33
                      A                      A                      A
 Frequencies --   1030.9364              1043.2278              1065.4495
 Red. masses --      1.6691                 1.6911                 1.5838
 Frc consts  --      1.0452                 1.0844                 1.0593
 IR Inten    --      6.8256                 2.2571                10.6416

                     34                     35                     36
                      A                      A                      A
 Frequencies --   1072.0581              1095.2500              1119.8098
 Red. masses --      1.6958                 1.8734                 1.6029
 Frc consts  --      1.1483                 1.3241                 1.1842
 IR Inten    --      3.7478                 4.2956                 5.6395

                     37                     38                     39
                      A                      A                      A
 Frequencies --   1188.7770              1278.8125              1319.2862
 Red. masses --      1.8621                 2.1364                 1.4693
 Frc consts  --      1.5505                 2.0585                 1.5067
 IR Inten    --     16.3046                15.7767                 6.7385

                     40                     41                     42
                      A                      A                      A
 Frequencies --   1328.5711              1371.5368              1390.0709
 Red. masses --      3.3717                 1.4707                 3.0674
 Frc consts  --      3.5064                 1.6300                 3.4921
 IR Inten    --     32.3253                10.9927               158.8446

                     43                     44                     45
                      A                      A                      A
 Frequencies --   1410.1512              1438.9305              1443.2940
 Red. masses --      1.4042                 1.2238                 1.3015
 Frc consts  --      1.6452                 1.4930                 1.5974
 IR Inten    --     47.8340                 2.7926                22.9017

                     46                     47                     48
                      A                      A                      A
 Frequencies --   1467.7484              1494.1133              1501.6578
 Red. masses --      1.2041                 1.0785                 1.0682
 Frc consts  --      1.5284                 1.4185                 1.4192
 IR Inten    --     12.2518                15.0793                 4.4862

                     49                     50                     51
                      A                      A                      A
 Frequencies --   1508.5724              1523.4577              1523.9186
 Red. masses --      1.0713                 1.0528                 1.0620
 Frc consts  --      1.4364                 1.4397                 1.4531
 IR Inten    --      4.1084                 9.0337                12.0049

                     52                     53                     54
                      A                      A                      A
 Frequencies --   1532.0232              1539.5166              1632.5388
 Red. masses --      1.0688                 1.0704                 2.6806
 Frc consts  --      1.4781                 1.4947                 4.2093
 IR Inten    --      5.2320                 7.8244                83.3085

                     55                     56                     57
                      A                      A                      A
 Frequencies --   1674.8709              1718.1511              1721.8969
 Red. masses --      1.6175                 5.8182                 6.8801
 Frc consts  --      2.6734                10.1195                12.0188
 IR Inten    --    364.3226                37.6233               103.7246

                     58                     59                     60
                      A                      A                      A
 Frequencies --   3008.2789              3055.2073              3058.3677
 Red. masses --      1.0660                 1.0406                 1.0428
 Frc consts  --      5.6840                 5.7230                 5.7469
 IR Inten    --     28.8453                 4.5225                36.4230

                     61                     62                     63
                      A                      A                      A
 Frequencies --   3058.7125              3065.0117              3107.2925
 Red. masses --      1.0407                 1.0947                 1.1009
 Frc consts  --      5.7368                 6.0591                 6.2629
 IR Inten    --     33.6055                27.9694                17.2407

                     64                     65                     66
                      A                      A                      A
 Frequencies --   3125.8066              3127.2606              3152.1794
 Red. masses --      1.0949                 1.0984                 1.0605
 Frc consts  --      6.3028                 6.3290                 6.2085
 IR Inten    --     18.0531                40.7869                11.4654

                     67                     68                     69
                      A                      A                      A
 Frequencies --   3154.8033              3162.3504              3195.4407
 Red. masses --      1.1018                 1.1033                 1.0944
 Frc consts  --      6.4611                 6.5006                 6.5838
 IR Inten    --     19.9952                13.1551                 6.6651

                     70                     71                     72
                      A                      A                      A
 Frequencies --   3233.4367              3576.2760              3697.0312
 Red. masses --      1.1155                 1.0462                 1.1020
 Frc consts  --      6.8715                 7.8839                 8.8743
 IR Inten    --     19.4814                33.3832                29.0606

 - Thermochemistry -
 -------------------
 Temperature   298.150 Kelvin.  Pressure   1.00000 Atm.
 Atom     1 has atomic number  6 and mass  12.00000

 Molecular mass:   153.11536 amu.
 Principal axes and moments of inertia in atomic units:
                           1         2         3
     Eigenvalues --  1487.935511821.390132532.07499
           X            0.99851   0.05439  -0.00338
           Y           -0.05435   0.99847   0.01058
           Z            0.00395  -0.01038   0.99994
 This molecule is an asymmetric top.
 Rotational symmetry number  1.
 Warning -- assumption of classical behavior for rotation
           may cause significant error
 Rotational temperatures (Kelvin)      0.05821     0.04755     0.03421
 Rotational constants (GHZ):           1.21292     0.99086     0.71275
 Zero-point vibrational energy     594406.6 (Joules/Mol)
                                  142.06659 (Kcal/Mol)
 Warning -- explicit consideration of  20 degrees of freedom as
           vibrations may cause significant error
 Vibrational temperatures:     62.75    83.21   129.94   158.79   197.23
          (Kelvin)            230.85   248.20   328.24   352.66   373.59
                              391.81   430.25   496.17   523.54   624.99
                              632.68   734.39   783.93   804.94   871.91
                              917.84   948.57   999.34  1063.85  1172.29
                             1224.70  1342.06  1377.08  1396.92  1477.46
                             1483.29  1500.97  1532.94  1542.45  1575.82
                             1611.16  1710.38  1839.93  1898.16  1911.52
                             1973.34  2000.00  2028.89  2070.30  2076.58
                             2111.76  2149.70  2160.55  2170.50  2191.92
                             2192.58  2204.24  2215.02  2348.86  2409.77
                             2472.04  2477.43  4328.24  4395.76  4400.31
                             4400.81  4409.87  4470.70  4497.34  4499.43
                             4535.28  4539.06  4549.92  4597.53  4652.19
                             5145.46  5319.20

 Zero-point correction=                           0.226398 (Hartree/Particle)
 Thermal correction to Energy=                    0.239725
 Thermal correction to Enthalpy=                  0.240670
 Thermal correction to Gibbs Free Energy=         0.187015
 Sum of electronic and zero-point Energies=           -481.752160
 Sum of electronic and thermal Energies=              -481.738832
 Sum of electronic and thermal Enthalpies=            -481.737888
 Sum of electronic and thermal Free Energies=         -481.791542

                     E (Thermal)             CV                S
                      KCal/Mol        Cal/Mol-Kelvin    Cal/Mol-Kelvin
 Total                  150.430             48.665            112.925
 Electronic               0.000              0.000              0.000
 Translational            0.889              2.981             40.988
 Rotational               0.889              2.981             30.307
 Vibrational            148.653             42.704             41.630
 Vibration     1          0.595              1.980              5.088
 Vibration     2          0.596              1.974              4.530
 Vibration     3          0.602              1.956              3.653
 Vibration     4          0.606              1.941              3.262
 Vibration     5          0.614              1.916              2.844
 Vibration     6          0.622              1.891              2.545
 Vibration     7          0.626              1.876              2.408
 Vibration     8          0.651              1.798              1.894
 Vibration     9          0.660              1.771              1.765
 Vibration    10          0.668              1.746              1.664
 Vibration    11          0.675              1.724              1.581
 Vibration    12          0.692              1.675              1.422
 Vibration    13          0.723              1.586              1.190
 Vibration    14          0.737              1.547              1.105
 Vibration    15          0.795              1.395              0.844
 Vibration    16          0.800              1.384              0.827
 Vibration    17          0.866              1.227              0.633
 Vibration    18          0.900              1.151              0.555
 Vibration    19          0.915              1.119              0.525
 Vibration    20          0.965              1.019              0.439

                           ! Non-Optimized Parameters !
 Normal termination of Gaussian 16 at Tue Dec  8 21:01:20 2020.

 ----------------------------------------------------------------------
 # B3LYP/6-311++G(d,p) empiricaldispersion=gd3bj scf=xqc pop=npa geom=c
 heck
 ----------------------------------------------------------------------

 ---------------------------------------
 CID_152907577_JID_1660_Energie_neutraal
 ---------------------------------------
 Structure from the checkpoint file:  "JID_1660.chk"
 Charge =  0 Multiplicity = 1

 SCF Done:  E(RB3LYP) =  -482.124464502     A.U. after   17 cycles
 Normal termination of Gaussian 16 at Tue Dec  8 21:07:37 2020.

 ----------------------------------------------------------------------
 # B3LYP/6-311++G(d,p) empiricaldispersion=gd3bj scf=xqc pop=npa geom=c
 heck
 ----------------------------------------------------------------------

 -------------------------------------
 CID_152907577_JID_1660_Energie_kation
 -------------------------------------
 Structure from the checkpoint file:  "JID_1660.chk"
 Charge =  1 Multiplicity = 2

 SCF Done:  E(UB3LYP) =  -481.832130505     A.U. after   28 cycles
 Normal termination of Gaussian 16 at Tue Dec  8 21:15:32 2020.
 Gaussian 16:  ES64L-G16RevA.03 25-Dec-2016

 ----------------------------------------------------------------------
 # B3LYP/6-311++G(d,p) empiricaldispersion=gd3bj scf=xqc pop=npa geom=c
 heck
 ----------------------------------------------------------------------

 ------------------------------------
 CID_152907577_JID_1660_Energie_anion
 ------------------------------------
 Structure from the checkpoint file:  "JID_1660.chk"
 Charge = -1 Multiplicity = 2

                         Standard orientation:
 ---------------------------------------------------------------------
 Center     Atomic      Atomic             Coordinates (Angstroms)
 Number     Number       Type             X           Y           Z
 ---------------------------------------------------------------------
      1          6           0        2.374623   -0.604347   -1.436892
      2          6           0        2.091247    0.666950   -0.624299
      3          6           0        1.130612    0.467017    0.531235
      4          6           0        1.488635    0.711554    1.796198
      5          6           0       -0.269433    0.037111    0.186947
      6          6           0       -1.172457    1.021126   -0.132113
      7          6           0       -2.571552    0.841107   -0.670789
      8          7           0       -0.851025    2.341449    0.065737
      9          6           0       -0.508299   -1.412365    0.242973
     10          8           0        0.435952   -2.182392    0.418483
     11          6           0       -1.906074   -2.016926    0.136119
     12          1           0        2.776790   -1.393621   -0.797605
     13          1           0        3.092900   -0.389539   -2.236654
     14          1           0        1.459580   -0.991583   -1.894097
     15          1           0        3.033487    1.076063   -0.238531
     16          1           0        1.671281    1.426495   -1.301708
     17          1           0        0.793476    0.573688    2.619947
     18          1           0        2.499228    1.022845    2.052392
     19          1           0       -3.302018    0.760222    0.142472
     20          1           0       -2.855067    1.712071   -1.272603
     21          1           0       -2.662291   -0.040487   -1.301627
     22          1           0        0.074845    2.557789    0.409717
     23          1           0       -1.317416    3.054601   -0.473902
     24          1           0       -2.662598   -1.452551    0.688189
     25          1           0       -2.228234   -2.080810   -0.910322
     26          1           0       -1.848225   -3.033542    0.530039
 ---------------------------------------------------------------------

 SCF Done:  E(UB3LYP) =  -482.116692655     A.U. after   33 cycles
 SCF Done:  E(UB3LYP) =  -482.116692655     a.u. after    1 cycles

 The electronic state is 2-A.
 Alpha  occ. eigenvalues --  -18.96960 -14.21352 -10.13076 -10.11906 -10.07262
 Alpha  occ. eigenvalues --  -10.06334 -10.06099 -10.05979 -10.05060 -10.04903
 Alpha  occ. eigenvalues --  -10.04782  -0.90517  -0.81941  -0.70611  -0.66159
 Alpha  occ. eigenvalues --   -0.62582  -0.61839  -0.58886  -0.51648  -0.49206
 Alpha  occ. eigenvalues --   -0.44761  -0.42738  -0.38535  -0.36796  -0.35234
 Alpha  occ. eigenvalues --   -0.34693  -0.32842  -0.32181  -0.31107  -0.30566
 Alpha  occ. eigenvalues --   -0.30321  -0.29316  -0.26951  -0.26505  -0.26025
 Alpha  occ. eigenvalues --   -0.24051  -0.23057  -0.21977  -0.21590  -0.14807
 Alpha  occ. eigenvalues --   -0.12737  -0.10351   0.04573
 Alpha virt. eigenvalues --    0.07173   0.07760   0.08266   0.08882   0.09865
 Alpha virt. eigenvalues --    0.10187   0.10313   0.10816   0.11553   0.12117
 Alpha virt. eigenvalues --    0.12873   0.13328   0.13699   0.13812   0.14603

  Beta  occ. eigenvalues --  -18.96909 -14.21259 -10.13035 -10.11820 -10.07242
  Beta  occ. eigenvalues --  -10.06279 -10.06081 -10.05968 -10.05058 -10.04916
  Beta  occ. eigenvalues --  -10.04775  -0.90422  -0.81799  -0.70563  -0.66058
  Beta  occ. eigenvalues --   -0.62549  -0.61758  -0.58835  -0.51612  -0.49012
  Beta  occ. eigenvalues --   -0.44685  -0.42663  -0.38400  -0.36757  -0.35161
  Beta  occ. eigenvalues --   -0.34633  -0.32777  -0.32127  -0.31008  -0.30521
  Beta  occ. eigenvalues --   -0.30255  -0.29247  -0.26899  -0.26464  -0.25987
  Beta  occ. eigenvalues --   -0.23862  -0.23021  -0.21890  -0.21421  -0.14747
  Beta  occ. eigenvalues --   -0.12693  -0.10172
  Beta virt. eigenvalues --    0.07264   0.07770   0.08174   0.08971   0.09154
  Beta virt. eigenvalues --    0.10255   0.10486   0.10758   0.11109   0.11873
  Beta virt. eigenvalues --    0.12797   0.13049   0.13272   0.13848   0.14455

 Mulliken charges and spin densities:
               1          2
     1  C   -0.396100  -0.154403
     2  C    0.179747  -0.606961
     3  C    0.750986  -0.060533
     4  C   -0.280507  -0.219670
     5  C    2.434342  -1.210629
     6  C   -2.815440   1.959300
     7  C    2.338969  -3.049955
     8  N   -0.367770   0.146247
     9  C   -1.323542   0.941937
    10  O   -0.273957   0.008931
    11  C    0.141343  -0.646591
    12  H    0.136883   0.020389
    13  H    0.025758   0.092385
    14  H    0.142957   0.019238
    15  H    0.023393   0.094489
    16  H   -0.263864   0.428903
    17  H    0.124746   0.025791
    18  H    0.007777   0.088929
    19  H   -0.169859   0.350181
    20  H   -0.860541   1.023984
    21  H   -0.191444   0.336077
    22  H   -0.173396   0.463998
    23  H   -0.475500   0.764847
    24  H    0.084153   0.058096
    25  H    0.074937   0.084384
    26  H    0.125929   0.040632
 Sum of Mulliken charges =  -1.00000   1.00000

 Dipole moment (field-independent basis, Debye):
    X=              2.9955    Y=             -5.5334    Z=              3.0015  Tot=              6.9714
 Quadrupole moment (field-independent basis, Debye-Ang):
   XX=           -109.3881   YY=           -126.0371   ZZ=            -96.1427
   XY=             15.2941   XZ=             -7.2848   YZ=             12.0132

 Summary of Natural Population Analysis:

                                       Natural Population
                Natural  -----------------------------------------------
    Atom  No    Charge         Core      Valence    Rydberg      Total
 -----------------------------------------------------------------------
      C    1   -0.28208      0.99966     2.27648    0.00595     3.28208
      C    2   -0.20329      0.99957     2.19392    0.00980     3.20329
      C    3    0.01171      0.99951     1.97426    0.01452     2.98829
      C    4   -0.19749      0.99947     2.19020    0.00783     3.19749
      C    5   -0.14682      0.99935     2.13320    0.01427     3.14682
      C    6    0.15376      0.99949     1.83408    0.01266     2.84624
      C    7   -0.30427      0.99962     2.29773    0.00691     3.30427
      N    8   -0.37965      0.99970     2.86968    0.01027     3.87965
      C    9    0.26618      0.99962     1.71278    0.02142     2.73382
      O   10   -0.31029      0.99988     3.30423    0.00617     4.31029
      C   11   -0.32568      0.99963     2.32131    0.00474     3.32568
      H   12    0.10262      0.00000     0.39657    0.00082     0.39738
      H   13    0.09139      0.00000     0.40789    0.00072     0.40861
      H   14    0.10133      0.00000     0.39781    0.00086     0.39867
      H   15    0.09261      0.00000     0.40631    0.00108     0.40739
      H   16    0.10295      0.00000     0.39513    0.00192     0.39705
      H   17    0.09422      0.00000     0.40493    0.00085     0.40578
      H   18    0.08900      0.00000     0.41009    0.00091     0.41100
      H   19    0.10761      0.00000     0.39139    0.00100     0.39239
      H   20    0.11383      0.00000     0.38037    0.00579     0.38617
      H   21    0.10747      0.00000     0.39106    0.00147     0.39253
      H   22    0.19858      0.00000     0.29846    0.00295     0.30142
      H   23    0.20181      0.00000     0.27810    0.02009     0.29819
      H   24    0.10297      0.00000     0.39580    0.00124     0.39703
      H   25    0.10490      0.00000     0.39382    0.00128     0.39510
      H   26    0.10663      0.00000     0.39220    0.00117     0.39337
 =======================================================================
   * Total *   -0.00000     10.99550    30.84780    0.15670    42.00000

 Normal termination of Gaussian 16 at Tue Dec  8 21:24:42 2020.
