 Gaussian 16, Revision A.03,

 -----------------------------------------------------------
 # opt freq B3LYP/6-31G(d) empiricaldispersion=gd3bj scf=xqc
 -----------------------------------------------------------

 ------------------------------
 CID_79098860_JID_3228_neutraal
 ------------------------------
 Symbolic Z-matrix:
 Charge =  0 Multiplicity = 1

 SCF Done:  E(RB3LYP) =  -595.315391605     A.U. after   15 cycles
 SCF Done:  E(RB3LYP) =  -595.318179405     A.U. after   12 cycles
 SCF Done:  E(RB3LYP) =  -595.318270940     A.U. after   12 cycles
 SCF Done:  E(RB3LYP) =  -595.318732893     A.U. after   12 cycles
 SCF Done:  E(RB3LYP) =  -595.318853200     A.U. after   11 cycles
 SCF Done:  E(RB3LYP) =  -595.318865699     A.U. after   10 cycles
 SCF Done:  E(RB3LYP) =  -595.318869976     A.U. after    9 cycles
 SCF Done:  E(RB3LYP) =  -595.318872070     A.U. after    9 cycles
 SCF Done:  E(RB3LYP) =  -595.318873173     A.U. after    9 cycles
 SCF Done:  E(RB3LYP) =  -595.318874009     A.U. after    9 cycles
 SCF Done:  E(RB3LYP) =  -595.318874904     A.U. after    9 cycles
 SCF Done:  E(RB3LYP) =  -595.318875025     A.U. after    7 cycles
 SCF Done:  E(RB3LYP) =  -595.318875070     A.U. after    7 cycles
 Optimization completed.
    -- Stationary point found.
 Normal termination of Gaussian 16 at Wed Dec  9 22:29:29 2020.

 --------------------------------------------------------------------
 #N Geom=AllCheck Guess=TCheck SCRF=Check GenChk RB3LYP/6-31G(d) Freq
 --------------------------------------------------------------------

 Structure from the checkpoint file:  "JID_3228.chk"
 ------------------------------
 CID_79098860_JID_3228_neutraal
 ------------------------------
 Charge =  0 Multiplicity = 1

 SCF Done:  E(RB3LYP) =  -595.318875070     A.U. after    1 cycles

  Exact polarizability: 155.930   1.092 111.348  -8.895 -10.848  83.066
 Approx polarizability: 207.828  12.489 177.336 -22.465 -25.533 122.135

                      1                      2                      3
                      A                      A                      A
 Frequencies --     17.9641                48.7780                52.0160
 Red. masses --      3.8831                 2.8109                 3.4579
 Frc consts  --      0.0007                 0.0039                 0.0055
 IR Inten    --      0.1276                 0.6594                 1.1116

                      4                      5                      6
                      A                      A                      A
 Frequencies --     75.8320               105.2685               118.9446
 Red. masses --      3.6790                 2.2341                 3.7632
 Frc consts  --      0.0125                 0.0146                 0.0314
 IR Inten    --      1.8658                 2.1844                 1.2485

                      7                      8                      9
                      A                      A                      A
 Frequencies --    151.4657               173.7954               223.7370
 Red. masses --      2.7243                 4.4869                 1.2086
 Frc consts  --      0.0368                 0.0798                 0.0356
 IR Inten    --      4.5373                 0.6940                 0.5975

                     10                     11                     12
                      A                      A                      A
 Frequencies --    234.5496               259.0192               271.9091
 Red. masses --      1.3891                 3.0902                 3.0626
 Frc consts  --      0.0450                 0.1222                 0.1334
 IR Inten    --      5.6148                 1.9739                 1.5646

                     13                     14                     15
                      A                      A                      A
 Frequencies --    328.5196               362.1558               394.4371
 Red. masses --      3.4282                 2.2815                 3.1773
 Frc consts  --      0.2180                 0.1763                 0.2912
 IR Inten    --      5.3674                 1.1646                 1.9108

                     16                     17                     18
                      A                      A                      A
 Frequencies --    492.6490               541.7410               597.9330
 Red. masses --      3.7714                 2.5941                 3.7347
 Frc consts  --      0.5393                 0.4486                 0.7867
 IR Inten    --      3.7955                 0.2620                10.8259

                     19                     20                     21
                      A                      A                      A
 Frequencies --    629.6730               638.2612               689.0715
 Red. masses --      3.4074                 3.7037                 3.2381
 Frc consts  --      0.7960                 0.8890                 0.9059
 IR Inten    --      3.0008                11.0163                 5.3846

                     22                     23                     24
                      A                      A                      A
 Frequencies --    701.0509               749.8696               796.3922
 Red. masses --      1.3106                 2.1889                 1.6478
 Frc consts  --      0.3795                 0.7252                 0.6157
 IR Inten    --      1.8586                33.4686                21.8324

                     25                     26                     27
                      A                      A                      A
 Frequencies --    818.6613               862.3150               874.4512
 Red. masses --      1.2764                 2.3467                 1.3497
 Frc consts  --      0.5040                 1.0281                 0.6081
 IR Inten    --      1.4855                 7.8850                 3.2107

                     28                     29                     30
                      A                      A                      A
 Frequencies --    922.5146               971.8549               995.8631
 Red. masses --      2.8243                 2.3612                 2.9866
 Frc consts  --      1.4162                 1.3140                 1.7451
 IR Inten    --     57.9859                 2.1583                 1.5937

                     31                     32                     33
                      A                      A                      A
 Frequencies --   1022.5089              1044.5312              1049.3893
 Red. masses --      2.0974                 2.5337                 2.9852
 Frc consts  --      1.2920                 1.6287                 1.9368
 IR Inten    --      5.2136                20.7271                28.5519

                     34                     35                     36
                      A                      A                      A
 Frequencies --   1088.0799              1102.6208              1112.3337
 Red. masses --      1.7870                 1.3906                 1.9379
 Frc consts  --      1.2465                 0.9961                 1.4127
 IR Inten    --      7.7750                11.3522                27.0846

                     37                     38                     39
                      A                      A                      A
 Frequencies --   1145.0098              1174.6527              1193.8859
 Red. masses --      1.5852                 3.8897                 1.3059
 Frc consts  --      1.2245                 3.1622                 1.0967
 IR Inten    --     32.0553               137.1813                 5.6634

                     40                     41                     42
                      A                      A                      A
 Frequencies --   1213.7190              1231.3330              1262.8599
 Red. masses --      1.4096                 2.0533                 1.5407
 Frc consts  --      1.2234                 1.8343                 1.4477
 IR Inten    --     51.7582                74.4509                35.2341

                     43                     44                     45
                      A                      A                      A
 Frequencies --   1274.1822              1289.7631              1304.0508
 Red. masses --      1.3033                 1.3581                 1.3724
 Frc consts  --      1.2467                 1.3311                 1.3750
 IR Inten    --      6.2075                 7.8499                45.7224

                     46                     47                     48
                      A                      A                      A
 Frequencies --   1348.9050              1400.9817              1412.6352
 Red. masses --      1.5337                 1.4173                 2.6027
 Frc consts  --      1.6442                 1.6389                 3.0601
 IR Inten    --      2.8295                28.6452                62.8480

                     49                     50                     51
                      A                      A                      A
 Frequencies --   1426.5050              1432.8788              1441.0559
 Red. masses --      5.1246                 1.3228                 1.4396
 Frc consts  --      6.1440                 1.6002                 1.7613
 IR Inten    --     14.3639                17.9721                13.9217

                     52                     53                     54
                      A                      A                      A
 Frequencies --   1451.6481              1502.5036              1503.0859
 Red. masses --      3.6261                 1.1497                 1.1592
 Frc consts  --      4.5020                 1.5292                 1.5431
 IR Inten    --     10.0764                30.2387                 2.7206

                     55                     56                     57
                      A                      A                      A
 Frequencies --   1513.8819              1516.0633              1527.6833
 Red. masses --      1.0830                 1.0482                 1.0427
 Frc consts  --      1.4623                 1.4195                 1.4338
 IR Inten    --      4.5009                 6.8517                 6.0233

                     58                     59                     60
                      A                      A                      A
 Frequencies --   1529.3292              1540.0178              1550.3592
 Red. masses --      1.0647                 1.0721                 1.1318
 Frc consts  --      1.4671                 1.4981                 1.6029
 IR Inten    --     13.2006                 5.9355                 4.4773

                     61                     62                     63
                      A                      A                      A
 Frequencies --   1560.4154              1588.2759              1760.5889
 Red. masses --      3.0043                 4.4620                11.2148
 Frc consts  --      4.3100                 6.6317                20.4813
 IR Inten    --     61.0310                89.1851               248.5273

                     64                     65                     66
                      A                      A                      A
 Frequencies --   2979.4136              3000.2059              3020.0084
 Red. masses --      1.0562                 1.0399                 1.1020
 Frc consts  --      5.5242                 5.5150                 5.9216
 IR Inten    --     42.4745                83.9516                49.7778

                     67                     68                     69
                      A                      A                      A
 Frequencies --   3047.2856              3053.8928              3057.7735
 Red. masses --      1.1051                 1.0343                 1.0636
 Frc consts  --      6.0460                 5.6835                 5.8593
 IR Inten    --     55.0487                28.6556                19.3904

                     70                     71                     72
                      A                      A                      A
 Frequencies --   3077.5920              3110.4592              3124.4295
 Red. masses --      1.0622                 1.1005                 1.1020
 Frc consts  --      5.9277                 6.2735                 6.3384
 IR Inten    --     42.1149                 1.5654                38.1174

                     73                     74                     75
                      A                      A                      A
 Frequencies --   3130.1039              3133.5424              3147.3125
 Red. masses --      1.1046                 1.1036                 1.0974
 Frc consts  --      6.3761                 6.3846                 6.4046
 IR Inten    --     12.3211                42.6903                25.1009

                     76                     77                     78
                      A                      A                      A
 Frequencies --   3270.7401              3281.3763              3306.7033
 Red. masses --      1.0957                 1.0918                 1.1022
 Frc consts  --      6.9060                 6.9260                 7.1009
 IR Inten    --      0.5525                 1.4204                 0.2145

 - Thermochemistry -
 -------------------
 Temperature   298.150 Kelvin.  Pressure   1.00000 Atm.
 Atom     1 has atomic number  6 and mass  12.00000

 Molecular mass:   181.11028 amu.
 Principal axes and moments of inertia in atomic units:
                           1         2         3
     Eigenvalues --  1095.624335118.722685461.55829
           X            0.99989  -0.01397   0.00504
           Y            0.01394   0.99988   0.00702
           Z           -0.00514  -0.00695   0.99996
 This molecule is an asymmetric top.
 Rotational symmetry number  1.
 Warning -- assumption of classical behavior for rotation
           may cause significant error
 Rotational temperatures (Kelvin)      0.07905     0.01692     0.01586
 Rotational constants (GHZ):           1.64723     0.35258     0.33044
 Zero-point vibrational energy     630176.4 (Joules/Mol)
                                  150.61577 (Kcal/Mol)
 Warning -- explicit consideration of  18 degrees of freedom as
           vibrations may cause significant error
 Vibrational temperatures:     25.85    70.18    74.84   109.11   151.46
          (Kelvin)            171.13   217.93   250.05   321.91   337.46
                              372.67   391.22   472.67   521.06   567.51
                              708.81   779.44   860.29   905.96   918.32
                              991.42  1008.66  1078.90  1145.83  1177.87
                             1240.68  1258.14  1327.29  1398.28  1432.82
                             1471.16  1502.85  1509.84  1565.50  1586.43
                             1600.40  1647.41  1690.06  1717.74  1746.27
                             1771.61  1816.97  1833.26  1855.68  1876.24
                             1940.77  2015.70  2032.47  2052.42  2061.59
                             2073.36  2088.60  2161.77  2162.61  2178.14
                             2181.28  2198.00  2200.36  2215.74  2230.62
                             2245.09  2285.17  2533.09  4286.71  4316.63
                             4345.12  4384.36  4393.87  4399.45  4427.97
                             4475.26  4495.36  4503.52  4508.47  4528.28
                             4705.87  4721.17  4757.61

 Zero-point correction=                           0.240022 (Hartree/Particle)
 Thermal correction to Energy=                    0.253882
 Thermal correction to Enthalpy=                  0.254826
 Thermal correction to Gibbs Free Energy=         0.197322
 Sum of electronic and zero-point Energies=           -595.078854
 Sum of electronic and thermal Energies=              -595.064993
 Sum of electronic and thermal Enthalpies=            -595.064049
 Sum of electronic and thermal Free Energies=         -595.121553

                     E (Thermal)             CV                S
                      KCal/Mol        Cal/Mol-Kelvin    Cal/Mol-Kelvin
 Total                  159.313             49.598            121.029
 Electronic               0.000              0.000              0.000
 Translational            0.889              2.981             41.488
 Rotational               0.889              2.981             31.794
 Vibrational            157.536             43.637             47.747
 Vibration     1          0.593              1.986              6.847
 Vibration     2          0.595              1.978              4.866
 Vibration     3          0.596              1.977              4.739
 Vibration     4          0.599              1.965              3.996
 Vibration     5          0.605              1.945              3.354
 Vibration     6          0.609              1.934              3.117
 Vibration     7          0.619              1.901              2.654
 Vibration     8          0.627              1.875              2.394
 Vibration     9          0.649              1.805              1.929
 Vibration    10          0.654              1.788              1.844
 Vibration    11          0.668              1.748              1.668
 Vibration    12          0.675              1.725              1.584
 Vibration    13          0.712              1.619              1.267
 Vibration    14          0.736              1.550              1.113
 Vibration    15          0.761              1.482              0.983
 Vibration    16          0.848              1.266              0.677
 Vibration    17          0.897              1.158              0.562
 Vibration    18          0.956              1.036              0.453

                           ! Non-Optimized Parameters !
 Normal termination of Gaussian 16 at Wed Dec  9 22:36:14 2020.

 ----------------------------------------------------------------------
 # B3LYP/6-311++G(d,p) empiricaldispersion=gd3bj scf=xqc pop=npa geom=c
 heck
 ----------------------------------------------------------------------

 --------------------------------------
 CID_79098860_JID_3228_Energie_neutraal
 --------------------------------------
 Structure from the checkpoint file:  "JID_3228.chk"
 Charge =  0 Multiplicity = 1

 SCF Done:  E(RB3LYP) =  -595.489302008     A.U. after   16 cycles
 Normal termination of Gaussian 16 at Wed Dec  9 22:39:44 2020.

 ----------------------------------------------------------------------
 # B3LYP/6-311++G(d,p) empiricaldispersion=gd3bj scf=xqc pop=npa geom=c
 heck
 ----------------------------------------------------------------------

 ------------------------------------
 CID_79098860_JID_3228_Energie_kation
 ------------------------------------
 Structure from the checkpoint file:  "JID_3228.chk"
 Charge =  1 Multiplicity = 2

 SCF Done:  E(UB3LYP) =  -595.189026175     A.U. after   33 cycles
 SCF Done:  E(UB3LYP) =  -595.189026175     a.u. after    1 cycles
 Normal termination of Gaussian 16 at Wed Dec  9 22:50:19 2020.
 Gaussian 16:  ES64L-G16RevA.03 25-Dec-2016

 ----------------------------------------------------------------------
 # B3LYP/6-311++G(d,p) empiricaldispersion=gd3bj scf=xqc pop=npa geom=c
 heck
 ----------------------------------------------------------------------

 -----------------------------------
 CID_79098860_JID_3228_Energie_anion
 -----------------------------------
 Structure from the checkpoint file:  "JID_3228.chk"
 Charge = -1 Multiplicity = 2

                         Standard orientation:
 ---------------------------------------------------------------------
 Center     Atomic      Atomic             Coordinates (Angstroms)
 Number     Number       Type             X           Y           Z
 ---------------------------------------------------------------------
      1          6           0       -3.321815    1.779917    1.010671
      2          6           0       -3.494694    0.843120   -0.197228
      3          6           0       -2.785149   -0.486870    0.039593
      4          8           0       -3.400996   -1.448265    0.486052
      5          6           0       -1.343910   -0.559178   -0.225798
      6          6           0       -0.517997    0.428861   -0.749690
      7          7           0        0.753116   -0.067908   -0.828207
      8          6           0        0.762700   -1.372630   -0.354775
      9          6           0       -0.513993   -1.699860    0.021401
     10          6           0        1.917245    0.672917   -1.285503
     11          6           0        2.887441    1.011221   -0.160718
     12          8           0        3.527789   -0.179245    0.244473
     13          6           0        4.329414   -0.007318    1.395551
     14          1           0       -3.714659    1.307558    1.916977
     15          1           0       -3.859136    2.721584    0.855091
     16          1           0       -2.265396    2.012110    1.183268
     17          1           0       -4.554863    0.620861   -0.349362
     18          1           0       -3.115108    1.327252   -1.105279
     19          1           0       -0.736309    1.434775   -1.078149
     20          1           0        1.689728   -1.922369   -0.317065
     21          1           0       -0.856739   -2.639805    0.428118
     22          1           0        2.444545    0.088440   -2.047116
     23          1           0        1.562916    1.595644   -1.753299
     24          1           0        3.626828    1.746394   -0.522481
     25          1           0        2.337770    1.468114    0.678009
     26          1           0        5.131488    0.727698    1.223821
     27          1           0        3.730058    0.323547    2.257491
     28          1           0        4.777280   -0.977447    1.622206
 ---------------------------------------------------------------------

 SCF Done:  E(UB3LYP) =  -595.483218137     A.U. after   30 cycles

 The electronic state is 2-A.
 Alpha  occ. eigenvalues --  -19.03774 -18.97375 -14.26167 -10.12578 -10.12531
 Alpha  occ. eigenvalues --  -10.12222 -10.11708 -10.08975 -10.08680 -10.06527
 Alpha  occ. eigenvalues --  -10.06458 -10.05321 -10.05276  -0.95265  -0.90838
 Alpha  occ. eigenvalues --   -0.88572  -0.71793  -0.67428  -0.64711  -0.62576
 Alpha  occ. eigenvalues --   -0.58846  -0.54952  -0.52902  -0.49240  -0.45595
 Alpha  occ. eigenvalues --   -0.44153  -0.40955  -0.39952  -0.38399  -0.37337
 Alpha  occ. eigenvalues --   -0.35261  -0.34413  -0.33927  -0.32178  -0.31812
 Alpha  occ. eigenvalues --   -0.30301  -0.29878  -0.29322  -0.28885  -0.27728
 Alpha  occ. eigenvalues --   -0.26918  -0.25590  -0.24396  -0.23925  -0.23445
 Alpha  occ. eigenvalues --   -0.17583  -0.13835  -0.12831  -0.12018   0.04056
 Alpha virt. eigenvalues --    0.06031   0.07100   0.07468   0.08499   0.09107
 Alpha virt. eigenvalues --    0.09362   0.10091   0.10480   0.10927   0.11374
 Alpha virt. eigenvalues --    0.11996   0.12520   0.13084   0.13386   0.14454

  Beta  occ. eigenvalues --  -19.03765 -18.97207 -14.26151 -10.12542 -10.12408
  Beta  occ. eigenvalues --  -10.12188 -10.11681 -10.08852 -10.08692 -10.06503
  Beta  occ. eigenvalues --  -10.06461 -10.05329 -10.05271  -0.95252  -0.90531
  Beta  occ. eigenvalues --   -0.88506  -0.71732  -0.67334  -0.64668  -0.62472
  Beta  occ. eigenvalues --   -0.58761  -0.54798  -0.52825  -0.49138  -0.45511
  Beta  occ. eigenvalues --   -0.44077  -0.40850  -0.39871  -0.38294  -0.37280
  Beta  occ. eigenvalues --   -0.35190  -0.34352  -0.33876  -0.32042  -0.31657
  Beta  occ. eigenvalues --   -0.30198  -0.29725  -0.29273  -0.28810  -0.27631
  Beta  occ. eigenvalues --   -0.26831  -0.25510  -0.24325  -0.23764  -0.23000
  Beta  occ. eigenvalues --   -0.17554  -0.13648  -0.12685  -0.11672
  Beta virt. eigenvalues --    0.06558   0.07058   0.07984   0.08282   0.08859
  Beta virt. eigenvalues --    0.09591   0.09712   0.10257   0.10794   0.11333
  Beta virt. eigenvalues --    0.11557   0.12240   0.12670   0.13334   0.13464

 Mulliken charges and spin densities:
               1          2
     1  C   -0.018217  -0.517346
     2  C   -0.169014   0.114366
     3  C   -0.486120  -0.075204
     4  O   -0.344910   0.059143
     5  C    0.615007  -0.423912
     6  C   -0.559797   0.029686
     7  N    0.193632   0.107761
     8  C   -0.292351  -0.196024
     9  C    0.354459   0.247719
    10  C    0.486045  -0.776583
    11  C    0.344300  -0.607158
    12  O   -0.225773   0.073997
    13  C    0.422597  -0.685182
    14  H    0.122825   0.022750
    15  H   -0.126692   0.255088
    16  H    0.050279   0.077789
    17  H    0.098574   0.078871
    18  H   -0.079276   0.199793
    19  H   -0.129039   0.330570
    20  H    0.187372  -0.007922
    21  H    0.141144   0.037102
    22  H    0.015687   0.188560
    23  H   -0.703294   0.863177
    24  H   -0.513527   0.670179
    25  H    0.119966   0.034722
    26  H   -0.340174   0.475477
    27  H   -0.041552   0.171711
    28  H   -0.122151   0.250870
 Sum of Mulliken charges =  -1.00000   1.00000

 Dipole moment (field-independent basis, Debye):
    X=             -1.0536    Y=             -2.5360    Z=              1.4173  Tot=              3.0903
 Quadrupole moment (field-independent basis, Debye-Ang):
   XX=           -162.4682   YY=           -118.1210   ZZ=           -105.7628
   XY=            -16.9299   XZ=              4.4079   YZ=              7.4200

 Summary of Natural Population Analysis:

                                       Natural Population
                Natural  -----------------------------------------------
    Atom  No    Charge         Core      Valence    Rydberg      Total
 -----------------------------------------------------------------------
      C    1   -0.28252      0.99966     2.27755    0.00531     3.28252
      C    2   -0.23053      0.99961     2.22198    0.00894     3.23053
      C    3    0.28863      0.99959     1.69117    0.02061     2.71137
      O    4   -0.28972      0.99988     3.28386    0.00598     4.28972
      C    5   -0.11765      0.99949     2.10658    0.01158     3.11765
      C    6    0.02916      0.99952     1.95996    0.01135     2.97084
      N    7   -0.19885      0.99965     2.68848    0.01072     3.69885
      C    8   -0.02191      0.99956     2.01147    0.01088     3.02191
      C    9   -0.12276      0.99954     2.11408    0.00915     3.12276
      C   10   -0.08899      0.99960     2.07605    0.01334     3.08899
      C   11   -0.01109      0.99958     1.99941    0.01210     3.01109
      O   12   -0.30092      0.99988     3.29083    0.01020     4.30092
      C   13   -0.09615      0.99962     2.08744    0.00909     3.09615
      H   14    0.09781      0.00000     0.40131    0.00089     0.40219
      H   15    0.09650      0.00000     0.40250    0.00100     0.40350
      H   16    0.09936      0.00000     0.39965    0.00100     0.40064
      H   17    0.10260      0.00000     0.39620    0.00120     0.39740
      H   18    0.09991      0.00000     0.39854    0.00155     0.40009
      H   19    0.10232      0.00000     0.39629    0.00139     0.39768
      H   20    0.10643      0.00000     0.39246    0.00111     0.39357
      H   21    0.10972      0.00000     0.38939    0.00089     0.39028
      H   22    0.10144      0.00000     0.39694    0.00161     0.39856
      H   23    0.10862      0.00000     0.38860    0.00278     0.39138
      H   24    0.08766      0.00000     0.40806    0.00427     0.41234
      H   25    0.08156      0.00000     0.41678    0.00166     0.41844
      H   26    0.08157      0.00000     0.41657    0.00185     0.41843
      H   27    0.07894      0.00000     0.41991    0.00114     0.42106
      H   28    0.08885      0.00000     0.41017    0.00097     0.41115
 =======================================================================
   * Total *   -0.00000     12.99519    35.84224    0.16257    49.00000

 Normal termination of Gaussian 16 at Wed Dec  9 23:00:22 2020.
