 Gaussian 16, Revision A.03,

 -----------------------------------------------------------
 # opt freq B3LYP/6-31G(d) empiricaldispersion=gd3bj scf=xqc
 -----------------------------------------------------------

 -------------------------------
 CID_123419047_JID_1007_neutraal
 -------------------------------
 Symbolic Z-matrix:
 Charge =  0 Multiplicity = 1

 SCF Done:  E(RB3LYP) =  -432.455753049     A.U. after   12 cycles
 SCF Done:  E(RB3LYP) =  -432.459603435     A.U. after   10 cycles
 SCF Done:  E(RB3LYP) =  -432.460032164     A.U. after    9 cycles
 SCF Done:  E(RB3LYP) =  -432.460187031     A.U. after    9 cycles
 SCF Done:  E(RB3LYP) =  -432.460255183     A.U. after    9 cycles
 SCF Done:  E(RB3LYP) =  -432.460319544     A.U. after    9 cycles
 SCF Done:  E(RB3LYP) =  -432.460365575     A.U. after    9 cycles
 SCF Done:  E(RB3LYP) =  -432.460506332     A.U. after   10 cycles
 SCF Done:  E(RB3LYP) =  -432.452399961     A.U. after   11 cycles
 SCF Done:  E(RB3LYP) =  -432.460820772     A.U. after   11 cycles
 SCF Done:  E(RB3LYP) =  -432.462436022     A.U. after    8 cycles
 SCF Done:  E(RB3LYP) =  -432.462440822     A.U. after    8 cycles
 SCF Done:  E(RB3LYP) =  -432.462442612     A.U. after    8 cycles
 SCF Done:  E(RB3LYP) =  -432.462443262     A.U. after    7 cycles
 SCF Done:  E(RB3LYP) =  -432.462443369     A.U. after    7 cycles
 SCF Done:  E(RB3LYP) =  -432.462443391     A.U. after    6 cycles
 Optimization completed.
    -- Stationary point found.
 Normal termination of Gaussian 16 at Tue Dec  8 19:19:34 2020.

 --------------------------------------------------------------------
 #N Geom=AllCheck Guess=TCheck SCRF=Check GenChk RB3LYP/6-31G(d) Freq
 --------------------------------------------------------------------

 Structure from the checkpoint file:  "JID_1007.chk"
 -------------------------------
 CID_123419047_JID_1007_neutraal
 -------------------------------
 Charge =  0 Multiplicity = 1

 SCF Done:  E(RB3LYP) =  -432.462443391     A.U. after    1 cycles

  Exact polarizability: 132.068  -1.789 112.685  -0.667   1.600 100.363
 Approx polarizability: 158.878  -1.592 152.790   1.152   2.954 154.218

                      1                      2                      3
                      A                      A                      A
 Frequencies --     27.8620                62.4255                82.7851
 Red. masses --      2.9587                 2.0313                 2.9736
 Frc consts  --      0.0014                 0.0047                 0.0120
 IR Inten    --      0.0127                 0.0077                 0.0210

                      4                      5                      6
                      A                      A                      A
 Frequencies --    105.6950               170.1171               175.6833
 Red. masses --      2.2571                 1.2563                 1.7400
 Frc consts  --      0.0149                 0.0214                 0.0316
 IR Inten    --      0.0256                 0.1000                 0.0417

                      7                      8                      9
                      A                      A                      A
 Frequencies --    184.4898               214.7964               216.3984
 Red. masses --      1.1788                 1.8198                 1.1646
 Frc consts  --      0.0236                 0.0495                 0.0321
 IR Inten    --      0.1000                 0.3114                 0.0782

                     10                     11                     12
                      A                      A                      A
 Frequencies --    225.7698               241.4690               273.7562
 Red. masses --      1.5333                 1.4239                 1.4868
 Frc consts  --      0.0460                 0.0489                 0.0656
 IR Inten    --      0.0478                 0.0027                 0.2296

                     13                     14                     15
                      A                      A                      A
 Frequencies --    291.3780               300.7001               323.2633
 Red. masses --      2.0852                 2.1522                 2.0601
 Frc consts  --      0.1043                 0.1147                 0.1268
 IR Inten    --      0.0331                 0.1640                 0.0554

                     16                     17                     18
                      A                      A                      A
 Frequencies --    377.0026               411.4305               423.2562
 Red. masses --      2.2554                 2.0938                 2.3701
 Frc consts  --      0.1889                 0.2088                 0.2502
 IR Inten    --      0.0886                 0.0515                 0.0590

                     19                     20                     21
                      A                      A                      A
 Frequencies --    472.3976               527.1623               543.3260
 Red. masses --      2.8141                 2.4370                 2.7065
 Frc consts  --      0.3700                 0.3990                 0.4707
 IR Inten    --      0.7218                 0.4661                 0.1773

                     22                     23                     24
                      A                      A                      A
 Frequencies --    696.6029               777.2378               801.2146
 Red. masses --      3.3635                 1.7837                 1.4930
 Frc consts  --      0.9616                 0.6349                 0.5647
 IR Inten    --      0.7851                 2.4395                 1.0334

                     25                     26                     27
                      A                      A                      A
 Frequencies --    812.0884               837.8895               919.8953
 Red. masses --      2.5559                 2.0616                 1.5094
 Frc consts  --      0.9931                 0.8528                 0.7526
 IR Inten    --      3.1831                 2.4960                 1.1995

                     28                     29                     30
                      A                      A                      A
 Frequencies --    945.2745               976.5295               980.6461
 Red. masses --      1.6129                 1.4698                 1.2163
 Frc consts  --      0.8491                 0.8258                 0.6892
 IR Inten    --      1.1454                 1.1143                 2.2272

                     31                     32                     33
                      A                      A                      A
 Frequencies --    993.3430               997.8308              1007.5524
 Red. masses --      1.8223                 1.3533                 1.3446
 Frc consts  --      1.0594                 0.7939                 0.8042
 IR Inten    --      2.8266                 4.4182                 5.1205

                     34                     35                     36
                      A                      A                      A
 Frequencies --   1014.0638              1058.5548              1076.9057
 Red. masses --      1.4853                 2.7504                 1.2901
 Frc consts  --      0.8999                 1.8158                 0.8815
 IR Inten    --      3.0770                 0.8849                 3.7680

                     37                     38                     39
                      A                      A                      A
 Frequencies --   1101.0063              1126.2620              1136.6279
 Red. masses --      1.9034                 1.5476                 1.7960
 Frc consts  --      1.3595                 1.1566                 1.3671
 IR Inten    --      0.5375                 0.5488                 2.4720

                     40                     41                     42
                      A                      A                      A
 Frequencies --   1160.3113              1168.8639              1175.2032
 Red. masses --      1.9964                 2.0730                 2.1179
 Frc consts  --      1.5836                 1.6687                 1.7233
 IR Inten    --      0.9728                 5.8610                 8.0713

                     43                     44                     45
                      A                      A                      A
 Frequencies --   1190.9549              1205.2367              1258.0803
 Red. masses --      1.9006                 2.0113                 1.5680
 Frc consts  --      1.5883                 1.7214                 1.4622
 IR Inten    --      1.6121                 0.1995                 1.6619

                     46                     47                     48
                      A                      A                      A
 Frequencies --   1290.9200              1318.7695              1328.9468
 Red. masses --      1.8725                 1.2798                 1.4953
 Frc consts  --      1.8385                 1.3114                 1.5559
 IR Inten    --      3.0772                 1.5876                 5.8850

                     49                     50                     51
                      A                      A                      A
 Frequencies --   1338.4864              1365.7178              1387.8407
 Red. masses --      1.4131                 1.2599                 1.3245
 Frc consts  --      1.4916                 1.3845                 1.5031
 IR Inten    --      0.4169                 3.4833                 2.0592

                     52                     53                     54
                      A                      A                      A
 Frequencies --   1409.5075              1413.8001              1437.6144
 Red. masses --      1.4917                 1.4616                 1.3050
 Frc consts  --      1.7461                 1.7212                 1.5890
 IR Inten    --      0.5443                 1.0594                 4.4050

                     55                     56                     57
                      A                      A                      A
 Frequencies --   1439.0751              1442.0459              1443.4787
 Red. masses --      1.3333                 1.2298                 1.2358
 Frc consts  --      1.6268                 1.5068                 1.5171
 IR Inten    --      2.1326                 2.9494                 2.1721

                     58                     59                     60
                      A                      A                      A
 Frequencies --   1454.9133              1494.1840              1511.1964
 Red. masses --      1.2476                 2.0320                 1.0835
 Frc consts  --      1.5559                 2.6728                 1.4578
 IR Inten    --      0.2020                 1.1518                 0.0339

                     61                     62                     63
                      A                      A                      A
 Frequencies --   1513.4915              1515.7871              1521.7794
 Red. masses --      1.0603                 1.0695                 1.0553
 Frc consts  --      1.4309                 1.4478                 1.4400
 IR Inten    --      3.2051                 0.5759                 3.0213

                     64                     65                     66
                      A                      A                      A
 Frequencies --   1525.3639              1527.3113              1529.7152
 Red. masses --      1.0485                 1.0443                 1.0540
 Frc consts  --      1.4373                 1.4353                 1.4531
 IR Inten    --      1.2219                 7.1407                 4.5157

                     67                     68                     69
                      A                      A                      A
 Frequencies --   1532.1615              1536.1306              1537.4785
 Red. masses --      1.0548                 1.0630                 1.0496
 Frc consts  --      1.4588                 1.4779                 1.4618
 IR Inten    --      5.8207                 7.3448                 7.8053

                     70                     71                     72
                      A                      A                      A
 Frequencies --   1544.5527              1548.3631              3002.0490
 Red. masses --      1.0501                 1.1856                 1.0802
 Frc consts  --      1.4760                 1.6747                 5.7357
 IR Inten    --      1.4967                 2.1121                 2.1877

                     73                     74                     75
                      A                      A                      A
 Frequencies --   3016.9241              3025.0068              3033.2931
 Red. masses --      1.0676                 1.0666                 1.0379
 Frc consts  --      5.7250                 5.7503                 5.6264
 IR Inten    --     14.1712                47.1361                18.0768

                     76                     77                     78
                      A                      A                      A
 Frequencies --   3037.1494              3040.0565              3041.5690
 Red. masses --      1.0379                 1.0393                 1.0384
 Frc consts  --      5.6405                 5.6590                 5.6601
 IR Inten    --     67.7868                65.6425                21.7641

                     79                     80                     81
                      A                      A                      A
 Frequencies --   3045.2995              3072.7416              3075.9876
 Red. masses --      1.0377                 1.0936                 1.0947
 Frc consts  --      5.6698                 6.0835                 6.1025
 IR Inten    --     28.2194                17.5310                21.1065

                     82                     83                     84
                      A                      A                      A
 Frequencies --   3087.1141              3090.6516              3094.3732
 Red. masses --      1.1020                 1.1014                 1.1021
 Frc consts  --      6.1881                 6.1986                 6.2177
 IR Inten    --      0.8015                52.6044                45.9581

                     85                     86                     87
                      A                      A                      A
 Frequencies --   3100.6008              3107.1285              3108.5541
 Red. masses --      1.1004                 1.1013                 1.0932
 Frc consts  --      6.2327                 6.2644                 6.2241
 IR Inten    --     36.8497                51.9621                 8.4334

                     88                     89                     90
                      A                      A                      A
 Frequencies --   3115.8102              3119.7890              3124.8475
 Red. masses --      1.1016                 1.0966                 1.0961
 Frc consts  --      6.3011                 6.2888                 6.3058
 IR Inten    --     41.6684                 7.9420                70.8913

                     91                     92                     93
                      A                      A                      A
 Frequencies --   3125.3894              3126.8666              3137.9061
 Red. masses --      1.0991                 1.0945                 1.0891
 Frc consts  --      6.3257                 6.3049                 6.3185
 IR Inten    --     14.1762                 4.6707                80.6633

 - Thermochemistry -
 -------------------
 Temperature   298.150 Kelvin.  Pressure   1.00000 Atm.
 Atom     1 has atomic number  6 and mass  12.00000

 Molecular mass:   154.17215 amu.
 Principal axes and moments of inertia in atomic units:
                           1         2         3
     Eigenvalues --  1066.168883191.353213730.09490
           X            1.00000  -0.00058  -0.00255
           Y            0.00056   0.99996  -0.00915
           Z            0.00256   0.00915   0.99995
 This molecule is an asymmetric top.
 Rotational symmetry number  1.
 Warning -- assumption of classical behavior for rotation
           may cause significant error
 Rotational temperatures (Kelvin)      0.08124     0.02714     0.02322
 Rotational constants (GHZ):           1.69273     0.56551     0.48383
 Zero-point vibrational energy     811708.6 (Joules/Mol)
                                  194.00301 (Kcal/Mol)
 Warning -- explicit consideration of  21 degrees of freedom as
           vibrations may cause significant error
 Vibrational temperatures:     40.09    89.82   119.11   152.07   244.76
          (Kelvin)            252.77   265.44   309.04   311.35   324.83
                              347.42   393.87   419.23   432.64   465.10
                              542.42   591.96   608.97   679.67   758.47
                              781.72  1002.26  1118.27  1152.77  1168.41
                             1205.54  1323.52  1360.04  1405.01  1410.93
                             1429.20  1435.66  1449.64  1459.01  1523.02
                             1549.43  1584.10  1620.44  1635.35  1669.43
                             1681.73  1690.86  1713.52  1734.07  1810.10
                             1857.35  1897.42  1912.06  1925.78  1964.96
                             1996.79  2027.97  2034.14  2068.41  2070.51
                             2074.78  2076.84  2093.30  2149.80  2174.27
                             2177.58  2180.88  2189.50  2194.66  2197.46
                             2200.92  2204.44  2210.15  2212.09  2222.27
                             2227.75  4319.28  4340.68  4352.31  4364.23
                             4369.78  4373.96  4376.14  4381.51  4420.99
                             4425.66  4441.67  4446.76  4452.11  4461.07
                             4470.46  4472.52  4482.96  4488.68  4495.96
                             4496.74  4498.86  4514.75

 Zero-point correction=                           0.309163 (Hartree/Particle)
 Thermal correction to Energy=                    0.323457
 Thermal correction to Enthalpy=                  0.324402
 Thermal correction to Gibbs Free Energy=         0.268518
 Sum of electronic and zero-point Energies=           -432.153280
 Sum of electronic and thermal Energies=              -432.138986
 Sum of electronic and thermal Enthalpies=            -432.138042
 Sum of electronic and thermal Free Energies=         -432.193925

                     E (Thermal)             CV                S
                      KCal/Mol        Cal/Mol-Kelvin    Cal/Mol-Kelvin
 Total                  202.973             53.015            117.617
 Electronic               0.000              0.000              0.000
 Translational            0.889              2.981             41.008
 Rotational               0.889              2.981             30.918
 Vibrational            201.195             47.053             45.690
 Vibration     1          0.593              1.984              5.976
 Vibration     2          0.597              1.972              4.379
 Vibration     3          0.600              1.961              3.824
 Vibration     4          0.605              1.945              3.346
 Vibration     5          0.625              1.879              2.434
 Vibration     6          0.628              1.872              2.374
 Vibration     7          0.631              1.861              2.282
 Vibration     8          0.645              1.818              2.003
 Vibration     9          0.645              1.816              1.989
 Vibration    10          0.650              1.802              1.912
 Vibration    11          0.658              1.777              1.792
 Vibration    12          0.676              1.722              1.572
 Vibration    13          0.687              1.690              1.466
 Vibration    14          0.693              1.672              1.413
 Vibration    15          0.708              1.629              1.294
 Vibration    16          0.748              1.519              1.051
 Vibration    17          0.775              1.445              0.922
 Vibration    18          0.785              1.420              0.881
 Vibration    19          0.829              1.311              0.731
 Vibration    20          0.882              1.190              0.594
 Vibration    21          0.898              1.154              0.558

                           ! Non-Optimized Parameters !
 Normal termination of Gaussian 16 at Tue Dec  8 19:26:48 2020.

 ----------------------------------------------------------------------
 # B3LYP/6-311++G(d,p) empiricaldispersion=gd3bj scf=xqc pop=npa geom=c
 heck
 ----------------------------------------------------------------------

 ---------------------------------------
 CID_123419047_JID_1007_Energie_neutraal
 ---------------------------------------
 Structure from the checkpoint file:  "JID_1007.chk"
 Charge =  0 Multiplicity = 1

 SCF Done:  E(RB3LYP) =  -432.581193423     A.U. after   12 cycles
 Normal termination of Gaussian 16 at Tue Dec  8 19:29:29 2020.

 ----------------------------------------------------------------------
 # B3LYP/6-311++G(d,p) empiricaldispersion=gd3bj scf=xqc pop=npa geom=c
 heck
 ----------------------------------------------------------------------

 -------------------------------------
 CID_123419047_JID_1007_Energie_kation
 -------------------------------------
 Structure from the checkpoint file:  "JID_1007.chk"
 Charge =  1 Multiplicity = 2

 SCF Done:  E(UB3LYP) =  -432.255714760     A.U. after   23 cycles
 Normal termination of Gaussian 16 at Tue Dec  8 19:36:09 2020.
 Gaussian 16:  ES64L-G16RevA.03 25-Dec-2016

 ----------------------------------------------------------------------
 # B3LYP/6-311++G(d,p) empiricaldispersion=gd3bj scf=xqc pop=npa geom=c
 heck
 ----------------------------------------------------------------------

 ------------------------------------
 CID_123419047_JID_1007_Energie_anion
 ------------------------------------
 Structure from the checkpoint file:  "JID_1007.chk"
 Charge = -1 Multiplicity = 2

                         Standard orientation:
 ---------------------------------------------------------------------
 Center     Atomic      Atomic             Coordinates (Angstroms)
 Number     Number       Type             X           Y           Z
 ---------------------------------------------------------------------
      1          6           0       -3.612407    1.281051   -0.193018
      2          6           0       -2.331387    0.610042   -0.697798
      3          6           0       -1.772842   -0.481653    0.231459
      4          6           0       -2.774040   -1.624111    0.445303
      5          6           0       -0.434855   -1.046519   -0.287491
      6          6           0        0.665333   -0.012664   -0.422969
      7          6           0        1.319545    0.611956    0.791191
      8          6           0        2.134893   -0.275643   -0.132596
      9          6           0        2.580441   -1.626274    0.399361
     10          6           0        3.155226    0.345454   -1.070665
     11          6           0        1.510606    2.108214    0.916467
     12          1           0       -4.454044    0.581807   -0.151202
     13          1           0       -3.905621    2.109010   -0.848220
     14          1           0       -3.469426    1.689644    0.815247
     15          1           0       -2.510954    0.172907   -1.691619
     16          1           0       -1.565395    1.382292   -0.835855
     17          1           0       -1.572226   -0.014174    1.208186
     18          1           0       -3.037976   -2.093833   -0.511460
     19          1           0       -2.348521   -2.402050    1.090162
     20          1           0       -3.700719   -1.277594    0.913471
     21          1           0       -0.115846   -1.843099    0.394739
     22          1           0       -0.604602   -1.532745   -1.260116
     23          1           0        0.513603    0.681913   -1.248855
     24          1           0        1.059119    0.131301    1.735455
     25          1           0        2.684580   -2.358747   -0.411700
     26          1           0        3.557256   -1.536442    0.891641
     27          1           0        1.882114   -2.037294    1.134217
     28          1           0        2.810151    1.293769   -1.492827
     29          1           0        4.105121    0.534318   -0.553717
     30          1           0        3.364216   -0.330684   -1.909580
     31          1           0        0.608394    2.579615    1.325425
     32          1           0        2.346569    2.354158    1.583253
     33          1           0        1.711124    2.576821   -0.052118
 ---------------------------------------------------------------------

 SCF Done:  E(UB3LYP) =  -432.563668813     A.U. after   29 cycles

 The electronic state is 2-A.
 Alpha  occ. eigenvalues --  -10.07929 -10.06850 -10.06795 -10.06549 -10.06169
 Alpha  occ. eigenvalues --  -10.06113 -10.05876 -10.05833 -10.05796 -10.05690
 Alpha  occ. eigenvalues --  -10.05579  -0.77076  -0.70956  -0.64080  -0.63452
 Alpha  occ. eigenvalues --   -0.60877  -0.58723  -0.57079  -0.52802  -0.47271
 Alpha  occ. eigenvalues --   -0.44394  -0.42396  -0.37462  -0.36554  -0.35877
 Alpha  occ. eigenvalues --   -0.33628  -0.32847  -0.32184  -0.31171  -0.29712
 Alpha  occ. eigenvalues --   -0.29309  -0.28525  -0.28181  -0.28142  -0.27875
 Alpha  occ. eigenvalues --   -0.27083  -0.25489  -0.24436  -0.23431  -0.22823
 Alpha  occ. eigenvalues --   -0.21889  -0.20975  -0.16260  -0.15789   0.04581
 Alpha virt. eigenvalues --    0.06478   0.07068   0.07546   0.08590   0.08859
 Alpha virt. eigenvalues --    0.09164   0.09738   0.10316   0.11036   0.11093
 Alpha virt. eigenvalues --    0.11688   0.11963   0.12395   0.13042   0.13512

  Beta  occ. eigenvalues --  -10.07927 -10.06842 -10.06787 -10.06544 -10.06159
  Beta  occ. eigenvalues --  -10.06100 -10.05850 -10.05803 -10.05767 -10.05659
  Beta  occ. eigenvalues --  -10.05554  -0.77064  -0.70932  -0.64046  -0.63416
  Beta  occ. eigenvalues --   -0.60835  -0.58671  -0.57032  -0.52738  -0.47223
  Beta  occ. eigenvalues --   -0.44345  -0.42349  -0.37425  -0.36525  -0.35847
  Beta  occ. eigenvalues --   -0.33601  -0.32809  -0.32152  -0.31143  -0.29678
  Beta  occ. eigenvalues --   -0.29271  -0.28496  -0.28150  -0.28108  -0.27842
  Beta  occ. eigenvalues --   -0.27047  -0.25451  -0.24399  -0.23397  -0.22785
  Beta  occ. eigenvalues --   -0.21856  -0.20948  -0.16244  -0.15772
  Beta virt. eigenvalues --    0.06605   0.07298   0.07734   0.08058   0.09062
  Beta virt. eigenvalues --    0.09342   0.09688   0.10204   0.10581   0.11460
  Beta virt. eigenvalues --    0.11600   0.12087   0.12222   0.12648   0.13375

 Mulliken charges and spin densities:
               1          2
     1  C    1.309294  -2.010921
     2  C   -1.222155   1.005296
     3  C   -0.383934   1.150787
     4  C    1.408616  -2.198745
     5  C    0.093701  -1.310823
     6  C    1.471252  -1.386243
     7  C   -0.387784  -0.118583
     8  C   -2.213941   3.313349
     9  C   -0.415355  -0.010763
    10  C    0.308599  -0.821629
    11  C    1.219305  -1.969654
    12  H   -0.139397   0.279155
    13  H   -0.284943   0.419781
    14  H   -0.242911   0.384203
    15  H   -0.212725   0.354998
    16  H    0.283182  -0.186975
    17  H    0.132895   0.022364
    18  H   -0.048927   0.188141
    19  H   -0.273991   0.401008
    20  H   -0.133081   0.270218
    21  H    0.449130  -0.333537
    22  H   -0.039139   0.186561
    23  H    0.020283   0.203617
    24  H   -0.018723   0.230750
    25  H   -0.044089   0.181964
    26  H   -0.208923   0.353627
    27  H   -0.416263   0.555423
    28  H   -0.299983   0.426946
    29  H   -0.247563   0.394730
    30  H    0.018411   0.120868
    31  H   -0.061880   0.203527
    32  H   -0.278257   0.426784
    33  H   -0.140704   0.273773
 Sum of Mulliken charges =  -1.00000   1.00000

 Dipole moment (field-independent basis, Debye):
    X=             -0.0980    Y=             -1.1448    Z=             -1.0760  Tot=              1.5742
 Quadrupole moment (field-independent basis, Debye-Ang):
   XX=           -155.3016   YY=           -120.0845   ZZ=           -108.1761
   XY=              0.0442   XZ=             -1.1648   YZ=              1.7658

 Summary of Natural Population Analysis:

                                       Natural Population
                Natural  -----------------------------------------------
    Atom  No    Charge         Core      Valence    Rydberg      Total
 -----------------------------------------------------------------------
      C    1   -0.28290      0.99967     2.27899    0.00425     3.28290
      C    2   -0.18948      0.99962     2.18116    0.00870     3.18948
      C    3   -0.10937      0.99960     2.09990    0.00987     3.10937
      C    4   -0.28566      0.99965     2.27969    0.00632     3.28566
      C    5   -0.18497      0.99959     2.17695    0.00842     3.18497
      C    6   -0.10562      0.99953     2.09620    0.00989     3.10562
      C    7   -0.10656      0.99953     2.09664    0.01039     3.10656
      C    8   -0.03925      0.99954     2.02780    0.01191     3.03925
      C    9   -0.28118      0.99962     2.27537    0.00618     3.28118
      C   10   -0.28094      0.99962     2.27515    0.00617     3.28094
      C   11   -0.28467      0.99965     2.27892    0.00611     3.28467
      H   12    0.09552      0.00000     0.40321    0.00127     0.40448
      H   13    0.09804      0.00000     0.40088    0.00108     0.40196
      H   14    0.09618      0.00000     0.40252    0.00130     0.40382
      H   15    0.09092      0.00000     0.40791    0.00116     0.40908
      H   16    0.09840      0.00000     0.40017    0.00142     0.40160
      H   17    0.09194      0.00000     0.40607    0.00199     0.40806
      H   18    0.09500      0.00000     0.40399    0.00101     0.40500
      H   19    0.09894      0.00000     0.40005    0.00101     0.40106
      H   20    0.09983      0.00000     0.39922    0.00095     0.40017
      H   21    0.09919      0.00000     0.39918    0.00162     0.40081
      H   22    0.09529      0.00000     0.40342    0.00129     0.40471
      H   23    0.09906      0.00000     0.39892    0.00202     0.40094
      H   24    0.09804      0.00000     0.40013    0.00183     0.40196
      H   25    0.09731      0.00000     0.40172    0.00097     0.40269
      H   26    0.10056      0.00000     0.39828    0.00115     0.39944
      H   27    0.10041      0.00000     0.39830    0.00130     0.39959
      H   28    0.10041      0.00000     0.39840    0.00119     0.39959
      H   29    0.09941      0.00000     0.39945    0.00114     0.40059
      H   30    0.09851      0.00000     0.40045    0.00104     0.40149
      H   31    0.10031      0.00000     0.39861    0.00109     0.39969
      H   32    0.09884      0.00000     0.39998    0.00117     0.40116
      H   33    0.09850      0.00000     0.40024    0.00126     0.40150
 =======================================================================
   * Total *   -0.00000     10.99562    32.88788    0.11650    44.00000

 Normal termination of Gaussian 16 at Tue Dec  8 19:44:30 2020.
