 Gaussian 16, Revision A.03,

 -----------------------------------------------------------
 # opt freq B3LYP/6-31G(d) empiricaldispersion=gd3bj scf=xqc
 -----------------------------------------------------------

 -----------------------------
 CID_61907602_JID_435_neutraal
 -----------------------------
 Symbolic Z-matrix:
 Charge =  0 Multiplicity = 1

 SCF Done:  E(RB3LYP) =  -458.590440052     A.U. after   15 cycles
 SCF Done:  E(RB3LYP) =  -458.624632200     A.U. after   14 cycles
 SCF Done:  E(RB3LYP) =  -458.634727891     A.U. after   13 cycles
 SCF Done:  E(RB3LYP) =  -458.640230298     A.U. after   13 cycles
 SCF Done:  E(RB3LYP) =  -458.641686808     A.U. after   12 cycles
 SCF Done:  E(RB3LYP) =  -458.642469530     A.U. after   12 cycles
 SCF Done:  E(RB3LYP) =  -458.643066294     A.U. after   12 cycles
 SCF Done:  E(RB3LYP) =  -458.643639435     A.U. after   13 cycles
 SCF Done:  E(RB3LYP) =  -458.643776576     A.U. after   11 cycles
 SCF Done:  E(RB3LYP) =  -458.643824129     A.U. after   10 cycles
 SCF Done:  E(RB3LYP) =  -458.643856408     A.U. after    9 cycles
 SCF Done:  E(RB3LYP) =  -458.643856951     A.U. after    8 cycles
 SCF Done:  E(RB3LYP) =  -458.643857364     A.U. after    8 cycles
 SCF Done:  E(RB3LYP) =  -458.643857455     A.U. after    7 cycles
 SCF Done:  E(RB3LYP) =  -458.643857506     A.U. after    7 cycles
 SCF Done:  E(RB3LYP) =  -458.643857529     A.U. after    7 cycles
 Optimization completed.
    -- Stationary point found.
 Normal termination of Gaussian 16 at Tue Dec  8 10:46:12 2020.

 --------------------------------------------------------------------
 #N Geom=AllCheck Guess=TCheck SCRF=Check GenChk RB3LYP/6-31G(d) Freq
 --------------------------------------------------------------------

 Structure from the checkpoint file:  "JID_435.chk"
 -----------------------------
 CID_61907602_JID_435_neutraal
 -----------------------------
 Charge =  0 Multiplicity = 1

 SCF Done:  E(RB3LYP) =  -458.643857529     A.U. after    1 cycles

  Exact polarizability:  99.819   3.990  82.640  -1.008  -0.294  67.999
 Approx polarizability: 114.051   6.161 132.748   0.499  -5.156 103.838

                      1                      2                      3
                      A                      A                      A
 Frequencies --     42.0582                53.2365                85.8577
 Red. masses --      3.5854                 2.4841                 2.8646
 Frc consts  --      0.0037                 0.0041                 0.0124
 IR Inten    --      0.8915                 1.9700                 1.2976

                      4                      5                      6
                      A                      A                      A
 Frequencies --    106.8290               132.3440               163.8619
 Red. masses --      2.2514                 5.7542                 2.9994
 Frc consts  --      0.0151                 0.0594                 0.0475
 IR Inten    --      3.0258                 6.4536                 0.1332

                      7                      8                      9
                      A                      A                      A
 Frequencies --    183.9989               223.6410               284.3598
 Red. masses --      1.5436                 4.7547                 3.8906
 Frc consts  --      0.0308                 0.1401                 0.1854
 IR Inten    --      2.2154                 5.6583                 8.8874

                     10                     11                     12
                      A                      A                      A
 Frequencies --    321.1244               418.3537               438.3663
 Red. masses --      4.1634                 2.2549                 3.8834
 Frc consts  --      0.2530                 0.2325                 0.4397
 IR Inten    --      5.9043                 6.2540                 4.5570

                     13                     14                     15
                      A                      A                      A
 Frequencies --    467.5046               565.6575               641.8450
 Red. masses --      2.4555                 3.7882                 3.7666
 Frc consts  --      0.3162                 0.7141                 0.9142
 IR Inten    --      4.6726                 8.5024                 8.1949

                     16                     17                     18
                      A                      A                      A
 Frequencies --    718.3993               768.8271               807.5340
 Red. masses --      1.8985                 1.1842                 2.7871
 Frc consts  --      0.5773                 0.4124                 1.0708
 IR Inten    --     70.4701                 0.8692                25.5101

                     19                     20                     21
                      A                      A                      A
 Frequencies --    824.8874               871.2990               959.1459
 Red. masses --      1.5495                 1.6660                 3.7891
 Frc consts  --      0.6212                 0.7452                 2.0538
 IR Inten    --     13.8828                 8.3481                31.7396

                     22                     23                     24
                      A                      A                      A
 Frequencies --    962.4828               998.2088              1060.6574
 Red. masses --      3.2334                 2.0287                 2.0003
 Frc consts  --      1.7648                 1.1910                 1.3259
 IR Inten    --     12.2567                 4.9212                16.1907

                     25                     26                     27
                      A                      A                      A
 Frequencies --   1065.6200              1084.6223              1095.2250
 Red. masses --      1.3902                 1.3932                 2.8984
 Frc consts  --      0.9301                 0.9656                 2.0484
 IR Inten    --     11.4919                 3.0969                 0.8165

                     28                     29                     30
                      A                      A                      A
 Frequencies --   1134.5192              1137.4756              1163.6423
 Red. masses --      4.3188                 1.1815                 2.8142
 Frc consts  --      3.2752                 0.9007                 2.2452
 IR Inten    --     30.4134                11.7411               131.4815

                     31                     32                     33
                      A                      A                      A
 Frequencies --   1191.6192              1204.4368              1215.5430
 Red. masses --      1.2662                 1.3775                 2.0793
 Frc consts  --      1.0593                 1.1774                 1.8102
 IR Inten    --      0.6988                 0.1575                14.0006

                     34                     35                     36
                      A                      A                      A
 Frequencies --   1234.8252              1260.3420              1296.8794
 Red. masses --      1.8215                 1.7916                 1.4442
 Frc consts  --      1.6364                 1.6767                 1.4311
 IR Inten    --     43.9483                17.2534                10.5525

                     37                     38                     39
                      A                      A                      A
 Frequencies --   1324.9694              1360.4145              1408.0063
 Red. masses --      1.2805                 1.2506                 1.2849
 Frc consts  --      1.3244                 1.3637                 1.5008
 IR Inten    --      2.6854                10.5232                 1.5605

                     40                     41                     42
                      A                      A                      A
 Frequencies --   1415.8469              1492.9799              1502.7132
 Red. masses --      1.2981                 1.0942                 1.1262
 Frc consts  --      1.5332                 1.4370                 1.4984
 IR Inten    --     25.8808                 3.2352                 0.8391

                     43                     44                     45
                      A                      A                      A
 Frequencies --   1518.3484              1520.5115              1531.6028
 Red. masses --      1.1564                 1.0621                 1.0932
 Frc consts  --      1.5707                 1.4468                 1.5109
 IR Inten    --     14.1720                 5.6452                 1.4639

                     46                     47                     48
                      A                      A                      A
 Frequencies --   1538.8468              1541.0000              2346.6534
 Red. masses --      1.3931                 1.0938                12.6301
 Frc consts  --      1.9437                 1.5303                40.9785
 IR Inten    --     28.5438                 2.4331                 3.4483

                     49                     50                     51
                      A                      A                      A
 Frequencies --   3012.4160              3024.2816              3083.7710
 Red. masses --      1.0472                 1.0617                 1.0835
 Frc consts  --      5.5991                 5.7214                 6.0705
 IR Inten    --     42.7039                57.8166                 5.3095

                     52                     53                     54
                      A                      A                      A
 Frequencies --   3091.5409              3109.3909              3143.1820
 Red. masses --      1.0947                 1.0998                 1.0554
 Frc consts  --      6.1646                 6.2647                 6.1433
 IR Inten    --     30.6395                26.4347                15.4246

                     55                     56                     57
                      A                      A                      A
 Frequencies --   3148.6729              3151.0899              3158.8378
 Red. masses --      1.1016                 1.0856                 1.0603
 Frc consts  --      6.4344                 6.3511                 6.2335
 IR Inten    --     27.2661                17.4968                 7.6224

                     58                     59                     60
                      A                      A                      A
 Frequencies --   3222.3180              3244.9373              3508.9818
 Red. masses --      1.1172                 1.1159                 1.0741
 Frc consts  --      6.8347                 6.9232                 7.7919
 IR Inten    --      7.2414                13.4193                 0.6968

 - Thermochemistry -
 -------------------
 Temperature   298.150 Kelvin.  Pressure   1.00000 Atm.
 Atom     1 has atomic number  6 and mass  12.00000

 Molecular mass:   140.09496 amu.
 Principal axes and moments of inertia in atomic units:
                           1         2         3
     Eigenvalues --   619.619462605.320253043.44849
           X            0.99997   0.00145  -0.00807
           Y           -0.00137   0.99994   0.01046
           Z            0.00808  -0.01045   0.99991
 This molecule is an asymmetric top.
 Rotational symmetry number  1.
 Warning -- assumption of classical behavior for rotation
           may cause significant error
 Rotational temperatures (Kelvin)      0.13979     0.03325     0.02846
 Rotational constants (GHZ):           2.91266     0.69271     0.59299
 Zero-point vibrational energy     493977.2 (Joules/Mol)
                                  118.06339 (Kcal/Mol)
 Warning -- explicit consideration of  14 degrees of freedom as
           vibrations may cause significant error
 Vibrational temperatures:     60.51    76.60   123.53   153.70   190.41
          (Kelvin)            235.76   264.73   321.77   409.13   462.03
                              601.92   630.71   672.63   813.86   923.47
                             1033.62  1106.17  1161.86  1186.83  1253.60
                             1380.00  1384.80  1436.20  1526.05  1533.19
                             1560.53  1575.78  1632.32  1636.57  1674.22
                             1714.47  1732.92  1748.90  1776.64  1813.35
                             1865.92  1906.34  1957.33  2025.81  2037.09
                             2148.07  2162.07  2184.56  2187.68  2203.63
                             2214.06  2217.16  3376.31  4334.19  4351.27
                             4436.86  4448.04  4473.72  4522.34  4530.24
                             4533.72  4544.86  4636.20  4668.74  5048.64

 Zero-point correction=                           0.188146 (Hartree/Particle)
 Thermal correction to Energy=                    0.199364
 Thermal correction to Enthalpy=                  0.200308
 Thermal correction to Gibbs Free Energy=         0.150122
 Sum of electronic and zero-point Energies=           -458.455712
 Sum of electronic and thermal Energies=              -458.444493
 Sum of electronic and thermal Enthalpies=            -458.443549
 Sum of electronic and thermal Free Energies=         -458.493736

                     E (Thermal)             CV                S
                      KCal/Mol        Cal/Mol-Kelvin    Cal/Mol-Kelvin
 Total                  125.103             39.328            105.626
 Electronic               0.000              0.000              0.000
 Translational            0.889              2.981             40.723
 Rotational               0.889              2.981             29.975
 Vibrational            123.326             33.366             34.928
 Vibration     1          0.595              1.980              5.160
 Vibration     2          0.596              1.976              4.693
 Vibration     3          0.601              1.959              3.752
 Vibration     4          0.606              1.944              3.326
 Vibration     5          0.612              1.921              2.912
 Vibration     6          0.623              1.887              2.505
 Vibration     7          0.631              1.862              2.287
 Vibration     8          0.649              1.805              1.929
 Vibration     9          0.683              1.703              1.507
 Vibration    10          0.707              1.633              1.304
 Vibration    11          0.781              1.430              0.898
 Vibration    12          0.799              1.387              0.832
 Vibration    13          0.825              1.322              0.745
 Vibration    14          0.922              1.106              0.513

                           ! Non-Optimized Parameters !
 Normal termination of Gaussian 16 at Tue Dec  8 10:50:23 2020.

 ----------------------------------------------------------------------
 # B3LYP/6-311++G(d,p) empiricaldispersion=gd3bj scf=xqc pop=npa geom=c
 heck
 ----------------------------------------------------------------------

 -------------------------------------
 CID_61907602_JID_435_Energie_neutraal
 -------------------------------------
 Structure from the checkpoint file:  "JID_435.chk"
 Charge =  0 Multiplicity = 1

 SCF Done:  E(RB3LYP) =  -458.780190579     A.U. after   14 cycles
 Normal termination of Gaussian 16 at Tue Dec  8 10:53:33 2020.

 ----------------------------------------------------------------------
 # B3LYP/6-311++G(d,p) empiricaldispersion=gd3bj scf=xqc pop=npa geom=c
 heck
 ----------------------------------------------------------------------

 -----------------------------------
 CID_61907602_JID_435_Energie_kation
 -----------------------------------
 Structure from the checkpoint file:  "JID_435.chk"
 Charge =  1 Multiplicity = 2

 SCF Done:  E(UB3LYP) =  -458.455266612     A.U. after   20 cycles
 Normal termination of Gaussian 16 at Tue Dec  8 10:59:47 2020.
 Gaussian 16:  ES64L-G16RevA.03 25-Dec-2016

 ----------------------------------------------------------------------
 # B3LYP/6-311++G(d,p) empiricaldispersion=gd3bj scf=xqc pop=npa geom=c
 heck
 ----------------------------------------------------------------------

 ----------------------------------
 CID_61907602_JID_435_Energie_anion
 ----------------------------------
 Structure from the checkpoint file:  "JID_435.chk"
 Charge = -1 Multiplicity = 2

                         Standard orientation:
 ---------------------------------------------------------------------
 Center     Atomic      Atomic             Coordinates (Angstroms)
 Number     Number       Type             X           Y           Z
 ---------------------------------------------------------------------
      1          6           0        3.520986    0.222947   -0.263540
      2          8           0        2.689536   -0.648181    0.491128
      3          6           0        1.522927   -1.079841   -0.170808
      4          6           0        0.269197   -0.331154    0.329298
      5          6           0        0.401017    1.129266    0.104168
      6          7           0        0.472269    2.259702   -0.153794
      7          7           0       -0.922871   -0.903788   -0.285740
      8          6           0       -2.170013   -0.578336    0.367998
      9          6           0       -2.835130    0.780156    0.263658
     10          6           0       -3.413867   -0.420883   -0.453092
     11          1           0        4.380947    0.453721    0.369493
     12          1           0        3.010851    1.156885   -0.527222
     13          1           0        3.876406   -0.266165   -1.182911
     14          1           0        1.610117   -0.970466   -1.261989
     15          1           0        1.365300   -2.139770    0.052284
     16          1           0        0.204150   -0.494134    1.410603
     17          1           0       -0.959958   -0.662496   -1.273627
     18          1           0       -2.274266   -1.099892    1.317788
     19          1           0       -3.355338    1.166684    1.135571
     20          1           0       -2.344770    1.539262   -0.337150
     21          1           0       -3.312317   -0.457116   -1.535695
     22          1           0       -4.333891   -0.865396   -0.085534
 ---------------------------------------------------------------------

 SCF Done:  E(UB3LYP) =  -458.763236334     A.U. after   31 cycles

 The electronic state is 2-A.
 Alpha  occ. eigenvalues --  -19.03418 -14.22160 -14.21511 -10.14524 -10.12955
 Alpha  occ. eigenvalues --  -10.11375 -10.11208 -10.10783 -10.07373 -10.06967
 Alpha  occ. eigenvalues --   -0.94701  -0.84411  -0.80726  -0.74605  -0.66351
 Alpha  occ. eigenvalues --   -0.59972  -0.53732  -0.50557  -0.50333  -0.45096
 Alpha  occ. eigenvalues --   -0.41414  -0.39619  -0.38600  -0.37559  -0.36604
 Alpha  occ. eigenvalues --   -0.33949  -0.31565  -0.29303  -0.28398  -0.27291
 Alpha  occ. eigenvalues --   -0.26967  -0.24772  -0.23755  -0.23154  -0.22821
 Alpha  occ. eigenvalues --   -0.20357  -0.16765  -0.13928   0.04806
 Alpha virt. eigenvalues --    0.06564   0.07447   0.08305   0.09197   0.09380
 Alpha virt. eigenvalues --    0.09847   0.11172   0.11581   0.11706   0.12112
 Alpha virt. eigenvalues --    0.12459   0.13814   0.14346   0.14658   0.15313

  Beta  occ. eigenvalues --  -19.03408 -14.22133 -14.21479 -10.14514 -10.12920
  Beta  occ. eigenvalues --  -10.11341 -10.11211 -10.10764 -10.07337 -10.06952
  Beta  occ. eigenvalues --   -0.94681  -0.84371  -0.80681  -0.74569  -0.66305
  Beta  occ. eigenvalues --   -0.59914  -0.53637  -0.50464  -0.50272  -0.45053
  Beta  occ. eigenvalues --   -0.41364  -0.39554  -0.38534  -0.37520  -0.36553
  Beta  occ. eigenvalues --   -0.33900  -0.31505  -0.29250  -0.28349  -0.27240
  Beta  occ. eigenvalues --   -0.26925  -0.24746  -0.23671  -0.23118  -0.22763
  Beta  occ. eigenvalues --   -0.20318  -0.16735  -0.13896
  Beta virt. eigenvalues --    0.07291   0.07818   0.08246   0.09005   0.09643
  Beta virt. eigenvalues --    0.10101   0.10188   0.11641   0.12153   0.12175
  Beta virt. eigenvalues --    0.12432   0.12725   0.13883   0.14735   0.14890

 Mulliken charges and spin densities:
               1          2
     1  C    0.733399  -1.020228
     2  O   -0.188512   0.071276
     3  C    0.522191  -0.830660
     4  C   -0.990572   0.996838
     5  C    1.121706  -1.298779
     6  N   -0.318223   0.037047
     7  N    0.349939  -0.283076
     8  C   -1.216187   0.945069
     9  C    0.517270  -0.813443
    10  C    0.959058  -1.290691
    11  H   -0.101222   0.247623
    12  H   -0.020740   0.163934
    13  H   -0.463653   0.596915
    14  H   -0.457995   0.600950
    15  H   -0.410633   0.639147
    16  H    0.043847   0.158195
    17  H    0.263956  -0.052601
    18  H   -0.759450   0.980535
    19  H   -0.161957   0.298932
    20  H    0.210512  -0.063571
    21  H   -0.402866   0.535741
    22  H   -0.229870   0.380847
 Sum of Mulliken charges =  -1.00000   1.00000

 Dipole moment (field-independent basis, Debye):
    X=              0.9263    Y=              1.8316    Z=              0.7670  Tot=              2.1911
 Quadrupole moment (field-independent basis, Debye-Ang):
   XX=           -134.2804   YY=           -100.3143   ZZ=            -93.7214
   XY=             -2.4680   XZ=              9.1524   YZ=              0.1503

 Summary of Natural Population Analysis:

                                       Natural Population
                Natural  -----------------------------------------------
    Atom  No    Charge         Core      Valence    Rydberg      Total
 -----------------------------------------------------------------------
      C    1   -0.09873      0.99960     2.08994    0.00918     3.09873
      O    2   -0.30026      0.99989     3.29006    0.01032     4.30026
      C    3    0.00009      0.99956     1.98583    0.01452     2.99991
      C    4   -0.07013      0.99950     2.05802    0.01260     3.07013
      C    5    0.15258      0.99964     1.82929    0.01848     2.84742
      N    6   -0.18512      0.99979     2.67331    0.01202     3.68512
      N    7   -0.32505      0.99973     2.81221    0.01311     3.82505
      C    8   -0.01832      0.99957     2.00464    0.01411     3.01832
      C    9   -0.21119      0.99962     2.20312    0.00844     3.21119
      C   10   -0.19936      0.99962     2.18986    0.00989     3.19936
      H   11    0.08924      0.00000     0.40962    0.00114     0.41076
      H   12    0.08640      0.00000     0.41215    0.00145     0.41360
      H   13    0.08137      0.00000     0.41664    0.00199     0.41863
      H   14    0.08534      0.00000     0.41159    0.00307     0.41466
      H   15    0.09742      0.00000     0.40044    0.00215     0.40258
      H   16    0.11591      0.00000     0.38169    0.00240     0.38409
      H   17    0.17867      0.00000     0.31673    0.00460     0.32133
      H   18    0.10106      0.00000     0.39672    0.00222     0.39894
      H   19    0.10336      0.00000     0.39538    0.00126     0.39664
      H   20    0.10749      0.00000     0.39143    0.00109     0.39251
      H   21    0.10182      0.00000     0.39700    0.00118     0.39818
      H   22    0.10742      0.00000     0.39037    0.00222     0.39258
 =======================================================================
   * Total *    0.00000      9.99653    27.85605    0.14742    38.00000

 Normal termination of Gaussian 16 at Tue Dec  8 11:08:22 2020.
