 Gaussian 16, Revision A.03,

 -----------------------------------------------------------
 # opt freq B3LYP/6-31G(d) empiricaldispersion=gd3bj scf=xqc
 -----------------------------------------------------------

 -------------------------------
 CID_145272467_JID_9977_neutraal
 -------------------------------
 Symbolic Z-matrix:
 Charge =  0 Multiplicity = 1

 SCF Done:  E(RB3LYP) =  -734.889376619     A.U. after   14 cycles
 SCF Done:  E(RB3LYP) =  -734.894012968     A.U. after   13 cycles
 SCF Done:  E(RB3LYP) =  -734.894462685     A.U. after   13 cycles
 SCF Done:  E(RB3LYP) =  -734.895837713     A.U. after   12 cycles
 SCF Done:  E(RB3LYP) =  -734.896405919     A.U. after   13 cycles
 SCF Done:  E(RB3LYP) =  -734.896683334     A.U. after   12 cycles
 SCF Done:  E(RB3LYP) =  -734.896829408     A.U. after   12 cycles
 SCF Done:  E(RB3LYP) =  -734.896918476     A.U. after   12 cycles
 SCF Done:  E(RB3LYP) =  -734.896949651     A.U. after   10 cycles
 SCF Done:  E(RB3LYP) =  -734.896971662     A.U. after   10 cycles
 SCF Done:  E(RB3LYP) =  -734.896975135     A.U. after    9 cycles
 SCF Done:  E(RB3LYP) =  -734.896976814     A.U. after    9 cycles
 SCF Done:  E(RB3LYP) =  -734.896977397     A.U. after    8 cycles
 SCF Done:  E(RB3LYP) =  -734.896977506     A.U. after    7 cycles
 Optimization completed.
    -- Stationary point found.
 Normal termination of Gaussian 16 at Sun Dec 13 20:19:34 2020.

 --------------------------------------------------------------------
 #N Geom=AllCheck Guess=TCheck SCRF=Check GenChk RB3LYP/6-31G(d) Freq
 --------------------------------------------------------------------

 Structure from the checkpoint file:  "JID_9977.chk"
 -------------------------------
 CID_145272467_JID_9977_neutraal
 -------------------------------
 Charge =  0 Multiplicity = 1

 SCF Done:  E(RB3LYP) =  -734.896977506     A.U. after    1 cycles

  Exact polarizability: 250.128 -23.353 192.727  11.844 -26.216 169.585
 Approx polarizability: 391.051 -52.456 301.997  39.390 -64.457 308.689

                      1                      2                      3
                      A                      A                      A
 Frequencies --     30.0365                38.4048                51.0466
 Red. masses --      4.4648                 2.9175                 3.8404
 Frc consts  --      0.0024                 0.0025                 0.0059
 IR Inten    --      0.0433                 0.0387                 0.0598

                      4                      5                      6
                      A                      A                      A
 Frequencies --     69.0548                84.4572                93.9133
 Red. masses --      4.1122                 3.9501                 3.8872
 Frc consts  --      0.0116                 0.0166                 0.0202
 IR Inten    --      0.0963                 0.0132                 0.8028

                      7                      8                      9
                      A                      A                      A
 Frequencies --    125.9052               138.3385               196.3056
 Red. masses --      4.1300                 2.3142                 3.2471
 Frc consts  --      0.0386                 0.0261                 0.0737
 IR Inten    --      0.2306                 0.1457                 1.1697

                     10                     11                     12
                      A                      A                      A
 Frequencies --    224.5734               239.3576               244.6806
 Red. masses --      3.7289                 3.7398                 3.7265
 Frc consts  --      0.1108                 0.1262                 0.1314
 IR Inten    --      0.3457                 0.1755                 0.1214

                     13                     14                     15
                      A                      A                      A
 Frequencies --    308.2547               321.9989               324.0407
 Red. masses --      2.5879                 1.8075                 2.4081
 Frc consts  --      0.1449                 0.1104                 0.1490
 IR Inten    --      0.3480                 0.4001                 0.5877

                     16                     17                     18
                      A                      A                      A
 Frequencies --    370.8702               390.4095               420.0023
 Red. masses --      3.6455                 3.6625                 3.0638
 Frc consts  --      0.2954                 0.3289                 0.3184
 IR Inten    --      0.7983                 0.6327                 0.1543

                     19                     20                     21
                      A                      A                      A
 Frequencies --    457.9487               472.6878               494.7952
 Red. masses --      3.3112                 2.6727                 2.3558
 Frc consts  --      0.4091                 0.3518                 0.3398
 IR Inten    --      0.5849                 4.5641                 3.9865

                     22                     23                     24
                      A                      A                      A
 Frequencies --    519.5119               553.4089               561.7364
 Red. masses --      2.2596                 3.3657                 2.9288
 Frc consts  --      0.3593                 0.6073                 0.5445
 IR Inten    --      5.0087                 3.1962                 2.5468

                     25                     26                     27
                      A                      A                      A
 Frequencies --    580.6508               632.8664               637.0350
 Red. masses --      3.4988                 6.7316                 6.3576
 Frc consts  --      0.6950                 1.5885                 1.5201
 IR Inten    --      4.1350                 3.8953                 0.5071

                     28                     29                     30
                      A                      A                      A
 Frequencies --    679.9416               710.6933               717.1332
 Red. masses --      4.8277                 1.1472                 1.8199
 Frc consts  --      1.3150                 0.3414                 0.5514
 IR Inten    --      6.1193                 1.4840                22.0918

                     31                     32                     33
                      A                      A                      A
 Frequencies --    740.1450               758.7776               773.5095
 Red. masses --      2.8980                 2.1285                 2.5063
 Frc consts  --      0.9354                 0.7220                 0.8835
 IR Inten    --      0.4581                32.1833                14.2590

                     34                     35                     36
                      A                      A                      A
 Frequencies --    777.3466               790.6603               794.9590
 Red. masses --      2.5004                 1.9939                 3.5127
 Frc consts  --      0.8902                 0.7344                 1.3079
 IR Inten    --      9.9580                 6.1140                 4.1443

                     37                     38                     39
                      A                      A                      A
 Frequencies --    858.2394               863.8588               893.5518
 Red. masses --      3.4266                 1.2483                 1.4340
 Frc consts  --      1.4871                 0.5489                 0.6746
 IR Inten    --      0.2260                 0.2699                 0.6692

                     40                     41                     42
                      A                      A                      A
 Frequencies --    910.1403               930.9515               932.4313
 Red. masses --      1.3262                 1.3751                 1.3963
 Frc consts  --      0.6473                 0.7022                 0.7153
 IR Inten    --     15.8042                32.8185                 2.4654

                     43                     44                     45
                      A                      A                      A
 Frequencies --    945.2807               956.4823               969.0655
 Red. masses --      1.4223                 1.3894                 1.8140
 Frc consts  --      0.7488                 0.7489                 1.0037
 IR Inten    --     25.1730                 2.2697                 0.5632

                     46                     47                     48
                      A                      A                      A
 Frequencies --    972.0465               985.4478               995.1028
 Red. masses --      1.4253                 1.2545                 1.2421
 Frc consts  --      0.7935                 0.7178                 0.7247
 IR Inten    --      0.7035                 0.3619                 0.6122

                     49                     50                     51
                      A                      A                      A
 Frequencies --   1021.9577              1028.0749              1031.0936
 Red. masses --      5.9938                 1.2618                 2.0672
 Frc consts  --      3.6882                 0.7857                 1.2949
 IR Inten    --      0.6154                 5.7574                10.4685

                     52                     53                     54
                      A                      A                      A
 Frequencies --   1031.8788              1061.2177              1068.4716
 Red. masses --      2.2229                 1.5347                 2.0754
 Frc consts  --      1.3945                 1.0183                 1.3960
 IR Inten    --      0.3957                 5.5798                 0.7807

                     55                     56                     57
                      A                      A                      A
 Frequencies --   1082.0263              1083.8379              1113.3472
 Red. masses --      2.1715                 1.4955                 1.6284
 Frc consts  --      1.4979                 1.0351                 1.1892
 IR Inten    --      3.1202                 1.2456                 2.5318

                     58                     59                     60
                      A                      A                      A
 Frequencies --   1128.5912              1160.8439              1193.5888
 Red. masses --      1.9281                 1.6632                 1.0946
 Frc consts  --      1.4470                 1.3205                 0.9188
 IR Inten    --      2.3241                 0.9074                 0.0382

                     61                     62                     63
                      A                      A                      A
 Frequencies --   1197.2909              1218.9282              1276.2960
 Red. masses --      1.0910                 1.1370                 2.0141
 Frc consts  --      0.9215                 0.9954                 1.9330
 IR Inten    --      0.1650                 0.8222                 0.3378

                     64                     65                     66
                      A                      A                      A
 Frequencies --   1300.9281              1314.2603              1335.5969
 Red. masses --      2.6818                 2.4909                 3.5755
 Frc consts  --      2.6742                 2.5350                 3.7578
 IR Inten    --      1.6217                 1.4020                 0.1322

                     67                     68                     69
                      A                      A                      A
 Frequencies --   1346.5176              1353.1635              1358.1652
 Red. masses --      3.7229                 1.3589                 3.1546
 Frc consts  --      3.9770                 1.4661                 3.4284
 IR Inten    --      0.1365                 6.6997                 9.8710

                     70                     71                     72
                      A                      A                      A
 Frequencies --   1370.6439              1409.0315              1438.0646
 Red. masses --      1.7068                 1.4356                 1.2460
 Frc consts  --      1.8892                 1.6792                 1.5182
 IR Inten    --      0.4058                 4.0656                 3.4684

                     73                     74                     75
                      A                      A                      A
 Frequencies --   1461.0776              1479.7186              1491.1723
 Red. masses --      1.3663                 2.0663                 1.3877
 Frc consts  --      1.7185                 2.6657                 1.8180
 IR Inten    --      1.7225                 4.7349                 5.6923

                     76                     77                     78
                      A                      A                      A
 Frequencies --   1499.9530              1519.6189              1529.4720
 Red. masses --      2.1706                 1.0469                 2.4264
 Frc consts  --      2.8773                 1.4243                 3.3442
 IR Inten    --      3.3445                 6.5501                18.3243

                     79                     80                     81
                      A                      A                      A
 Frequencies --   1536.0591              1553.5074              1621.0737
 Red. masses --      1.0605                 2.5037                 5.5599
 Frc consts  --      1.4743                 3.5601                 8.6084
 IR Inten    --     12.4404                 2.6131                 1.0263

                     82                     83                     84
                      A                      A                      A
 Frequencies --   1640.1977              1644.1952              1658.5034
 Red. masses --      5.4355                 4.8844                 5.5942
 Frc consts  --      8.6156                 7.7797                 9.0660
 IR Inten    --      0.9268                 0.4229                 0.6103

                     85                     86                     87
                      A                      A                      A
 Frequencies --   1666.0937              1686.6901              1690.7903
 Red. masses --      5.5580                 4.3231                 4.0970
 Frc consts  --      9.0902                 7.2464                 6.9007
 IR Inten    --      3.8863                 0.3293                15.4375

                     88                     89                     90
                      A                      A                      A
 Frequencies --   3047.7379              3105.5878              3129.6954
 Red. masses --      1.0375                 1.1000                 1.1015
 Frc consts  --      5.6778                 6.2505                 6.3566
 IR Inten    --     17.9639                15.7544                26.3543

                     91                     92                     93
                      A                      A                      A
 Frequencies --   3162.9827              3169.3937              3175.5098
 Red. masses --      1.0790                 1.0670                 1.0584
 Frc consts  --      6.3602                 6.3149                 6.2883
 IR Inten    --      6.2644                 8.7720                 4.1705

                     94                     95                     96
                      A                      A                      A
 Frequencies --   3179.5497              3183.3108              3186.9744
 Red. masses --      1.0847                 1.0850                 1.0877
 Frc consts  --      6.4607                 6.4778                 6.5091
 IR Inten    --      2.8884                 0.2683                 5.6181

                     97                     98                     99
                      A                      A                      A
 Frequencies --   3193.2248              3197.0218              3202.9031
 Red. masses --      1.0888                 1.0919                 1.0929
 Frc consts  --      6.5414                 6.5752                 6.6056
 IR Inten    --     14.3246                18.7030                23.5665

                    100                    101                    102
                      A                      A                      A
 Frequencies --   3206.6220              3211.6615              3213.9055
 Red. masses --      1.0949                 1.0975                 1.0961
 Frc consts  --      6.6329                 6.6700                 6.6707
 IR Inten    --     33.6408                31.5294                 8.7348

                    103                    104                    105
                      A                      A                      A
 Frequencies --   3242.2595              3247.9422              3262.5265
 Red. masses --      1.0938                 1.1164                 1.1100
 Frc consts  --      6.7744                 6.9390                 6.9614
 IR Inten    --      1.6803                15.0329                24.3926

 - Thermochemistry -
 -------------------
 Temperature   298.150 Kelvin.  Pressure   1.00000 Atm.
 Atom     1 has atomic number  6 and mass  12.00000

 Molecular mass:   246.14085 amu.
 Principal axes and moments of inertia in atomic units:
                           1         2         3
     Eigenvalues --  4372.490644818.894147190.87693
           X            0.99701   0.07721   0.00100
           Y           -0.07718   0.99686  -0.01761
           Z           -0.00235   0.01748   0.99984
 This molecule is an asymmetric top.
 Rotational symmetry number  1.
 Warning -- assumption of classical behavior for rotation
           may cause significant error
 Rotational temperatures (Kelvin)      0.01981     0.01797     0.01204
 Rotational constants (GHZ):           0.41275     0.37451     0.25098
 Zero-point vibrational energy     816204.9 (Joules/Mol)
                                  195.07765 (Kcal/Mol)
 Warning -- explicit consideration of  25 degrees of freedom as
           vibrations may cause significant error
 Vibrational temperatures:     43.22    55.26    73.44    99.35   121.52
          (Kelvin)            135.12   181.15   199.04   282.44   323.11
                              344.38   352.04   443.51   463.28   466.22
                              533.60   561.71   604.29   658.89   680.09
                              711.90   747.46   796.23   808.21   835.43
                              910.55   916.55   978.28  1022.53  1031.79
                             1064.90  1091.71  1112.91  1118.43  1137.58
                             1143.77  1234.82  1242.90  1285.62  1309.49
                             1339.43  1341.56  1360.05  1376.16  1394.27
                             1398.56  1417.84  1431.73  1470.37  1479.17
                             1483.51  1484.64  1526.86  1537.29  1556.79
                             1559.40  1601.86  1623.79  1670.20  1717.31
                             1722.63  1753.77  1836.31  1871.75  1890.93
                             1921.63  1937.34  1946.90  1954.10  1972.05
                             2027.28  2069.05  2102.16  2128.98  2145.46
                             2158.10  2186.39  2200.57  2210.05  2235.15
                             2332.36  2359.88  2365.63  2386.22  2397.14
                             2426.77  2432.67  4385.02  4468.25  4502.93
                             4550.83  4560.05  4568.85  4574.66  4580.07
                             4585.35  4594.34  4599.80  4608.26  4613.61
                             4620.86  4624.09  4664.89  4673.06  4694.05

 Zero-point correction=                           0.310876 (Hartree/Particle)
 Thermal correction to Energy=                    0.327866
 Thermal correction to Enthalpy=                  0.328810
 Thermal correction to Gibbs Free Energy=         0.265215
 Sum of electronic and zero-point Energies=           -734.586101
 Sum of electronic and thermal Energies=              -734.569111
 Sum of electronic and thermal Enthalpies=            -734.568167
 Sum of electronic and thermal Free Energies=         -734.631763

                     E (Thermal)             CV                S
                      KCal/Mol        Cal/Mol-Kelvin    Cal/Mol-Kelvin
 Total                  205.739             66.819            133.848
 Electronic               0.000              0.000              0.000
 Translational            0.889              2.981             42.403
 Rotational               0.889              2.981             33.382
 Vibrational            203.962             60.858             58.063
 Vibration     1          0.594              1.984              5.827
 Vibration     2          0.594              1.982              5.340
 Vibration     3          0.595              1.977              4.776
 Vibration     4          0.598              1.969              4.180
 Vibration     5          0.601              1.960              3.785
 Vibration     6          0.603              1.954              3.577
 Vibration     7          0.611              1.927              3.008
 Vibration     8          0.614              1.915              2.827
 Vibration     9          0.636              1.845              2.167
 Vibration    10          0.649              1.804              1.922
 Vibration    11          0.657              1.780              1.808
 Vibration    12          0.660              1.772              1.769
 Vibration    13          0.698              1.658              1.372
 Vibration    14          0.707              1.631              1.300
 Vibration    15          0.709              1.627              1.290
 Vibration    16          0.743              1.532              1.076
 Vibration    17          0.758              1.491              0.999
 Vibration    18          0.783              1.427              0.892
 Vibration    19          0.816              1.343              0.772
 Vibration    20          0.830              1.311              0.730
 Vibration    21          0.850              1.262              0.671
 Vibration    22          0.874              1.207              0.611
 Vibration    23          0.909              1.132              0.537
 Vibration    24          0.917              1.114              0.520
 Vibration    25          0.937              1.073              0.484

 Optimization completed.
    -- Stationary point found.
 Normal termination of Gaussian 16 at Sun Dec 13 20:39:59 2020.

 ----------------------------------------------------------------------
 # B3LYP/6-311++G(d,p) empiricaldispersion=gd3bj scf=xqc pop=npa geom=c
 heck
 ----------------------------------------------------------------------

 ---------------------------------------
 CID_145272467_JID_9977_Energie_neutraal
 ---------------------------------------
 Structure from the checkpoint file:  "JID_9977.chk"
 Charge =  0 Multiplicity = 1

 SCF Done:  E(RB3LYP) =  -735.084441730     A.U. after   16 cycles
 Normal termination of Gaussian 16 at Sun Dec 13 20:49:00 2020.

 ----------------------------------------------------------------------
 # B3LYP/6-311++G(d,p) empiricaldispersion=gd3bj scf=xqc pop=npa geom=c
 heck
 ----------------------------------------------------------------------

 -------------------------------------
 CID_145272467_JID_9977_Energie_kation
 -------------------------------------
 Structure from the checkpoint file:  "JID_9977.chk"
 Charge =  1 Multiplicity = 2

 SCF Done:  E(UB3LYP) =  -734.818042867     A.U. after   22 cycles
 Normal termination of Gaussian 16 at Sun Dec 13 21:06:22 2020.
 Gaussian 16:  ES64L-G16RevA.03 25-Dec-2016

 ----------------------------------------------------------------------
 # B3LYP/6-311++G(d,p) empiricaldispersion=gd3bj scf=xqc pop=npa geom=c
 heck
 ----------------------------------------------------------------------

 ------------------------------------
 CID_145272467_JID_9977_Energie_anion
 ------------------------------------
 Structure from the checkpoint file:  "JID_9977.chk"
 Charge = -1 Multiplicity = 2

                         Standard orientation:
 ---------------------------------------------------------------------
 Center     Atomic      Atomic             Coordinates (Angstroms)
 Number     Number       Type             X           Y           Z
 ---------------------------------------------------------------------
      1          6           0       -3.185228   -2.346783    0.011426
      2          6           0       -2.447452   -1.521045   -1.015476
      3          6           0       -3.110591   -1.056981   -2.093712
      4          6           0       -1.034716   -1.168653   -0.886421
      5          6           0       -0.090957   -1.445113    0.053340
      6          6           0       -0.264827   -2.296582    1.229981
      7          6           0        0.605847   -2.388311    2.249673
      8          6           0        1.253751   -0.811835   -0.134700
      9          6           0        2.360430   -1.637258   -0.379286
     10          6           0        3.619634   -1.104993   -0.642330
     11          6           0        3.791638    0.279586   -0.658550
     12          6           0        2.705608    1.111342   -0.402756
     13          6           0        1.430178    0.589734   -0.132011
     14          6           0        0.319008    1.533117    0.160895
     15          6           0        0.090375    2.634704   -0.675438
     16          6           0       -0.935494    3.539598   -0.402362
     17          6           0       -1.747864    3.358878    0.716462
     18          6           0       -1.525409    2.268040    1.560167
     19          6           0       -0.502814    1.364136    1.285861
     20          1           0       -4.246876   -2.412693   -0.243049
     21          1           0       -3.102943   -1.907942    1.011991
     22          1           0       -2.793781   -3.369465    0.067145
     23          1           0       -2.616275   -0.453286   -2.849640
     24          1           0       -4.165660   -1.263658   -2.246611
     25          1           0       -0.695575   -0.521168   -1.692436
     26          1           0       -1.167723   -2.891271    1.282712
     27          1           0        0.404997   -3.039521    3.094966
     28          1           0        1.533168   -1.825077    2.271688
     29          1           0        2.215200   -2.713484   -0.376284
     30          1           0        4.458965   -1.766294   -0.838219
     31          1           0        4.769079    0.709877   -0.857890
     32          1           0        2.841510    2.188806   -0.383963
     33          1           0        0.711029    2.767816   -1.557278
     34          1           0       -1.102326    4.382109   -1.068004
     35          1           0       -2.548391    4.061425    0.930602
     36          1           0       -2.149236    2.123214    2.438051
     37          1           0       -0.331859    0.521144    1.947632
 ---------------------------------------------------------------------

 SCF Done:  E(UB3LYP) =  -735.090796089     A.U. after   29 cycles

 The electronic state is 2-A.
 Alpha  occ. eigenvalues --  -10.07121 -10.07022 -10.06852 -10.06563 -10.06407
 Alpha  occ. eigenvalues --  -10.06048 -10.05943 -10.05842 -10.05686 -10.05632
 Alpha  occ. eigenvalues --  -10.05354 -10.05002 -10.03771 -10.03006 -10.02361
 Alpha  occ. eigenvalues --  -10.01594 -10.00651 -10.00290  -9.99893  -0.75707
 Alpha  occ. eigenvalues --   -0.73532  -0.68221  -0.66400  -0.65132  -0.63797
 Alpha  occ. eigenvalues --   -0.61620  -0.60782  -0.57629  -0.54901  -0.51275
 Alpha  occ. eigenvalues --   -0.50335  -0.48267  -0.46966  -0.45646  -0.42394
 Alpha  occ. eigenvalues --   -0.40726  -0.38539  -0.37067  -0.35331  -0.35050
 Alpha  occ. eigenvalues --   -0.33340  -0.32898  -0.32367  -0.31582  -0.31327
 Alpha  occ. eigenvalues --   -0.30680  -0.29109  -0.28866  -0.27394  -0.26208
 Alpha  occ. eigenvalues --   -0.26018  -0.24961  -0.24269  -0.23889  -0.23513
 Alpha  occ. eigenvalues --   -0.22677  -0.21760  -0.21088  -0.18260  -0.17973
 Alpha  occ. eigenvalues --   -0.16049  -0.14682  -0.14001  -0.13440  -0.11830
 Alpha  occ. eigenvalues --   -0.06912   0.04569
 Alpha virt. eigenvalues --    0.07502   0.07782   0.08044   0.08894   0.09355
 Alpha virt. eigenvalues --    0.09464   0.09891   0.10019   0.10183   0.11086
 Alpha virt. eigenvalues --    0.11522   0.11718   0.11875   0.12212   0.13044

  Beta  occ. eigenvalues --  -10.07117 -10.07027 -10.06841 -10.06547 -10.06384
  Beta  occ. eigenvalues --  -10.05990 -10.05944 -10.05858 -10.05649 -10.05581
  Beta  occ. eigenvalues --  -10.05316 -10.04999 -10.03770 -10.03036 -10.02331
  Beta  occ. eigenvalues --  -10.01443 -10.00389  -9.99943  -9.99491  -0.75640
  Beta  occ. eigenvalues --   -0.73455  -0.67825  -0.66306  -0.64866  -0.63759
  Beta  occ. eigenvalues --   -0.61462  -0.60644  -0.57267  -0.54475  -0.51184
  Beta  occ. eigenvalues --   -0.50245  -0.48008  -0.46788  -0.45071  -0.42259
  Beta  occ. eigenvalues --   -0.40545  -0.38379  -0.36913  -0.35273  -0.34995
  Beta  occ. eigenvalues --   -0.33233  -0.32801  -0.32253  -0.31486  -0.31253
  Beta  occ. eigenvalues --   -0.30658  -0.29011  -0.28783  -0.27199  -0.26121
  Beta  occ. eigenvalues --   -0.25956  -0.24826  -0.24085  -0.23769  -0.23456
  Beta  occ. eigenvalues --   -0.22567  -0.21511  -0.20965  -0.18089  -0.16816
  Beta  occ. eigenvalues --   -0.15815  -0.14552  -0.13231  -0.12496  -0.11542
  Beta  occ. eigenvalues --   -0.04862
  Beta virt. eigenvalues --    0.07467   0.07938   0.08037   0.08848   0.09238
  Beta virt. eigenvalues --    0.09456   0.09674   0.09982   0.10223   0.10629
  Beta virt. eigenvalues --    0.11032   0.11476   0.11679   0.11920   0.12389

 Mulliken charges and spin densities:
               1          2
     1  C   -0.759261   0.026297
     2  C    0.821991  -0.097901
     3  C   -0.953517   0.411713
     4  C   -0.745061   0.250722
     5  C    0.872077   0.108890
     6  C   -0.299278  -0.041732
     7  C   -0.697161   0.292555
     8  C    0.329156  -0.004064
     9  C   -0.246036   0.028965
    10  C   -0.425074  -0.004605
    11  C   -0.416038   0.048482
    12  C   -0.364960  -0.030071
    13  C    0.408103   0.041762
    14  C    1.296302  -0.012076
    15  C   -0.391313   0.010889
    16  C   -0.436543   0.001052
    17  C   -0.294368   0.008607
    18  C   -0.421045   0.009912
    19  C   -0.614748  -0.000425
    20  H    0.119324  -0.001642
    21  H    0.144601  -0.001519
    22  H    0.132337   0.000820
    23  H    0.100143  -0.014882
    24  H    0.083268  -0.022301
    25  H    0.158498  -0.022102
    26  H    0.091866   0.001035
    27  H    0.095775  -0.013238
    28  H    0.097369  -0.012676
    29  H    0.163189   0.009571
    30  H    0.119920   0.012512
    31  H    0.123561  -0.004409
    32  H    0.139529   0.001554
    33  H    0.157244  -0.000130
    34  H    0.138017   0.000519
    35  H    0.122148   0.000731
    36  H    0.153884   0.000177
    37  H    0.196100   0.017007
 Sum of Mulliken charges =  -1.00000   1.00000

 Dipole moment (field-independent basis, Debye):
    X=              1.8607    Y=              3.9166    Z=              0.7097  Tot=              4.3938
 Quadrupole moment (field-independent basis, Debye-Ang):
   XX=           -144.1140   YY=           -138.6784   ZZ=           -136.2476
   XY=             -2.8132   XZ=            -11.3630   YZ=             -2.4462

 Summary of Natural Population Analysis:

                                       Natural Population
                Natural  -----------------------------------------------
    Atom  No    Charge         Core      Valence    Rydberg      Total
 -----------------------------------------------------------------------
      C    1   -0.29279      0.99963     2.28884    0.00431     3.29279
      C    2   -0.04331      0.99951     2.03569    0.00811     3.04331
      C    3   -0.10318      0.99954     2.09603    0.00760     3.10318
      C    4   -0.01392      0.99946     2.00448    0.00998     3.01392
      C    5   -0.03750      0.99946     2.02584    0.01219     3.03750
      C    6   -0.10190      0.99954     2.09387    0.00849     3.10190
      C    7   -0.16162      0.99960     2.15429    0.00773     3.16162
      C    8    0.01116      0.99946     1.97705    0.01232     2.98884
      C    9   -0.09021      0.99952     2.08252    0.00817     3.09021
      C   10   -0.10515      0.99957     2.09673    0.00885     3.10515
      C   11   -0.10311      0.99957     2.09446    0.00908     3.10311
      C   12   -0.10233      0.99953     2.09504    0.00777     3.10233
      C   13   -0.01975      0.99944     2.00874    0.01157     3.01975
      C   14   -0.01270      0.99949     2.00165    0.01156     3.01270
      C   15   -0.09624      0.99952     2.08917    0.00755     3.09624
      C   16   -0.10668      0.99957     2.09834    0.00877     3.10668
      C   17   -0.10849      0.99957     2.09991    0.00900     3.10849
      C   18   -0.09935      0.99957     2.09155    0.00823     3.09935
      C   19   -0.08698      0.99952     2.07690    0.01056     3.08698
      H   20    0.09366      0.00000     0.40533    0.00101     0.40634
      H   21    0.09926      0.00000     0.39954    0.00120     0.40074
      H   22    0.09513      0.00000     0.40366    0.00121     0.40487
      H   23    0.08217      0.00000     0.41689    0.00094     0.41783
      H   24    0.07629      0.00000     0.42270    0.00101     0.42371
      H   25    0.08636      0.00000     0.41233    0.00131     0.41364
      H   26    0.09145      0.00000     0.40699    0.00156     0.40855
      H   27    0.08144      0.00000     0.41751    0.00105     0.41856
      H   28    0.08663      0.00000     0.41234    0.00103     0.41337
      H   29    0.10334      0.00000     0.39549    0.00117     0.39666
      H   30    0.09301      0.00000     0.40601    0.00098     0.40699
      H   31    0.09229      0.00000     0.40674    0.00097     0.40771
      H   32    0.09619      0.00000     0.40251    0.00129     0.40381
      H   33    0.09860      0.00000     0.40016    0.00124     0.40140
      H   34    0.09454      0.00000     0.40451    0.00095     0.40546
      H   35    0.09412      0.00000     0.40491    0.00097     0.40588
      H   36    0.09644      0.00000     0.40270    0.00086     0.40356
      H   37    0.11311      0.00000     0.38559    0.00130     0.38689
 =======================================================================
   * Total *   -0.00000     18.99109    46.81703    0.19188    66.00000

 Normal termination of Gaussian 16 at Sun Dec 13 21:29:40 2020.
