 Gaussian 16, Revision A.03,

 -----------------------------------------------------------
 # opt freq B3LYP/6-31G(d) empiricaldispersion=gd3bj scf=xqc
 -----------------------------------------------------------

 -------------------------------
 CID_114809645_JID_2408_neutraal
 -------------------------------
 Symbolic Z-matrix:
 Charge =  0 Multiplicity = 1

 SCF Done:  E(RB3LYP) =  -970.342675176     A.U. after   14 cycles
 SCF Done:  E(RB3LYP) =  -970.351290899     A.U. after   12 cycles
 SCF Done:  E(RB3LYP) =  -970.352114658     A.U. after   12 cycles
 SCF Done:  E(RB3LYP) =  -970.352997429     A.U. after   12 cycles
 SCF Done:  E(RB3LYP) =  -970.353934435     A.U. after   11 cycles
 SCF Done:  E(RB3LYP) =  -970.355944734     A.U. after   14 cycles
 SCF Done:  E(RB3LYP) =  -970.356653299     A.U. after   13 cycles
 SCF Done:  E(RB3LYP) =  -970.356878395     A.U. after   11 cycles
 SCF Done:  E(RB3LYP) =  -970.357051403     A.U. after   11 cycles
 SCF Done:  E(RB3LYP) =  -970.357093034     A.U. after   11 cycles
 SCF Done:  E(RB3LYP) =  -970.358130879     A.U. after   10 cycles
 SCF Done:  E(RB3LYP) =  -970.358145354     A.U. after   10 cycles
 SCF Done:  E(RB3LYP) =  -970.358147838     A.U. after    9 cycles
 SCF Done:  E(RB3LYP) =  -970.358148628     A.U. after    8 cycles
 SCF Done:  E(RB3LYP) =  -970.358148962     A.U. after    8 cycles
 SCF Done:  E(RB3LYP) =  -970.358149032     A.U. after    7 cycles
 Optimization completed.
    -- Stationary point found.
 Normal termination of Gaussian 16 at Wed Dec  9 17:28:24 2020.

 --------------------------------------------------------------------
 #N Geom=AllCheck Guess=TCheck SCRF=Check GenChk RB3LYP/6-31G(d) Freq
 --------------------------------------------------------------------

 Structure from the checkpoint file:  "JID_2408.chk"
 -------------------------------
 CID_114809645_JID_2408_neutraal
 -------------------------------
 Charge =  0 Multiplicity = 1

 SCF Done:  E(RB3LYP) =  -970.358149032     A.U. after    1 cycles

  Exact polarizability: 118.423  -0.681  90.410   3.346  -1.721  88.658
 Approx polarizability: 139.276   1.074 136.936   0.316  -4.545 143.134

                      1                      2                      3
                      A                      A                      A
 Frequencies --     28.2695                40.7404                53.2741
 Red. masses --      4.4896                 3.0076                 3.7895
 Frc consts  --      0.0021                 0.0029                 0.0063
 IR Inten    --      0.6588                 1.6375                 2.4185

                      4                      5                      6
                      A                      A                      A
 Frequencies --     68.7786               109.2309               135.8431
 Red. masses --      4.1173                 2.8110                 3.8735
 Frc consts  --      0.0115                 0.0198                 0.0421
 IR Inten    --      1.7693                 1.9459                 3.5161

                      7                      8                      9
                      A                      A                      A
 Frequencies --    173.3774               219.9505               244.6219
 Red. masses --      1.3945                 2.8205                 3.5212
 Frc consts  --      0.0247                 0.0804                 0.1241
 IR Inten    --      1.4552                 1.3109                 9.1818

                     10                     11                     12
                      A                      A                      A
 Frequencies --    276.4042               285.1122               331.5983
 Red. masses --      3.2670                 1.1791                 3.6343
 Frc consts  --      0.1471                 0.0565                 0.2355
 IR Inten    --      5.3934                84.9410                 3.4286

                     13                     14                     15
                      A                      A                      A
 Frequencies --    386.5471               402.9805               428.1967
 Red. masses --      3.6508                 4.3399                 2.8181
 Frc consts  --      0.3214                 0.4152                 0.3044
 IR Inten    --     17.6483                 5.2346                13.6309

                     16                     17                     18
                      A                      A                      A
 Frequencies --    436.8045               476.5545               520.9029
 Red. masses --      1.6487                 2.7281                 4.4015
 Frc consts  --      0.1853                 0.3650                 0.7037
 IR Inten    --      4.4751                34.8055                50.4196

                     19                     20                     21
                      A                      A                      A
 Frequencies --    539.5576               594.3742               663.3417
 Red. masses --      3.7000                 2.4975                 3.2356
 Frc consts  --      0.6346                 0.5199                 0.8389
 IR Inten    --     25.6963                71.6288               112.1535

                     22                     23                     24
                      A                      A                      A
 Frequencies --    699.6549               793.4838               828.8798
 Red. masses --      3.2326                 1.5891                 1.9937
 Frc consts  --      0.9323                 0.5895                 0.8070
 IR Inten    --      7.8750                12.0414                19.7748

                     25                     26                     27
                      A                      A                      A
 Frequencies --    836.1354               870.0265               894.7962
 Red. masses --      2.0245                 2.2148                 3.2804
 Frc consts  --      0.8339                 0.9877                 1.5475
 IR Inten    --     34.5164                96.9468                92.6155

                     28                     29                     30
                      A                      A                      A
 Frequencies --    942.9966               955.1599               985.4015
 Red. masses --      1.6886                 1.7989                 2.2267
 Frc consts  --      0.8847                 0.9669                 1.2739
 IR Inten    --     25.8021                55.0210                29.9904

                     31                     32                     33
                      A                      A                      A
 Frequencies --   1031.2392              1068.8286              1080.0802
 Red. masses --      2.4206                 3.5373                 2.7946
 Frc consts  --      1.5167                 2.3809                 1.9208
 IR Inten    --      2.3026                95.8171                49.7787

                     34                     35                     36
                      A                      A                      A
 Frequencies --   1100.9291              1124.7487              1132.1882
 Red. masses --      1.6393                 6.7481                 2.0845
 Frc consts  --      1.1707                 5.0297                 1.5743
 IR Inten    --     17.7695               109.8213                11.4312

                     37                     38                     39
                      A                      A                      A
 Frequencies --   1144.4784              1160.8194              1166.5900
 Red. masses --      2.1948                 1.3581                 1.6180
 Frc consts  --      1.6938                 1.0782                 1.2974
 IR Inten    --    122.9412                 3.8657                14.4390

                     40                     41                     42
                      A                      A                      A
 Frequencies --   1208.4533              1235.2276              1274.1961
 Red. masses --      1.4323                 1.5271                 1.2994
 Frc consts  --      1.2324                 1.3728                 1.2429
 IR Inten    --     16.9053                 6.2352                 0.5742

                     43                     44                     45
                      A                      A                      A
 Frequencies --   1286.0935              1290.6352              1296.8663
 Red. masses --      1.4663                 1.2870                 1.7576
 Frc consts  --      1.4289                 1.2631                 1.7416
 IR Inten    --      7.8055                 0.4377                47.8487

                     46                     47                     48
                      A                      A                      A
 Frequencies --   1318.5000              1339.3030              1377.2108
 Red. masses --      3.3589                 1.4934                 1.2794
 Frc consts  --      3.4404                 1.5783                 1.4298
 IR Inten    --    125.3690                11.9026                 7.6997

                     49                     50                     51
                      A                      A                      A
 Frequencies --   1406.2730              1436.8890              1449.9872
 Red. masses --      1.3996                 1.2930                 1.2307
 Frc consts  --      1.6308                 1.5729                 1.5245
 IR Inten    --     15.7262                31.3941                71.4484

                     52                     53                     54
                      A                      A                      A
 Frequencies --   1459.8782              1472.9227              1495.4605
 Red. masses --      1.3671                 1.1519                 1.0876
 Frc consts  --      1.7166                 1.4724                 1.4330
 IR Inten    --     69.7623                 1.7944                 6.3315

                     55                     56                     57
                      A                      A                      A
 Frequencies --   1515.8840              1521.9383              1529.5696
 Red. masses --      1.1112                 1.0519                 1.0862
 Frc consts  --      1.5045                 1.4355                 1.4973
 IR Inten    --      3.0442                 6.4682                 5.8441

                     58                     59                     60
                      A                      A                      A
 Frequencies --   1544.7415              3022.7477              3047.1957
 Red. masses --      1.0441                 1.0850                 1.0442
 Frc consts  --      1.4679                 5.8411                 5.7126
 IR Inten    --     10.0311                26.9536                51.2117

                     61                     62                     63
                      A                      A                      A
 Frequencies --   3054.5395              3063.7948              3081.7021
 Red. masses --      1.0674                 1.0604                 1.0635
 Frc consts  --      5.8675                 5.8645                 5.9508
 IR Inten    --     30.4847                39.3443                15.2877

                     64                     65                     66
                      A                      A                      A
 Frequencies --   3113.7142              3120.4322              3123.6067
 Red. masses --      1.0933                 1.0992                 1.1016
 Frc consts  --      6.2453                 6.3060                 6.3324
 IR Inten    --     33.4763                 3.7418                37.8250

                     67                     68                     69
                      A                      A                      A
 Frequencies --   3130.3780              3146.7819              3177.7315
 Red. masses --      1.0945                 1.1032                 1.1025
 Frc consts  --      6.3193                 6.4362                 6.5596
 IR Inten    --     18.2946                11.2870                 4.9640

                     70                     71                     72
                      A                      A                      A
 Frequencies --   3521.4494              3551.4038              3727.4247
 Red. masses --      1.0749                 1.0753                 1.0659
 Frc consts  --      7.8537                 7.9904                 8.7254
 IR Inten    --     16.9272                26.8978                 5.0654

 - Thermochemistry -
 -------------------
 Temperature   298.150 Kelvin.  Pressure   1.00000 Atm.
 Atom     1 has atomic number  6 and mass  12.00000

 Molecular mass:   194.07251 amu.
 Principal axes and moments of inertia in atomic units:
                           1         2         3
     Eigenvalues --   910.981914908.293945018.19869
           X            0.99993  -0.00632   0.00988
           Y            0.00660   0.99958  -0.02835
           Z           -0.00970   0.02841   0.99955
 This molecule is an asymmetric top.
 Rotational symmetry number  1.
 Warning -- assumption of classical behavior for rotation
           may cause significant error
 Rotational temperatures (Kelvin)      0.09508     0.01765     0.01726
 Rotational constants (GHZ):           1.98109     0.36769     0.35964
 Zero-point vibrational energy     571670.4 (Joules/Mol)
                                  136.63251 (Kcal/Mol)
 Warning -- explicit consideration of  20 degrees of freedom as
           vibrations may cause significant error
 Vibrational temperatures:     40.67    58.62    76.65    98.96   157.16
          (Kelvin)            195.45   249.45   316.46   351.96   397.68
                              410.21   477.10   556.16   579.80   616.08
                              628.46   685.66   749.46   776.30   855.17
                              954.40  1006.65  1141.65  1192.57  1203.01
                             1251.77  1287.41  1356.76  1374.26  1417.77
                             1483.72  1537.81  1553.99  1583.99  1618.26
                             1628.97  1646.65  1670.16  1678.46  1738.69
                             1777.22  1833.28  1850.40  1856.94  1865.90
                             1897.03  1926.96  1981.50  2023.31  2067.36
                             2086.21  2100.44  2119.21  2151.63  2181.02
                             2189.73  2200.71  2222.54  4349.06  4384.23
                             4394.80  4408.12  4433.88  4479.94  4489.61
                             4494.17  4503.92  4527.52  4572.05  5066.58
                             5109.68  5362.93

 Zero-point correction=                           0.217738 (Hartree/Particle)
 Thermal correction to Energy=                    0.231294
 Thermal correction to Enthalpy=                  0.232238
 Thermal correction to Gibbs Free Energy=         0.175875
 Sum of electronic and zero-point Energies=           -970.140411
 Sum of electronic and thermal Energies=              -970.126855
 Sum of electronic and thermal Enthalpies=            -970.125911
 Sum of electronic and thermal Free Energies=         -970.182274

                     E (Thermal)             CV                S
                      KCal/Mol        Cal/Mol-Kelvin    Cal/Mol-Kelvin
 Total                  145.139             49.232            118.626
 Electronic               0.000              0.000              0.000
 Translational            0.889              2.981             41.694
 Rotational               0.889              2.981             31.484
 Vibrational            143.362             43.271             45.447
 Vibration     1          0.593              1.984              5.947
 Vibration     2          0.594              1.981              5.223
 Vibration     3          0.596              1.976              4.692
 Vibration     4          0.598              1.969              4.188
 Vibration     5          0.606              1.942              3.283
 Vibration     6          0.614              1.918              2.862
 Vibration     7          0.627              1.875              2.399
 Vibration     8          0.647              1.811              1.959
 Vibration     9          0.660              1.772              1.769
 Vibration    10          0.678              1.717              1.556
 Vibration    11          0.683              1.701              1.503
 Vibration    12          0.714              1.612              1.252
 Vibration    13          0.755              1.499              1.013
 Vibration    14          0.768              1.464              0.952
 Vibration    15          0.790              1.409              0.865
 Vibration    16          0.797              1.390              0.837
 Vibration    17          0.833              1.302              0.719
 Vibration    18          0.876              1.204              0.608
 Vibration    19          0.895              1.163              0.566
 Vibration    20          0.952              1.044              0.459

                           ! Non-Optimized Parameters !
 Normal termination of Gaussian 16 at Wed Dec  9 17:34:07 2020.

 ----------------------------------------------------------------------
 # B3LYP/6-311++G(d,p) empiricaldispersion=gd3bj scf=xqc pop=npa geom=c
 heck
 ----------------------------------------------------------------------

 ---------------------------------------
 CID_114809645_JID_2408_Energie_neutraal
 ---------------------------------------
 Structure from the checkpoint file:  "JID_2408.chk"
 Charge =  0 Multiplicity = 1

 SCF Done:  E(RB3LYP) =  -970.569582688     A.U. after   14 cycles
 Normal termination of Gaussian 16 at Wed Dec  9 17:36:26 2020.

 ----------------------------------------------------------------------
 # B3LYP/6-311++G(d,p) empiricaldispersion=gd3bj scf=xqc pop=npa geom=c
 heck
 ----------------------------------------------------------------------

 -------------------------------------
 CID_114809645_JID_2408_Energie_kation
 -------------------------------------
 Structure from the checkpoint file:  "JID_2408.chk"
 Charge =  1 Multiplicity = 2

 SCF Done:  E(UB3LYP) =  -970.233508671     A.U. after   30 cycles
 Normal termination of Gaussian 16 at Wed Dec  9 17:43:53 2020.
 Gaussian 16:  ES64L-G16RevA.03 25-Dec-2016

 ----------------------------------------------------------------------
 # B3LYP/6-311++G(d,p) empiricaldispersion=gd3bj scf=xqc pop=npa geom=c
 heck
 ----------------------------------------------------------------------

 ------------------------------------
 CID_114809645_JID_2408_Energie_anion
 ------------------------------------
 Structure from the checkpoint file:  "JID_2408.chk"
 Charge = -1 Multiplicity = 2

                         Standard orientation:
 ---------------------------------------------------------------------
 Center     Atomic      Atomic             Coordinates (Angstroms)
 Number     Number       Type             X           Y           Z
 ---------------------------------------------------------------------
      1          6           0        3.790849   -0.745849    1.059623
      2          7           0        2.774638   -0.865060    0.002985
      3         16           0        1.740196    0.457353   -0.144941
      4          8           0        1.196229    0.663046    1.199317
      5          8           0        2.332042    1.584599   -0.871910
      6          7           0        0.658582   -0.226344   -1.218541
      7          6           0       -0.403283   -1.112558   -0.706604
      8          6           0       -1.767950   -0.444173   -0.653708
      9          6           0       -1.990867    0.719181    0.356493
     10          6           0       -3.341507    0.074347    0.773796
     11          6           0       -2.908575   -1.233658    0.051129
     12          8           0       -4.502370    0.695348    0.249342
     13          1           0        3.279272   -0.585157    2.009423
     14          1           0        4.502651    0.072073    0.889487
     15          1           0        4.333237   -1.693387    1.106455
     16          1           0        3.172779   -1.057016   -0.914885
     17          1           0        0.345331    0.498087   -1.859583
     18          1           0       -0.439854   -2.002687   -1.346774
     19          1           0       -0.105335   -1.444576    0.291862
     20          1           0       -2.061481   -0.153416   -1.672360
     21          1           0       -2.060972    1.734800   -0.046824
     22          1           0       -1.245813    0.716976    1.155798
     23          1           0       -3.526539   -0.008908    1.847196
     24          1           0       -2.517437   -1.984929    0.746803
     25          1           0       -3.671397   -1.702502   -0.578326
     26          1           0       -4.359321    0.845142   -0.698704
 ---------------------------------------------------------------------

 SCF Done:  E(UB3LYP) =  -970.560878168     A.U. after   26 cycles

 The electronic state is 2-A.
 Alpha  occ. eigenvalues --  -88.98068 -19.03070 -19.02202 -19.02054 -14.24783
 Alpha  occ. eigenvalues --  -14.24651 -10.12908 -10.11365 -10.10898 -10.08412
 Alpha  occ. eigenvalues --  -10.07600 -10.06726  -8.04030  -6.00288  -6.00262
 Alpha  occ. eigenvalues --   -6.00218  -1.03247  -0.93366  -0.91476  -0.84168
 Alpha  occ. eigenvalues --   -0.82128  -0.74557  -0.64115  -0.60599  -0.57333
 Alpha  occ. eigenvalues --   -0.54426  -0.52339  -0.47303  -0.45558  -0.41814
 Alpha  occ. eigenvalues --   -0.40655  -0.39912  -0.39710  -0.37385  -0.35642
 Alpha  occ. eigenvalues --   -0.34699  -0.33639  -0.32220  -0.31090  -0.30969
 Alpha  occ. eigenvalues --   -0.29339  -0.28787  -0.25992  -0.25212  -0.24503
 Alpha  occ. eigenvalues --   -0.23437  -0.22682  -0.21381  -0.20922  -0.18317
 Alpha  occ. eigenvalues --   -0.17401  -0.16564   0.04133
 Alpha virt. eigenvalues --    0.05790   0.07735   0.07972   0.08791   0.09348
 Alpha virt. eigenvalues --    0.09971   0.10881   0.11303   0.11379   0.11773
 Alpha virt. eigenvalues --    0.12843   0.13733   0.14925   0.15366   0.16003

  Beta  occ. eigenvalues --  -88.98065 -19.03040 -19.02186 -19.02045 -14.24763
  Beta  occ. eigenvalues --  -14.24615 -10.12907 -10.11347 -10.10858 -10.08378
  Beta  occ. eigenvalues --  -10.07588 -10.06716  -8.04026  -6.00286  -6.00260
  Beta  occ. eigenvalues --   -6.00215  -1.03214  -0.93307  -0.91442  -0.84122
  Beta  occ. eigenvalues --   -0.82075  -0.74516  -0.64074  -0.60521  -0.57300
  Beta  occ. eigenvalues --   -0.54366  -0.52266  -0.47235  -0.45506  -0.41782
  Beta  occ. eigenvalues --   -0.40627  -0.39855  -0.39656  -0.37331  -0.35593
  Beta  occ. eigenvalues --   -0.34661  -0.33586  -0.32186  -0.31066  -0.30924
  Beta  occ. eigenvalues --   -0.29296  -0.28766  -0.25972  -0.25175  -0.24457
  Beta  occ. eigenvalues --   -0.23415  -0.22650  -0.21356  -0.20889  -0.18285
  Beta  occ. eigenvalues --   -0.17378  -0.16537
  Beta virt. eigenvalues --    0.06768   0.07285   0.07922   0.08682   0.09171
  Beta virt. eigenvalues --    0.10055   0.10377   0.11274   0.11643   0.11670
  Beta virt. eigenvalues --    0.11904   0.13079   0.13971   0.15000   0.15458

 Mulliken charges and spin densities:
               1          2
     1  C    0.694818  -1.037073
     2  N   -0.470316   0.142650
     3  S    0.731247  -0.565288
     4  O   -0.278671   0.015712
     5  O   -0.125459  -0.011155
     6  N   -0.528336   0.261000
     7  C    0.782565  -1.508397
     8  C   -0.573410   1.282183
     9  C    0.041700  -0.661578
    10  C   -0.270840   0.083236
    11  C    0.552700  -1.188391
    12  O   -0.212451   0.003774
    13  H    0.011739   0.166434
    14  H   -0.041144   0.190151
    15  H   -0.539204   0.705434
    16  H   -0.323944   0.633186
    17  H   -0.005629   0.322929
    18  H   -0.348633   0.549823
    19  H    0.063740   0.134610
    20  H   -0.729173   0.951541
    21  H    0.142106   0.034993
    22  H    0.162744   0.035448
    23  H    0.202880  -0.022582
    24  H    0.085982   0.024253
    25  H    0.005982   0.173141
    26  H   -0.030990   0.283967
 Sum of Mulliken charges =  -1.00000   1.00000

 Dipole moment (field-independent basis, Debye):
    X=             -1.1986    Y=              0.5389    Z=              4.1884  Tot=              4.3898
 Quadrupole moment (field-independent basis, Debye-Ang):
   XX=           -162.7889   YY=           -116.5209   ZZ=           -114.7298
   XY=             11.4164   XZ=             -4.7198   YZ=             -3.2888

 Summary of Natural Population Analysis:

                                       Natural Population
                Natural  -----------------------------------------------
    Atom  No    Charge         Core      Valence    Rydberg      Total
 -----------------------------------------------------------------------
      C    1   -0.18701      0.99965     2.17742    0.00993     3.18701
      N    2   -0.42527      0.99977     2.91196    0.01354     3.92527
      S    3    1.15905      4.99932     1.73762    0.10401     6.84095
      O    4   -0.46454      0.99990     3.45926    0.00538     4.46454
      O    5   -0.46237      0.99990     3.45713    0.00533     4.46237
      N    6   -0.43237      0.99975     2.91877    0.01384     3.93237
      C    7   -0.09038      0.99957     2.07664    0.01416     3.09038
      C    8   -0.12045      0.99960     2.10754    0.01331     3.12045
      C    9   -0.20897      0.99961     2.19984    0.00952     3.20897
      C   10    0.06588      0.99959     1.91950    0.01503     2.93412
      C   11   -0.19951      0.99962     2.19107    0.00882     3.19951
      O   12   -0.36883      0.99990     3.36271    0.00622     4.36883
      H   13    0.10478      0.00000     0.39411    0.00111     0.39522
      H   14    0.09003      0.00000     0.40870    0.00127     0.40997
      H   15    0.10342      0.00000     0.39449    0.00209     0.39658
      H   16    0.19851      0.00000     0.29498    0.00651     0.30149
      H   17    0.20146      0.00000     0.29575    0.00279     0.29854
      H   18    0.10063      0.00000     0.39779    0.00158     0.39937
      H   19    0.10346      0.00000     0.39446    0.00208     0.39654
      H   20    0.10173      0.00000     0.39136    0.00691     0.39827
      H   21    0.10249      0.00000     0.39646    0.00106     0.39751
      H   22    0.11496      0.00000     0.38381    0.00124     0.38504
      H   23    0.08239      0.00000     0.41663    0.00098     0.41761
      H   24    0.09818      0.00000     0.40076    0.00106     0.40182
      H   25    0.10369      0.00000     0.39525    0.00106     0.39631
      H   26    0.22904      0.00000     0.26742    0.00355     0.27096
 =======================================================================
   * Total *   -0.00000     15.99618    35.75144    0.25239    52.00000

 Normal termination of Gaussian 16 at Wed Dec  9 17:51:07 2020.
