 Gaussian 16, Revision A.03,

 -----------------------------------------------------------
 # opt freq B3LYP/6-31G(d) empiricaldispersion=gd3bj scf=xqc
 -----------------------------------------------------------

 ------------------------------
 CID_64515273_JID_1565_neutraal
 ------------------------------
 Symbolic Z-matrix:
 Charge =  0 Multiplicity = 1

 SCF Done:  E(RB3LYP) =  -484.400992797     A.U. after   13 cycles
 SCF Done:  E(RB3LYP) =  -484.405352925     A.U. after   11 cycles
 SCF Done:  E(RB3LYP) =  -484.405834336     A.U. after   10 cycles
 SCF Done:  E(RB3LYP) =  -484.406077474     A.U. after   10 cycles
 SCF Done:  E(RB3LYP) =  -484.406173771     A.U. after   10 cycles
 SCF Done:  E(RB3LYP) =  -484.406217617     A.U. after    9 cycles
 SCF Done:  E(RB3LYP) =  -484.406243325     A.U. after    9 cycles
 SCF Done:  E(RB3LYP) =  -484.406245807     A.U. after    9 cycles
 SCF Done:  E(RB3LYP) =  -484.406246949     A.U. after    7 cycles
 SCF Done:  E(RB3LYP) =  -484.406247573     A.U. after    7 cycles
 SCF Done:  E(RB3LYP) =  -484.406247699     A.U. after    7 cycles
 SCF Done:  E(RB3LYP) =  -484.406247721     A.U. after    6 cycles
 Optimization completed.
    -- Stationary point found.
 Normal termination of Gaussian 16 at Tue Dec  8 20:23:56 2020.

 --------------------------------------------------------------------
 #N Geom=AllCheck Guess=TCheck SCRF=Check GenChk RB3LYP/6-31G(d) Freq
 --------------------------------------------------------------------

 Structure from the checkpoint file:  "JID_1565.chk"
 ------------------------------
 CID_64515273_JID_1565_neutraal
 ------------------------------
 Charge =  0 Multiplicity = 1

 SCF Done:  E(RB3LYP) =  -484.406247721     A.U. after    1 cycles

  Exact polarizability: 116.579  -0.222  98.165  -2.057  -0.277  93.102
 Approx polarizability: 141.971   2.586 141.511  -1.950   0.469 135.041

                      1                      2                      3
                      A                      A                      A
 Frequencies --     17.6202                42.4455                59.8053
 Red. masses --      2.5934                 2.1465                 2.9232
 Frc consts  --      0.0005                 0.0023                 0.0062
 IR Inten    --      0.4487                 0.1331                 1.2120

                      4                      5                      6
                      A                      A                      A
 Frequencies --    123.0637               143.1011               212.9317
 Red. masses --      2.1737                 2.4841                 2.3213
 Frc consts  --      0.0194                 0.0300                 0.0620
 IR Inten    --      1.8502                 0.4415                 9.4941

                      7                      8                      9
                      A                      A                      A
 Frequencies --    236.1020               246.0137               267.0077
 Red. masses --      1.1280                 2.3155                 1.1379
 Frc consts  --      0.0370                 0.0826                 0.0478
 IR Inten    --     77.9043                 0.2504                 1.2904

                     10                     11                     12
                      A                      A                      A
 Frequencies --    271.3267               296.5550               310.3945
 Red. masses --      1.3396                 1.9866                 3.0556
 Frc consts  --      0.0581                 0.1029                 0.1734
 IR Inten    --      1.1171                 1.4716                 6.8040

                     13                     14                     15
                      A                      A                      A
 Frequencies --    343.8379               388.7051               422.4066
 Red. masses --      2.7355                 2.5488                 2.0129
 Frc consts  --      0.1905                 0.2269                 0.2116
 IR Inten    --      8.2121                 1.0946                 1.4301

                     16                     17                     18
                      A                      A                      A
 Frequencies --    463.9542               551.9265               582.7277
 Red. masses --      2.0818                 3.2974                 2.3528
 Frc consts  --      0.2640                 0.5918                 0.4707
 IR Inten    --      3.1288                 4.0031                17.6285

                     19                     20                     21
                      A                      A                      A
 Frequencies --    630.4450               698.0282               751.3179
 Red. masses --      3.1497                 1.7807                 1.7640
 Frc consts  --      0.7376                 0.5112                 0.5867
 IR Inten    --      5.3271               100.1566                 6.9874

                     22                     23                     24
                      A                      A                      A
 Frequencies --    811.0404               824.2988               844.5236
 Red. masses --      3.6823                 1.1221                 2.2074
 Frc consts  --      1.4271                 0.4492                 0.9276
 IR Inten    --      2.0130                 0.3648                 1.1541

                     25                     26                     27
                      A                      A                      A
 Frequencies --    876.9623               910.8467               932.3641
 Red. masses --      1.8287                 1.7052                 1.9200
 Frc consts  --      0.8286                 0.8335                 0.9834
 IR Inten    --      1.3179                 6.0808                 3.7091

                     28                     29                     30
                      A                      A                      A
 Frequencies --    937.2993               980.0994              1005.7778
 Red. masses --      1.7740                 1.6093                 2.3419
 Frc consts  --      0.9182                 0.9108                 1.3958
 IR Inten    --      6.8295                 6.9395                 5.1203

                     31                     32                     33
                      A                      A                      A
 Frequencies --   1032.5530              1040.9371              1064.3039
 Red. masses --      1.7601                 1.8848                 2.1378
 Frc consts  --      1.1056                 1.2033                 1.4268
 IR Inten    --     37.4161                17.3792                14.3866

                     34                     35                     36
                      A                      A                      A
 Frequencies --   1079.2063              1108.0259              1127.3319
 Red. masses --      1.6872                 1.9290                 1.6858
 Frc consts  --      1.1578                 1.3953                 1.2623
 IR Inten    --     14.2326                 3.2978                13.1538

                     37                     38                     39
                      A                      A                      A
 Frequencies --   1155.4820              1159.7237              1187.4026
 Red. masses --      2.1746                 1.6212                 2.9093
 Frc consts  --      1.7106                 1.2847                 2.4168
 IR Inten    --     34.2330                 6.9634                17.1469

                     40                     41                     42
                      A                      A                      A
 Frequencies --   1212.1486              1240.3437              1250.0353
 Red. masses --      2.0430                 1.4149                 1.6773
 Frc consts  --      1.7686                 1.2825                 1.5442
 IR Inten    --      3.0551                19.0472                 1.4743

                     43                     44                     45
                      A                      A                      A
 Frequencies --   1261.4383              1298.6644              1306.6036
 Red. masses --      1.6196                 1.2612                 1.3126
 Frc consts  --      1.5184                 1.2532                 1.3203
 IR Inten    --      8.5100                 2.2990                14.0336

                     46                     47                     48
                      A                      A                      A
 Frequencies --   1330.4743              1339.3843              1345.1211
 Red. masses --      1.3104                 1.2711                 1.2916
 Frc consts  --      1.3667                 1.3435                 1.3769
 IR Inten    --     14.9127                 3.5416                 9.2358

                     49                     50                     51
                      A                      A                      A
 Frequencies --   1356.5332              1387.4094              1391.1043
 Red. masses --      1.3773                 1.4641                 1.3320
 Frc consts  --      1.4933                 1.6605                 1.5187
 IR Inten    --      4.1370                 1.8773                 6.7202

                     52                     53                     54
                      A                      A                      A
 Frequencies --   1415.9181              1417.7300              1439.6329
 Red. masses --      1.8031                 1.3086                 1.2495
 Frc consts  --      2.1299                 1.5497                 1.5257
 IR Inten    --     37.1468                 5.5915                 1.1185

                     55                     56                     57
                      A                      A                      A
 Frequencies --   1442.0195              1502.4112              1507.9509
 Red. masses --      1.3328                 1.0971                 1.1599
 Frc consts  --      1.6329                 1.4591                 1.5540
 IR Inten    --     11.4631                 4.3147                13.3074

                     58                     59                     60
                      A                      A                      A
 Frequencies --   1516.4194              1519.6308              1526.0105
 Red. masses --      1.0913                 1.0819                 1.0543
 Frc consts  --      1.4786                 1.4721                 1.4465
 IR Inten    --      8.2966                 4.7804                 2.1745

                     61                     62                     63
                      A                      A                      A
 Frequencies --   1526.7598              1530.4452              1532.5731
 Red. masses --      1.0981                 1.0449                 1.0777
 Frc consts  --      1.5081                 1.4420                 1.4914
 IR Inten    --     22.6179                 7.1400                 3.8242

                     64                     65                     66
                      A                      A                      A
 Frequencies --   1539.3869              1559.6022              2961.0969
 Red. masses --      1.0908                 1.0900                 1.0728
 Frc consts  --      1.5229                 1.5622                 5.5419
 IR Inten    --      1.1809                 2.9044                73.4207

                     67                     68                     69
                      A                      A                      A
 Frequencies --   3019.7771              3032.0124              3034.0796
 Red. masses --      1.0836                 1.0630                 1.0660
 Frc consts  --      5.8221                 5.7575                 5.7816
 IR Inten    --     12.8639                22.9349                45.3941

                     70                     71                     72
                      A                      A                      A
 Frequencies --   3038.2052              3042.7343              3053.8531
 Red. masses --      1.0425                 1.0446                 1.0813
 Frc consts  --      5.6695                 5.6981                 5.9413
 IR Inten    --     35.8861                17.1353                35.6367

                     73                     74                     75
                      A                      A                      A
 Frequencies --   3056.4598              3070.7435              3094.7088
 Red. masses --      1.0646                 1.0642                 1.0981
 Frc consts  --      5.8596                 5.9126                 6.1962
 IR Inten    --     40.4073                21.2767                22.2995

                     76                     77                     78
                      A                      A                      A
 Frequencies --   3095.6568              3101.7382              3108.1911
 Red. masses --      1.0971                 1.1001                 1.0972
 Frc consts  --      6.1945                 6.2360                 6.2455
 IR Inten    --     13.5568                26.5915                80.3708

                     79                     80                     81
                      A                      A                      A
 Frequencies --   3108.5905              3110.7706              3123.3682
 Red. masses --      1.0975                 1.1025                 1.1049
 Frc consts  --      6.2484                 6.2859                 6.3508
 IR Inten    --     31.1810                29.0902                38.2708

                     82                     83                     84
                      A                      A                      A
 Frequencies --   3132.9066              3505.6028              3748.3109
 Red. masses --      1.1033                 1.0733                 1.0658
 Frc consts  --      6.3800                 7.7717                 8.8230
 IR Inten    --     29.2333                 1.6266                 3.2113

 - Thermochemistry -
 -------------------
 Temperature   298.150 Kelvin.  Pressure   1.00000 Atm.
 Atom     1 has atomic number  6 and mass  12.00000

 Molecular mass:   157.14666 amu.
 Principal axes and moments of inertia in atomic units:
                           1         2         3
     Eigenvalues --  1111.215592903.943563310.59376
           X            0.99997  -0.00259  -0.00679
           Y            0.00265   0.99995   0.00952
           Z            0.00677  -0.00953   0.99993
 This molecule is an asymmetric top.
 Rotational symmetry number  1.
 Warning -- assumption of classical behavior for rotation
           may cause significant error
 Rotational temperatures (Kelvin)      0.07795     0.02983     0.02616
 Rotational constants (GHZ):           1.62411     0.62148     0.54514
 Zero-point vibrational energy     725370.4 (Joules/Mol)
                                  173.36767 (Kcal/Mol)
 Warning -- explicit consideration of  18 degrees of freedom as
           vibrations may cause significant error
 Vibrational temperatures:     25.35    61.07    86.05   177.06   205.89
          (Kelvin)            306.36   339.70   353.96   384.16   390.38
                              426.68   446.59   494.71   559.26   607.75
                              667.53   794.10   838.42   907.07  1004.31
                             1080.98  1166.91  1185.98  1215.08  1261.75
                             1310.51  1341.46  1348.56  1410.14  1447.09
                             1485.61  1497.68  1531.30  1552.74  1594.20
                             1621.98  1662.48  1668.58  1708.41  1744.01
                             1784.58  1798.52  1814.93  1868.49  1879.91
                             1914.26  1927.08  1935.33  1951.75  1996.17
                             2001.49  2037.19  2039.80  2071.31  2074.74
                             2161.63  2169.61  2181.79  2186.41  2195.59
                             2196.67  2201.97  2205.03  2214.83  2243.92
                             4260.36  4344.79  4362.39  4365.36  4371.30
                             4377.82  4393.81  4397.56  4418.12  4452.60
                             4453.96  4462.71  4471.99  4472.57  4475.71
                             4493.83  4507.55  5043.78  5392.98

 Zero-point correction=                           0.276279 (Hartree/Particle)
 Thermal correction to Energy=                    0.289179
 Thermal correction to Enthalpy=                  0.290123
 Thermal correction to Gibbs Free Energy=         0.236015
 Sum of electronic and zero-point Energies=           -484.129969
 Sum of electronic and thermal Energies=              -484.117069
 Sum of electronic and thermal Enthalpies=            -484.116125
 Sum of electronic and thermal Free Energies=         -484.170232

                     E (Thermal)             CV                S
                      KCal/Mol        Cal/Mol-Kelvin    Cal/Mol-Kelvin
 Total                  181.462             48.322            113.879
 Electronic               0.000              0.000              0.000
 Translational            0.889              2.981             41.065
 Rotational               0.889              2.981             30.747
 Vibrational            179.685             42.361             42.067
 Vibration     1          0.593              1.986              6.886
 Vibration     2          0.595              1.980              5.142
 Vibration     3          0.597              1.973              4.464
 Vibration     4          0.610              1.930              3.052
 Vibration     5          0.616              1.910              2.762
 Vibration     6          0.644              1.821              2.018
 Vibration     7          0.655              1.785              1.832
 Vibration     8          0.660              1.769              1.759
 Vibration     9          0.672              1.734              1.615
 Vibration    10          0.675              1.726              1.588
 Vibration    11          0.690              1.680              1.436
 Vibration    12          0.699              1.654              1.360
 Vibration    13          0.723              1.588              1.194
 Vibration    14          0.757              1.494              1.005
 Vibration    15          0.785              1.422              0.884
 Vibration    16          0.821              1.330              0.755
 Vibration    17          0.907              1.135              0.540
 Vibration    18          0.940              1.069              0.480

                           ! Non-Optimized Parameters !
 Normal termination of Gaussian 16 at Tue Dec  8 20:32:13 2020.

 ----------------------------------------------------------------------
 # B3LYP/6-311++G(d,p) empiricaldispersion=gd3bj scf=xqc pop=npa geom=c
 heck
 ----------------------------------------------------------------------

 --------------------------------------
 CID_64515273_JID_1565_Energie_neutraal
 --------------------------------------
 Structure from the checkpoint file:  "JID_1565.chk"
 Charge =  0 Multiplicity = 1

 SCF Done:  E(RB3LYP) =  -484.556740312     A.U. after   13 cycles
 Normal termination of Gaussian 16 at Tue Dec  8 20:34:38 2020.

 ----------------------------------------------------------------------
 # B3LYP/6-311++G(d,p) empiricaldispersion=gd3bj scf=xqc pop=npa geom=c
 heck
 ----------------------------------------------------------------------

 ------------------------------------
 CID_64515273_JID_1565_Energie_kation
 ------------------------------------
 Structure from the checkpoint file:  "JID_1565.chk"
 Charge =  1 Multiplicity = 2

 SCF Done:  E(UB3LYP) =  -484.254039272     A.U. after   21 cycles
 Normal termination of Gaussian 16 at Tue Dec  8 20:41:07 2020.
 Gaussian 16:  ES64L-G16RevA.03 25-Dec-2016

 ----------------------------------------------------------------------
 # B3LYP/6-311++G(d,p) empiricaldispersion=gd3bj scf=xqc pop=npa geom=c
 heck
 ----------------------------------------------------------------------

 -----------------------------------
 CID_64515273_JID_1565_Energie_anion
 -----------------------------------
 Structure from the checkpoint file:  "JID_1565.chk"
 Charge = -1 Multiplicity = 2

                         Standard orientation:
 ---------------------------------------------------------------------
 Center     Atomic      Atomic             Coordinates (Angstroms)
 Number     Number       Type             X           Y           Z
 ---------------------------------------------------------------------
      1          6           0       -3.789994   -1.355268    0.104977
      2          6           0       -2.865039   -0.179490    0.405096
      3          7           0       -2.015534    0.103872   -0.747893
      4          6           0       -1.080515    1.213734   -0.616451
      5          6           0        0.331007    0.906760   -0.085913
      6          6           0        0.418168    0.117159    1.231736
      7          6           0        1.891374   -0.336380    1.310112
      8          6           0        2.386575   -0.439235   -0.171173
      9          6           0        1.184938    0.037136   -1.025629
     10          6           0        2.874492   -1.837166   -0.552099
     11          8           0        0.921604    2.208709    0.063807
     12          1           0       -4.381195   -1.157178   -0.794752
     13          1           0       -4.471042   -1.541279    0.942330
     14          1           0       -3.214304   -2.274708   -0.064289
     15          1           0       -3.465071    0.719396    0.597341
     16          1           0       -2.309312   -0.383573    1.337911
     17          1           0       -1.546187   -0.741387   -1.064236
     18          1           0       -0.950216    1.699384   -1.593192
     19          1           0       -1.529709    1.964832    0.042409
     20          1           0        0.093889    0.716314    2.087804
     21          1           0       -0.233563   -0.760553    1.167436
     22          1           0        1.996380   -1.290702    1.836696
     23          1           0        2.492785    0.390277    1.869059
     24          1           0        3.223331    0.257198   -0.317762
     25          1           0        0.602211   -0.836392   -1.350364
     26          1           0        1.479760    0.587548   -1.924695
     27          1           0        3.170205   -1.883421   -1.606811
     28          1           0        3.737048   -2.138990    0.053241
     29          1           0        2.079989   -2.578123   -0.395266
     30          1           0        1.854874    2.091070    0.297996
 ---------------------------------------------------------------------

 SCF Done:  E(UB3LYP) =  -484.542649609     A.U. after   28 cycles

 The electronic state is 2-A.
 Alpha  occ. eigenvalues --  -19.01812 -14.19675 -10.11995 -10.09458 -10.08889
 Alpha  occ. eigenvalues --  -10.06949 -10.06301 -10.05967 -10.05880 -10.05815
 Alpha  occ. eigenvalues --  -10.05203  -0.92238  -0.80570  -0.72890  -0.66227
 Alpha  occ. eigenvalues --   -0.63528  -0.61118  -0.57362  -0.53597  -0.51179
 Alpha  occ. eigenvalues --   -0.46299  -0.45237  -0.40182  -0.39041  -0.37563
 Alpha  occ. eigenvalues --   -0.35217  -0.34893  -0.34396  -0.33615  -0.30375
 Alpha  occ. eigenvalues --   -0.29228  -0.28909  -0.28185  -0.27308  -0.26349
 Alpha  occ. eigenvalues --   -0.25372  -0.25141  -0.24221  -0.23244  -0.22009
 Alpha  occ. eigenvalues --   -0.21709  -0.20840  -0.16894  -0.12354   0.04543
 Alpha virt. eigenvalues --    0.06439   0.07611   0.08334   0.08895   0.09037
 Alpha virt. eigenvalues --    0.09655   0.10654   0.10845   0.11518   0.12028
 Alpha virt. eigenvalues --    0.12073   0.12855   0.13278   0.13791   0.14244

  Beta  occ. eigenvalues --  -19.01792 -14.19664 -10.11994 -10.09449 -10.08887
  Beta  occ. eigenvalues --  -10.06928 -10.06269 -10.05950 -10.05851 -10.05798
  Beta  occ. eigenvalues --  -10.05162  -0.92195  -0.80550  -0.72854  -0.66198
  Beta  occ. eigenvalues --   -0.63483  -0.61073  -0.57313  -0.53529  -0.51121
  Beta  occ. eigenvalues --   -0.46255  -0.45152  -0.40139  -0.39016  -0.37507
  Beta  occ. eigenvalues --   -0.35184  -0.34862  -0.34365  -0.33582  -0.30338
  Beta  occ. eigenvalues --   -0.29190  -0.28876  -0.28141  -0.27278  -0.26310
  Beta  occ. eigenvalues --   -0.25333  -0.25095  -0.24198  -0.23210  -0.21965
  Beta  occ. eigenvalues --   -0.21665  -0.20793  -0.16871  -0.12335
  Beta virt. eigenvalues --    0.06809   0.07412   0.08314   0.08806   0.09322
  Beta virt. eigenvalues --    0.09518   0.10046   0.11088   0.11227   0.11824
  Beta virt. eigenvalues --    0.12324   0.12521   0.13158   0.13524   0.14030

 Mulliken charges and spin densities:
               1          2
     1  C    0.792162  -1.303621
     2  C   -0.651526   0.367312
     3  N    0.025622  -0.033935
     4  C   -0.510173   0.151806
     5  C   -0.932992   0.975649
     6  C    0.270057  -0.447097
     7  C    1.085929  -1.858731
     8  C   -2.207243   2.857218
     9  C    1.047482  -1.770348
    10  C    2.283555  -3.089727
    11  O   -0.149695  -0.005543
    12  H    0.034392   0.118048
    13  H   -0.200507   0.321139
    14  H   -0.463508   0.603827
    15  H    0.003962   0.125475
    16  H   -0.138018   0.262865
    17  H    0.357780  -0.169437
    18  H    0.061594   0.131342
    19  H    0.149262   0.002636
    20  H    0.009155   0.182527
    21  H    0.457799  -0.334288
    22  H   -0.419689   0.597079
    23  H   -0.249434   0.416735
    24  H   -0.720476   0.926238
    25  H   -0.346847   0.504282
    26  H    0.186307   0.004752
    27  H   -0.169887   0.300154
    28  H   -0.337920   0.477961
    29  H   -0.360193   0.509914
    30  H    0.093049   0.175768
 Sum of Mulliken charges =  -1.00000   1.00000

 Dipole moment (field-independent basis, Debye):
    X=             -3.3352    Y=              3.2961    Z=             -0.8381  Tot=              4.7634
 Quadrupole moment (field-independent basis, Debye-Ang):
   XX=           -141.8309   YY=           -118.0151   ZZ=           -103.9782
   XY=             -2.9147   XZ=             -0.8994   YZ=              0.6583

 Summary of Natural Population Analysis:

                                       Natural Population
                Natural  -----------------------------------------------
    Atom  No    Charge         Core      Valence    Rydberg      Total
 -----------------------------------------------------------------------
      C    1   -0.28855      0.99967     2.28345    0.00543     3.28855
      C    2   -0.08436      0.99964     2.07451    0.01021     3.08436
      N    3   -0.34518      0.99974     2.83419    0.01125     3.84518
      C    4   -0.08848      0.99955     2.07617    0.01275     3.08848
      C    5    0.12766      0.99950     1.85745    0.01539     2.87234
      C    6   -0.20452      0.99958     2.19525    0.00969     3.20452
      C    7   -0.19372      0.99963     2.18444    0.00965     3.19372
      C    8   -0.11850      0.99962     2.10667    0.01221     3.11850
      C    9   -0.20128      0.99957     2.19193    0.00978     3.20128
      C   10   -0.27777      0.99965     2.27292    0.00520     3.27777
      O   11   -0.38005      0.99989     3.37390    0.00626     4.38005
      H   12    0.09792      0.00000     0.40088    0.00120     0.40208
      H   13    0.09876      0.00000     0.40029    0.00096     0.40124
      H   14    0.09842      0.00000     0.40000    0.00158     0.40158
      H   15    0.08578      0.00000     0.41289    0.00133     0.41422
      H   16    0.07974      0.00000     0.41848    0.00179     0.42026
      H   17    0.17265      0.00000     0.32363    0.00371     0.32735
      H   18    0.09422      0.00000     0.40460    0.00118     0.40578
      H   19    0.09743      0.00000     0.40123    0.00134     0.40257
      H   20    0.10369      0.00000     0.39516    0.00116     0.39631
      H   21    0.10124      0.00000     0.39669    0.00207     0.39876
      H   22    0.10263      0.00000     0.39601    0.00135     0.39737
      H   23    0.09819      0.00000     0.39992    0.00189     0.40181
      H   24    0.09518      0.00000     0.40264    0.00218     0.40482
      H   25    0.09713      0.00000     0.40118    0.00169     0.40287
      H   26    0.10535      0.00000     0.39351    0.00115     0.39465
      H   27    0.09810      0.00000     0.40048    0.00142     0.40190
      H   28    0.09991      0.00000     0.39849    0.00161     0.40009
      H   29    0.09717      0.00000     0.40108    0.00174     0.40283
      H   30    0.23122      0.00000     0.26561    0.00317     0.26878
 =======================================================================
   * Total *    0.00000     10.99604    32.86362    0.14034    44.00000

 Normal termination of Gaussian 16 at Tue Dec  8 20:49:15 2020.
