 Gaussian 16, Revision A.03,

 -----------------------------------------------------------
 # opt freq B3LYP/6-31G(d) empiricaldispersion=gd3bj scf=xqc
 -----------------------------------------------------------

 -------------------------------
 CID_130925105_JID_1116_neutraal
 -------------------------------
 Symbolic Z-matrix:
 Charge =  0 Multiplicity = 1

 SCF Done:  E(RB3LYP) =  -853.264435883     A.U. after   15 cycles
 SCF Done:  E(RB3LYP) =  -853.267768371     A.U. after   13 cycles
 SCF Done:  E(RB3LYP) =  -853.268375540     A.U. after   12 cycles
 SCF Done:  E(RB3LYP) =  -853.268448156     A.U. after   11 cycles
 SCF Done:  E(RB3LYP) =  -853.268463138     A.U. after   10 cycles
 SCF Done:  E(RB3LYP) =  -853.268464311     A.U. after    9 cycles
 SCF Done:  E(RB3LYP) =  -853.268464666     A.U. after    8 cycles
 SCF Done:  E(RB3LYP) =  -853.268464850     A.U. after    8 cycles
 SCF Done:  E(RB3LYP) =  -853.268464915     A.U. after    7 cycles
 Optimization completed.
    -- Stationary point found.
 Normal termination of Gaussian 16 at Tue Dec  8 19:11:32 2020.

 --------------------------------------------------------------------
 #N Geom=AllCheck Guess=TCheck SCRF=Check GenChk RB3LYP/6-31G(d) Freq
 --------------------------------------------------------------------

 Structure from the checkpoint file:  "JID_1116.chk"
 -------------------------------
 CID_130925105_JID_1116_neutraal
 -------------------------------
 Charge =  0 Multiplicity = 1

 SCF Done:  E(RB3LYP) =  -853.268464915     A.U. after    1 cycles

  Exact polarizability: 166.086  -0.108 103.994  -0.000  -0.001  47.034
 Approx polarizability: 265.823 -10.274 180.920   0.002  -0.004  71.066

                      1                      2                      3
                      A                      A                      A
 Frequencies --     74.7487                99.1470               139.7405
 Red. masses --      3.9991                 5.2323                10.7499
 Frc consts  --      0.0132                 0.0303                 0.1237
 IR Inten    --      0.3719                 3.8214                 4.5238

                      4                      5                      6
                      A                      A                      A
 Frequencies --    189.5253               200.6109               218.6389
 Red. masses --      3.3934                 5.3998                 1.1961
 Frc consts  --      0.0718                 0.1280                 0.0337
 IR Inten    --     14.1850                 2.2087                13.1887

                      7                      8                      9
                      A                      A                      A
 Frequencies --    231.0359               290.1623               299.7343
 Red. masses --      1.3971                 2.6949                 4.3772
 Frc consts  --      0.0439                 0.1337                 0.2317
 IR Inten    --      0.0028                 0.0105                 4.7095

                     10                     11                     12
                      A                      A                      A
 Frequencies --    395.1249               404.8343               466.7670
 Red. masses --     12.2201                 7.7014                 5.1399
 Frc consts  --      1.1241                 0.7437                 0.6598
 IR Inten    --      0.4322                 1.7561                 2.8050

                     13                     14                     15
                      A                      A                      A
 Frequencies --    520.0187               538.1238               610.9809
 Red. masses --      9.8963                 5.0494                 7.8471
 Frc consts  --      1.5767                 0.8615                 1.7259
 IR Inten    --      9.8896                 9.6862                 1.4404

                     16                     17                     18
                      A                      A                      A
 Frequencies --    621.3807               692.2412               705.8217
 Red. masses --      3.9157                 8.1124                 7.1878
 Frc consts  --      0.8908                 2.2904                 2.1098
 IR Inten    --      0.1941                 4.4051                 7.1778

                     19                     20                     21
                      A                      A                      A
 Frequencies --    755.9043               891.9322               904.6229
 Red. masses --      6.3145                 1.5517                 1.3319
 Frc consts  --      2.1258                 0.7273                 0.6422
 IR Inten    --      1.4650                28.5097                 3.3118

                     22                     23                     24
                      A                      A                      A
 Frequencies --    924.7255               969.9489              1080.0406
 Red. masses --      7.5379                 1.2098                 2.7995
 Frc consts  --      3.7978                 0.6706                 1.9240
 IR Inten    --      4.4519                 4.3437                11.8635

                     25                     26                     27
                      A                      A                      A
 Frequencies --   1085.7728              1184.2886              1211.8818
 Red. masses --      6.0360                 1.2673                 1.5297
 Frc consts  --      4.1926                 1.0472                 1.3236
 IR Inten    --    161.5343                 0.7946                15.0719

                     28                     29                     30
                      A                      A                      A
 Frequencies --   1230.3121              1301.8005              1319.3253
 Red. masses --      1.9868                 3.6531                 7.3817
 Frc consts  --      1.7718                 3.6476                 7.5702
 IR Inten    --     12.3047                73.0729                 8.0692

                     31                     32                     33
                      A                      A                      A
 Frequencies --   1336.3795              1436.9524              1487.1326
 Red. masses --      2.5161                 3.2114                 1.8161
 Frc consts  --      2.6475                 3.9069                 2.3664
 IR Inten    --    221.4743                46.0551                81.4561

                     34                     35                     36
                      A                      A                      A
 Frequencies --   1514.2229              1523.2465              1531.9281
 Red. masses --      1.7868                 1.0468                 1.0533
 Frc consts  --      2.4139                 1.4311                 1.4563
 IR Inten    --     19.4876                 7.6259                31.3559

                     37                     38                     39
                      A                      A                      A
 Frequencies --   1577.6673              1642.2409              2344.3711
 Red. masses --      6.1856                 5.6235                12.6511
 Frc consts  --      9.0712                 8.9358                40.9668
 IR Inten    --     22.5355               216.2464                23.5491

                     40                     41                     42
                      A                      A                      A
 Frequencies --   2692.7010              3042.8049              3109.1951
 Red. masses --      1.0381                 1.0339                 1.1076
 Frc consts  --      4.4348                 5.6399                 6.3088
 IR Inten    --      3.8418                46.0185                30.8247

                     43                     44                     45
                      A                      A                      A
 Frequencies --   3175.7641              3216.5075              3219.5437
 Red. masses --      1.1014                 1.0901                 1.0918
 Frc consts  --      6.5445                 6.6446                 6.6676
 IR Inten    --     19.3779                16.1492                 0.2188

 - Thermochemistry -
 -------------------
 Temperature   298.150 Kelvin.  Pressure   1.00000 Atm.
 Atom     1 has atomic number  6 and mass  12.00000

 Molecular mass:   166.02008 amu.
 Principal axes and moments of inertia in atomic units:
                           1         2         3
     Eigenvalues --   966.176422934.953013889.57478
           X            0.99986   0.01696  -0.00000
           Y           -0.01696   0.99986  -0.00000
           Z            0.00000   0.00000   1.00000
 This molecule is an asymmetric top.
 Rotational symmetry number  1.
 Warning -- assumption of classical behavior for rotation
           may cause significant error
 Rotational temperatures (Kelvin)      0.08965     0.02951     0.02227
 Rotational constants (GHZ):           1.86792     0.61491     0.46399
 Zero-point vibrational energy     313480.5 (Joules/Mol)
                                   74.92364 (Kcal/Mol)
 Warning -- explicit consideration of  15 degrees of freedom as
           vibrations may cause significant error
 Vibrational temperatures:    107.55   142.65   201.06   272.68   288.63
          (Kelvin)            314.57   332.41   417.48   431.25   568.50
                              582.47   671.57   748.19   774.24   879.07
                              894.03   995.98  1015.52  1087.58  1283.29
                             1301.55  1330.47  1395.54  1553.94  1562.18
                             1703.93  1743.63  1770.14  1873.00  1898.21
                             1922.75  2067.45  2139.65  2178.63  2191.61
                             2204.10  2269.91  2362.82  3373.03  3874.20
                             4377.92  4473.44  4569.22  4627.84  4632.21

 Zero-point correction=                           0.119398 (Hartree/Particle)
 Thermal correction to Energy=                    0.129709
 Thermal correction to Enthalpy=                  0.130653
 Thermal correction to Gibbs Free Energy=         0.083197
 Sum of electronic and zero-point Energies=           -853.149066
 Sum of electronic and thermal Energies=              -853.138756
 Sum of electronic and thermal Enthalpies=            -853.137812
 Sum of electronic and thermal Free Energies=         -853.185268

                     E (Thermal)             CV                S
                      KCal/Mol        Cal/Mol-Kelvin    Cal/Mol-Kelvin
 Total                   81.394             37.450             99.879
 Electronic               0.000              0.000              0.000
 Translational            0.889              2.981             41.229
 Rotational               0.889              2.981             30.779
 Vibrational             79.616             31.488             27.871
 Vibration     1          0.599              1.966              4.024
 Vibration     2          0.604              1.950              3.471
 Vibration     3          0.615              1.914              2.807
 Vibration     4          0.633              1.854              2.232
 Vibration     5          0.638              1.839              2.127
 Vibration     6          0.646              1.813              1.970
 Vibration     7          0.653              1.794              1.871
 Vibration     8          0.686              1.692              1.473
 Vibration     9          0.692              1.674              1.418
 Vibration    10          0.762              1.481              0.981
 Vibration    11          0.770              1.460              0.945
 Vibration    12          0.824              1.324              0.747
 Vibration    13          0.875              1.206              0.610
 Vibration    14          0.893              1.166              0.569
 Vibration    15          0.970              1.009              0.431

 Optimization completed.
    -- Stationary point found.
 Normal termination of Gaussian 16 at Tue Dec  8 19:14:33 2020.

 ----------------------------------------------------------------------
 # B3LYP/6-311++G(d,p) empiricaldispersion=gd3bj scf=xqc pop=npa geom=c
 heck
 ----------------------------------------------------------------------

 ---------------------------------------
 CID_130925105_JID_1116_Energie_neutraal
 ---------------------------------------
 Structure from the checkpoint file:  "JID_1116.chk"
 Charge =  0 Multiplicity = 1

 SCF Done:  E(RB3LYP) =  -853.420228949     A.U. after   16 cycles
 Normal termination of Gaussian 16 at Tue Dec  8 19:15:42 2020.

 ----------------------------------------------------------------------
 # B3LYP/6-311++G(d,p) empiricaldispersion=gd3bj scf=xqc pop=npa geom=c
 heck
 ----------------------------------------------------------------------

 -------------------------------------
 CID_130925105_JID_1116_Energie_kation
 -------------------------------------
 Structure from the checkpoint file:  "JID_1116.chk"
 Charge =  1 Multiplicity = 2

 SCF Done:  E(UB3LYP) =  -853.099194913     A.U. after   24 cycles
 Normal termination of Gaussian 16 at Tue Dec  8 19:18:35 2020.
 Gaussian 16:  ES64L-G16RevA.03 25-Dec-2016

 ----------------------------------------------------------------------
 # B3LYP/6-311++G(d,p) empiricaldispersion=gd3bj scf=xqc pop=npa geom=c
 heck
 ----------------------------------------------------------------------

 ------------------------------------
 CID_130925105_JID_1116_Energie_anion
 ------------------------------------
 Structure from the checkpoint file:  "JID_1116.chk"
 Charge = -1 Multiplicity = 2

                         Standard orientation:
 ---------------------------------------------------------------------
 Center     Atomic      Atomic             Coordinates (Angstroms)
 Number     Number       Type             X           Y           Z
 ---------------------------------------------------------------------
      1          6           0       -3.967910   -0.170721    0.000157
      2          8           0       -2.850808    0.715049   -0.000352
      3          6           0       -1.610384    0.179507   -0.000090
      4          6           0       -0.544246    1.080934   -0.000081
      5          6           0        0.763474    0.601045   -0.000004
      6          6           0        0.939518   -0.804980    0.000023
      7          7           0       -0.084348   -1.668131    0.000134
      8          6           0       -1.327620   -1.199674    0.000108
      9          6           0        2.260335   -1.368542   -0.000139
     10          7           0        3.354885   -1.763110   -0.000128
     11         16           0        2.088151    1.777980    0.000126
     12          1           0       -4.850496    0.469234    0.000103
     13          1           0       -3.972308   -0.802425    0.896273
     14          1           0       -3.972637   -0.803053   -0.895514
     15          1           0       -0.756866    2.144870   -0.000187
     16          1           0       -2.118001   -1.942714    0.000299
     17          1           0        3.093599    0.879288   -0.000061
 ---------------------------------------------------------------------

 SCF Done:  E(UB3LYP) =  -853.431322050     A.U. after   33 cycles
 SCF Done:  E(UB3LYP) =  -853.431322050     a.u. after    1 cycles

 The electronic state is 2-A.
 Alpha  occ. eigenvalues --  -88.72942 -19.02945 -14.14381 -14.13025 -10.11893
 Alpha  occ. eigenvalues --  -10.07842 -10.07829 -10.05791 -10.04815 -10.04521
 Alpha  occ. eigenvalues --  -10.02283  -7.81665  -5.78024  -5.77663  -5.77090
 Alpha  occ. eigenvalues --   -0.94695  -0.79130  -0.74427  -0.68471  -0.64844
 Alpha  occ. eigenvalues --   -0.59047  -0.58376  -0.50507  -0.46997  -0.40537
 Alpha  occ. eigenvalues --   -0.39725  -0.37846  -0.35988  -0.32777  -0.29670
 Alpha  occ. eigenvalues --   -0.27506  -0.27436  -0.26057  -0.23423  -0.23168
 Alpha  occ. eigenvalues --   -0.22765  -0.21181  -0.18758  -0.18154  -0.17973
 Alpha  occ. eigenvalues --   -0.11008  -0.10525  -0.08798   0.05271
 Alpha virt. eigenvalues --    0.07529   0.10235   0.10692   0.11490   0.11748
 Alpha virt. eigenvalues --    0.11827   0.13441   0.13611   0.14347   0.15871
 Alpha virt. eigenvalues --    0.16331   0.16615   0.17165   0.17748   0.18422

  Beta  occ. eigenvalues --  -88.72945 -19.02893 -14.14085 -14.12228 -10.11887
  Beta  occ. eigenvalues --  -10.07928 -10.07529 -10.05551 -10.04903 -10.04520
  Beta  occ. eigenvalues --  -10.02029  -7.81667  -5.78024  -5.77664  -5.77098
  Beta  occ. eigenvalues --   -0.94517  -0.78167  -0.73953  -0.68126  -0.64438
  Beta  occ. eigenvalues --   -0.58717  -0.58139  -0.49634  -0.46866  -0.40227
  Beta  occ. eigenvalues --   -0.39550  -0.37613  -0.35737  -0.32682  -0.29519
  Beta  occ. eigenvalues --   -0.27218  -0.26126  -0.25914  -0.23286  -0.22642
  Beta  occ. eigenvalues --   -0.22198  -0.20717  -0.17987  -0.17795  -0.16529
  Beta  occ. eigenvalues --   -0.09631  -0.09465  -0.07526
  Beta virt. eigenvalues --    0.07464   0.10190   0.10657   0.11404   0.11798
  Beta virt. eigenvalues --    0.12111   0.12532   0.13428   0.13565   0.14292
  Beta virt. eigenvalues --    0.16006   0.16311   0.16629   0.17204   0.17777

 Mulliken charges and spin densities:
               1          2
     1  C   -0.247080  -0.025547
     2  O   -0.200387   0.011062
     3  C    0.209863   0.210956
     4  C   -1.362271   0.218310
     5  C    1.524526  -0.028406
     6  C    0.567086   0.195759
     7  N   -0.030818   0.359975
     8  C    0.108457  -0.054147
     9  C   -1.241176  -0.068958
    10  N   -0.351963   0.154748
    11  S   -0.757958  -0.001090
    12  H    0.132309  -0.000513
    13  H    0.115698   0.024188
    14  H    0.115991   0.023866
    15  H    0.158814  -0.021956
    16  H    0.150720   0.003022
    17  H    0.108190  -0.001271
 Sum of Mulliken charges =  -1.00000   1.00000

 Dipole moment (field-independent basis, Debye):
    X=             -6.2323    Y=              3.4969    Z=             -0.0001  Tot=              7.1463
 Quadrupole moment (field-independent basis, Debye-Ang):
   XX=            -99.4967   YY=            -95.0190   ZZ=            -79.5484
   XY=             14.0757   XZ=              0.0008   YZ=              0.0017

 Summary of Natural Population Analysis:

                                       Natural Population
                Natural  -----------------------------------------------
    Atom  No    Charge         Core      Valence    Rydberg      Total
 -----------------------------------------------------------------------
      C    1   -0.09766      0.99961     2.09002    0.00802     3.09766
      O    2   -0.27153      0.99985     3.26196    0.00972     4.27153
      C    3    0.19790      0.99939     1.78962    0.01310     2.80210
      C    4   -0.08758      0.99947     2.07782    0.01028     3.08758
      C    5   -0.09124      0.99938     2.08227    0.00959     3.09124
      C    6    0.03052      0.99936     1.95367    0.01646     2.96948
      N    7   -0.09957      0.99967     2.58736    0.01253     3.59957
      C    8   -0.04707      0.99957     2.03495    0.01255     3.04707
      C    9    0.14792      0.99964     1.83299    0.01946     2.85208
      N   10   -0.17635      0.99979     2.66486    0.01171     3.67635
      S   11   -0.00353      4.99955     2.98619    0.01778     8.00353
      H   12    0.08420      0.00000     0.41498    0.00081     0.41580
      H   13    0.08143      0.00000     0.41687    0.00169     0.41857
      H   14    0.08142      0.00000     0.41688    0.00169     0.41858
      H   15    0.09609      0.00000     0.40217    0.00174     0.40391
      H   16    0.08213      0.00000     0.41655    0.00132     0.41787
      H   17    0.07292      0.00000     0.42400    0.00309     0.42708
 =======================================================================
   * Total *   -0.00000     14.99529    27.85317    0.15155    43.00000

 Normal termination of Gaussian 16 at Tue Dec  8 19:22:39 2020.
