 Gaussian 16, Revision A.03,

 -----------------------------------------------------------
 # opt freq B3LYP/6-31G(d) empiricaldispersion=gd3bj scf=xqc
 -----------------------------------------------------------

 ------------------------------
 CID_10080606_JID_1119_neutraal
 ------------------------------
 Symbolic Z-matrix:
 Charge =  0 Multiplicity = 1

 SCF Done:  E(RB3LYP) =  -483.252423390     A.U. after   14 cycles
 SCF Done:  E(RB3LYP) =  -483.253751425     A.U. after   12 cycles
 SCF Done:  E(RB3LYP) =  -483.253989761     A.U. after   12 cycles
 SCF Done:  E(RB3LYP) =  -483.254130093     A.U. after   12 cycles
 SCF Done:  E(RB3LYP) =  -483.254243464     A.U. after   12 cycles
 SCF Done:  E(RB3LYP) =  -483.254329630     A.U. after   12 cycles
 SCF Done:  E(RB3LYP) =  -483.254375308     A.U. after   12 cycles
 SCF Done:  E(RB3LYP) =  -483.254401627     A.U. after   12 cycles
 SCF Done:  E(RB3LYP) =  -483.254406374     A.U. after   10 cycles
 SCF Done:  E(RB3LYP) =  -483.254412456     A.U. after   10 cycles
 SCF Done:  E(RB3LYP) =  -483.254429710     A.U. after   10 cycles
 SCF Done:  E(RB3LYP) =  -483.254426286     A.U. after    9 cycles
 SCF Done:  E(RB3LYP) =  -483.254431865     A.U. after   10 cycles
 SCF Done:  E(RB3LYP) =  -483.254431765     A.U. after    8 cycles
 SCF Done:  E(RB3LYP) =  -483.254431722     A.U. after    7 cycles
 Optimization completed.
    -- Stationary point found.
 Normal termination of Gaussian 16 at Tue Dec  8 20:24:23 2020.

 --------------------------------------------------------------------
 #N Geom=AllCheck Guess=TCheck SCRF=Check GenChk RB3LYP/6-31G(d) Freq
 --------------------------------------------------------------------

 Structure from the checkpoint file:  "JID_1119.chk"
 ------------------------------
 CID_10080606_JID_1119_neutraal
 ------------------------------
 Charge =  0 Multiplicity = 1

 SCF Done:  E(RB3LYP) =  -483.254431722     A.U. after    1 cycles

  Exact polarizability: 113.535   3.370  97.038  -5.142   1.722  90.447
 Approx polarizability: 136.545   5.326 129.316  -7.496   5.857 153.397

                      1                      2                      3
                      A                      A                      A
 Frequencies --     24.6626                65.2198                97.4065
 Red. masses --      4.3148                 3.4210                 3.8431
 Frc consts  --      0.0015                 0.0086                 0.0215
 IR Inten    --     13.1708                 1.8990                 3.0829

                      4                      5                      6
                      A                      A                      A
 Frequencies --    155.9512               170.4850               175.0799
 Red. masses --      2.3334                 1.9450                 1.4677
 Frc consts  --      0.0334                 0.0333                 0.0265
 IR Inten    --      3.9875                62.5267               151.7394

                      7                      8                      9
                      A                      A                      A
 Frequencies --    239.8225               248.8359               295.5427
 Red. masses --      1.0556                 2.7331                 2.0299
 Frc consts  --      0.0358                 0.0997                 0.1045
 IR Inten    --      0.0216                 1.8679                 0.7420

                     10                     11                     12
                      A                      A                      A
 Frequencies --    327.1018               358.7208               417.9708
 Red. masses --      3.0999                 2.6337                 3.3088
 Frc consts  --      0.1954                 0.1997                 0.3406
 IR Inten    --      1.3237                 3.0915                 0.1816

                     13                     14                     15
                      A                      A                      A
 Frequencies --    441.5788               445.3120               477.1118
 Red. masses --      2.2931                 1.7147                 2.7260
 Frc consts  --      0.2634                 0.2003                 0.3656
 IR Inten    --      0.6035                 0.0602                 0.8106

                     16                     17                     18
                      A                      A                      A
 Frequencies --    513.0638               561.7938               625.3372
 Red. masses --      1.6622                 2.1087                 1.9108
 Frc consts  --      0.2578                 0.3921                 0.4402
 IR Inten    --      4.4983                 7.5514                14.9209

                     19                     20                     21
                      A                      A                      A
 Frequencies --    684.4405               792.4235               850.9847
 Red. masses --      2.2480                 2.1085                 1.9535
 Frc consts  --      0.6205                 0.7801                 0.8335
 IR Inten    --      7.8571                 0.2161                 0.1394

                     22                     23                     24
                      A                      A                      A
 Frequencies --    859.8399               871.9771               878.7623
 Red. masses --      2.2060                 1.6181                 2.1361
 Frc consts  --      0.9609                 0.7249                 0.9719
 IR Inten    --      0.9483                 1.6991                 0.7181

                     25                     26                     27
                      A                      A                      A
 Frequencies --    909.5321               954.0778               963.1798
 Red. masses --      1.9895                 1.7485                 1.9038
 Frc consts  --      0.9697                 0.9378                 1.0406
 IR Inten    --      2.2689                 4.6526                 2.0408

                     28                     29                     30
                      A                      A                      A
 Frequencies --    996.5981              1004.5848              1050.7625
 Red. masses --      1.8025                 1.4030                 2.2839
 Frc consts  --      1.0548                 0.8342                 1.4857
 IR Inten    --      0.9711                 1.6851                 1.1094

                     31                     32                     33
                      A                      A                      A
 Frequencies --   1081.7303              1093.8438              1108.0159
 Red. masses --      1.7667                 1.7443                 1.1129
 Frc consts  --      1.2180                 1.2297                 0.8050
 IR Inten    --      0.4741                 2.2691                 1.2489

                     34                     35                     36
                      A                      A                      A
 Frequencies --   1120.0286              1141.0294              1167.6019
 Red. masses --      2.2554                 2.8621                 1.7708
 Frc consts  --      1.6670                 2.1954                 1.4224
 IR Inten    --      0.7894                 3.6789                 1.7795

                     37                     38                     39
                      A                      A                      A
 Frequencies --   1189.9786              1233.3222              1252.2904
 Red. masses --      2.0838                 1.5389                 1.3565
 Frc consts  --      1.7386                 1.3792                 1.2534
 IR Inten    --      3.8055                16.7046                 2.3584

                     40                     41                     42
                      A                      A                      A
 Frequencies --   1291.8732              1309.3686              1315.6954
 Red. masses --      1.4067                 1.2956                 1.2984
 Frc consts  --      1.3832                 1.3087                 1.3242
 IR Inten    --     30.3501                 3.6729                 1.6818

                     43                     44                     45
                      A                      A                      A
 Frequencies --   1326.4171              1346.4187              1356.7377
 Red. masses --      1.2578                 1.5683                 1.2730
 Frc consts  --      1.3038                 1.6751                 1.3806
 IR Inten    --     19.1558                40.3231                 5.5697

                     46                     47                     48
                      A                      A                      A
 Frequencies --   1395.5646              1398.1526              1404.8122
 Red. masses --      1.3819                 1.4867                 1.4362
 Frc consts  --      1.5857                 1.7124                 1.6700
 IR Inten    --      3.3155                19.5078                 5.8568

                     49                     50                     51
                      A                      A                      A
 Frequencies --   1409.1690              1421.6239              1430.4332
 Red. masses --      1.6049                 1.7540                 1.7360
 Frc consts  --      1.8777                 2.0886                 2.0929
 IR Inten    --      4.9992                21.4566                33.4519

                     52                     53                     54
                      A                      A                      A
 Frequencies --   1439.3007              1494.2976              1509.9175
 Red. masses --      1.2711                 1.1023                 1.0898
 Frc consts  --      1.5514                 1.4501                 1.4639
 IR Inten    --      4.0319                 6.4989                 0.7507

                     55                     56                     57
                      A                      A                      A
 Frequencies --   1514.4965              1519.7967              1527.9671
 Red. masses --      1.0989                 1.0878                 1.0471
 Frc consts  --      1.4850                 1.4804                 1.4404
 IR Inten    --      1.3505                 5.0880                 5.3545

                     58                     59                     60
                      A                      A                      A
 Frequencies --   1530.5557              1532.7608              1644.2783
 Red. masses --      1.0586                 1.0940                 1.2477
 Frc consts  --      1.4611                 1.5143                 1.9876
 IR Inten    --      2.3991                 2.8150               115.2026

                     61                     62                     63
                      A                      A                      A
 Frequencies --   1802.0278              2996.0073              3004.8634
 Red. masses --      8.9088                 1.0722                 1.0745
 Frc consts  --     17.0449                 5.6704                 5.7163
 IR Inten    --    248.1583                 5.2815                12.0024

                     64                     65                     66
                      A                      A                      A
 Frequencies --   3010.3934              3016.8270              3027.4145
 Red. masses --      1.0659                 1.0692                 1.0638
 Frc consts  --      5.6914                 5.7336                 5.7448
 IR Inten    --     16.2507                40.2714                16.4986

                     67                     68                     69
                      A                      A                      A
 Frequencies --   3028.2492              3036.9398              3047.5676
 Red. masses --      1.0598                 1.0369                 1.0839
 Frc consts  --      5.7262                 5.6346                 5.9310
 IR Inten    --     34.7993                44.9389                13.8119

                     70                     71                     72
                      A                      A                      A
 Frequencies --   3059.4215              3064.9133              3070.3793
 Red. masses --      1.0985                 1.0952                 1.0976
 Frc consts  --      6.0581                 6.0614                 6.0962
 IR Inten    --     23.3648                50.5336                57.1442

                     73                     74                     75
                      A                      A                      A
 Frequencies --   3075.5622              3083.4848              3100.6083
 Red. masses --      1.1013                 1.0948                 1.1009
 Frc consts  --      6.1377                 6.1330                 6.2360
 IR Inten    --     62.6634                33.4687                59.7014

                     76                     77                     78
                      A                      A                      A
 Frequencies --   3108.8546              3590.5578              3718.9612
 Red. masses --      1.1024                 1.0451                 1.1047
 Frc consts  --      6.2774                 7.9387                 9.0016
 IR Inten    --     38.6414                32.1258                26.4987

 - Thermochemistry -
 -------------------
 Temperature   298.150 Kelvin.  Pressure   1.00000 Atm.
 Atom     1 has atomic number  6 and mass  12.00000

 Molecular mass:   155.13101 amu.
 Principal axes and moments of inertia in atomic units:
                           1         2         3
     Eigenvalues --   999.397872920.708433501.13515
           X            0.99985  -0.01290  -0.01167
           Y            0.01279   0.99987  -0.00987
           Z            0.01180   0.00971   0.99988
 This molecule is an asymmetric top.
 Rotational symmetry number  1.
 Warning -- assumption of classical behavior for rotation
           may cause significant error
 Rotational temperatures (Kelvin)      0.08667     0.02966     0.02474
 Rotational constants (GHZ):           1.80583     0.61791     0.51547
 Zero-point vibrational energy     668764.4 (Joules/Mol)
                                  159.83852 (Kcal/Mol)
 Warning -- explicit consideration of  17 degrees of freedom as
           vibrations may cause significant error
 Vibrational temperatures:     35.48    93.84   140.15   224.38   245.29
          (Kelvin)            251.90   345.05   358.02   425.22   470.63
                              516.12   601.37   635.33   640.70   686.46
                              738.18   808.30   899.72   984.76  1140.12
                             1224.38  1237.12  1254.58  1264.34  1308.61
                             1372.71  1385.80  1433.88  1445.37  1511.81
                             1556.37  1573.80  1594.19  1611.47  1641.69
                             1679.92  1712.11  1774.48  1801.77  1858.72
                             1883.89  1892.99  1908.42  1937.20  1952.04
                             2007.91  2011.63  2021.21  2027.48  2045.40
                             2058.07  2070.83  2149.96  2172.43  2179.02
                             2186.65  2198.40  2202.13  2205.30  2365.75
                             2592.72  4310.59  4323.33  4331.28  4340.54
                             4355.77  4356.98  4369.48  4384.77  4401.83
                             4409.73  4417.59  4425.05  4436.45  4461.08
                             4472.95  5166.01  5350.76

 Zero-point correction=                           0.254719 (Hartree/Particle)
 Thermal correction to Energy=                    0.266616
 Thermal correction to Enthalpy=                  0.267560
 Thermal correction to Gibbs Free Energy=         0.216266
 Sum of electronic and zero-point Energies=           -482.999713
 Sum of electronic and thermal Energies=              -482.987816
 Sum of electronic and thermal Enthalpies=            -482.986872
 Sum of electronic and thermal Free Energies=         -483.038166

                     E (Thermal)             CV                S
                      KCal/Mol        Cal/Mol-Kelvin    Cal/Mol-Kelvin
 Total                  167.304             45.104            107.958
 Electronic               0.000              0.000              0.000
 Translational            0.889              2.981             41.027
 Rotational               0.889              2.981             30.703
 Vibrational            165.527             39.142             36.228
 Vibration     1          0.593              1.985              6.218
 Vibration     2          0.597              1.971              4.293
 Vibration     3          0.603              1.951              3.506
 Vibration     4          0.620              1.896              2.598
 Vibration     5          0.626              1.879              2.430
 Vibration     6          0.627              1.873              2.380
 Vibration     7          0.657              1.780              1.804
 Vibration     8          0.662              1.765              1.739
 Vibration     9          0.690              1.682              1.442
 Vibration    10          0.711              1.621              1.274
 Vibration    11          0.734              1.557              1.128
 Vibration    12          0.781              1.431              0.899
 Vibration    13          0.801              1.379              0.822
 Vibration    14          0.805              1.371              0.810
 Vibration    15          0.834              1.301              0.718
 Vibration    16          0.868              1.221              0.626
 Vibration    17          0.917              1.114              0.520

 Optimization completed.
    -- Stationary point found.
 Normal termination of Gaussian 16 at Tue Dec  8 20:32:14 2020.

 ----------------------------------------------------------------------
 # B3LYP/6-311++G(d,p) empiricaldispersion=gd3bj scf=xqc pop=npa geom=c
 heck
 ----------------------------------------------------------------------

 --------------------------------------
 CID_10080606_JID_1119_Energie_neutraal
 --------------------------------------
 Structure from the checkpoint file:  "JID_1119.chk"
 Charge =  0 Multiplicity = 1

 SCF Done:  E(RB3LYP) =  -483.399767173     A.U. after   14 cycles
 Normal termination of Gaussian 16 at Tue Dec  8 20:35:19 2020.

 ----------------------------------------------------------------------
 # B3LYP/6-311++G(d,p) empiricaldispersion=gd3bj scf=xqc pop=npa geom=c
 heck
 ----------------------------------------------------------------------

 ------------------------------------
 CID_10080606_JID_1119_Energie_kation
 ------------------------------------
 Structure from the checkpoint file:  "JID_1119.chk"
 Charge =  1 Multiplicity = 2

 SCF Done:  E(UB3LYP) =  -483.062177540     A.U. after   30 cycles
 Normal termination of Gaussian 16 at Tue Dec  8 20:45:43 2020.
 Gaussian 16:  ES64L-G16RevA.03 25-Dec-2016

 ----------------------------------------------------------------------
 # B3LYP/6-311++G(d,p) empiricaldispersion=gd3bj scf=xqc pop=npa geom=c
 heck
 ----------------------------------------------------------------------

 -----------------------------------
 CID_10080606_JID_1119_Energie_anion
 -----------------------------------
 Structure from the checkpoint file:  "JID_1119.chk"
 Charge = -1 Multiplicity = 2

                         Standard orientation:
 ---------------------------------------------------------------------
 Center     Atomic      Atomic             Coordinates (Angstroms)
 Number     Number       Type             X           Y           Z
 ---------------------------------------------------------------------
      1          6           0       -2.399952    2.241532   -0.217708
      2          6           0       -1.826359    0.904774    0.258195
      3          6           0       -2.736866   -0.271719   -0.125744
      4          6           0       -2.154791   -1.616288    0.326842
      5          6           0       -0.736274   -1.822260   -0.217948
      6          6           0        0.191356   -0.661583    0.168432
      7          6           0       -0.406686    0.679402   -0.284289
      8          6           0        1.602732   -0.867609   -0.390830
      9          6           0        2.605913    0.133011    0.177215
     10          8           0        2.539328    0.562543    1.320525
     11          7           0        3.597474    0.515409   -0.684641
     12          1           0       -2.484105    2.261575   -1.312060
     13          1           0       -3.400186    2.416023    0.196202
     14          1           0       -1.758941    3.078551    0.082777
     15          1           0       -1.759802    0.930956    1.357111
     16          1           0       -3.737353   -0.126442    0.302232
     17          1           0       -2.862774   -0.279653   -1.219521
     18          1           0       -2.805914   -2.440059    0.008897
     19          1           0       -2.125108   -1.645423    1.425464
     20          1           0       -0.778186   -1.900490   -1.315435
     21          1           0       -0.322346   -2.771443    0.147701
     22          1           0        0.283898   -0.635038    1.262088
     23          1           0       -0.438815    0.705515   -1.385852
     24          1           0        0.245555    1.500369    0.035874
     25          1           0        1.962064   -1.871190   -0.121468
     26          1           0        1.589531   -0.822920   -1.488375
     27          1           0        3.713523    0.089257   -1.591105
     28          1           0        4.347582    1.086655   -0.321240
 ---------------------------------------------------------------------

 SCF Done:  E(UB3LYP) =  -483.387434743     A.U. after   33 cycles
 SCF Done:  E(UB3LYP) =  -483.387434743     a.u. after    1 cycles

 The electronic state is 2-A.
 Alpha  occ. eigenvalues --  -18.97926 -14.21870 -10.16505 -10.07392 -10.06802
 Alpha  occ. eigenvalues --  -10.06797 -10.06769 -10.06623 -10.06458 -10.06323
 Alpha  occ. eigenvalues --  -10.05764  -0.92912  -0.79214  -0.74271  -0.68301
 Alpha  occ. eigenvalues --   -0.65855  -0.59854  -0.58054  -0.51098  -0.48897
 Alpha  occ. eigenvalues --   -0.46379  -0.45348  -0.42133  -0.37787  -0.37225
 Alpha  occ. eigenvalues --   -0.35782  -0.34477  -0.33726  -0.31962  -0.31636
 Alpha  occ. eigenvalues --   -0.29271  -0.28959  -0.28006  -0.27089  -0.26000
 Alpha  occ. eigenvalues --   -0.24413  -0.24024  -0.23080  -0.21801  -0.20169
 Alpha  occ. eigenvalues --   -0.20007  -0.16463  -0.15027   0.04505
 Alpha virt. eigenvalues --    0.06221   0.07300   0.08041   0.08723   0.09576
 Alpha virt. eigenvalues --    0.09938   0.10626   0.10888   0.11479   0.11986
 Alpha virt. eigenvalues --    0.12543   0.13135   0.13475   0.13612   0.14372

  Beta  occ. eigenvalues --  -18.97917 -14.21786 -10.16501 -10.07390 -10.06797
  Beta  occ. eigenvalues --  -10.06787 -10.06735 -10.06609 -10.06445 -10.06308
  Beta  occ. eigenvalues --  -10.05753  -0.92889  -0.79100  -0.74254  -0.68274
  Beta  occ. eigenvalues --   -0.65829  -0.59796  -0.58022  -0.51049  -0.48835
  Beta  occ. eigenvalues --   -0.46288  -0.45288  -0.42048  -0.37744  -0.37195
  Beta  occ. eigenvalues --   -0.35752  -0.34458  -0.33697  -0.31931  -0.31613
  Beta  occ. eigenvalues --   -0.29240  -0.28931  -0.27965  -0.27066  -0.25969
  Beta  occ. eigenvalues --   -0.24392  -0.23998  -0.23050  -0.21770  -0.20145
  Beta  occ. eigenvalues --   -0.19987  -0.16395  -0.14994
  Beta virt. eigenvalues --    0.06528   0.07603   0.07965   0.08359   0.09295
  Beta virt. eigenvalues --    0.10122   0.10517   0.10801   0.11280   0.11783
  Beta virt. eigenvalues --    0.12405   0.12838   0.13384   0.13747   0.13856

 Mulliken charges and spin densities:
               1          2
     1  C    0.280268  -0.953051
     2  C   -1.139670   1.720465
     3  C    0.236961  -0.697138
     4  C   -0.294898  -0.105054
     5  C    0.367464  -0.709140
     6  C   -1.342850   1.911250
     7  C    0.897980  -1.906468
     8  C    2.049026  -2.434967
     9  C    0.083562  -0.193915
    10  O   -0.333532  -0.009902
    11  N   -0.397841   0.125458
    12  H   -0.011984   0.146653
    13  H   -0.089536   0.230650
    14  H    0.052292   0.078403
    15  H    0.071592   0.086845
    16  H   -0.218576   0.361918
    17  H    0.047192   0.086048
    18  H   -0.194493   0.371695
    19  H    0.091889   0.025804
    20  H   -0.090287   0.238892
    21  H   -0.107166   0.247841
    22  H    0.241332  -0.042906
    23  H   -0.023672   0.173927
    24  H    0.204047  -0.044197
    25  H   -0.091498   0.284281
    26  H   -0.426901   0.584345
    27  H   -0.501207   0.767893
    28  H   -0.359494   0.654365
 Sum of Mulliken charges =  -1.00000   1.00000

 Dipole moment (field-independent basis, Debye):
    X=             -6.3993    Y=              0.2368    Z=              3.3378  Tot=              7.2214
 Quadrupole moment (field-independent basis, Debye-Ang):
   XX=           -151.1440   YY=           -103.4388   ZZ=           -106.3683
   XY=             -2.6378   XZ=              9.7209   YZ=             -3.0173

 Summary of Natural Population Analysis:

                                       Natural Population
                Natural  -----------------------------------------------
    Atom  No    Charge         Core      Valence    Rydberg      Total
 -----------------------------------------------------------------------
      C    1   -0.28065      0.99965     2.27630    0.00470     3.28065
      C    2   -0.11095      0.99960     2.10273    0.00862     3.11095
      C    3   -0.18782      0.99961     2.17949    0.00871     3.18782
      C    4   -0.18761      0.99963     2.17950    0.00848     3.18761
      C    5   -0.18641      0.99961     2.17804    0.00876     3.18641
      C    6   -0.11103      0.99959     2.10090    0.01054     3.11103
      C    7   -0.18939      0.99959     2.18034    0.00946     3.18939
      C    8   -0.22937      0.99957     2.21911    0.01070     3.22937
      C    9    0.34169      0.99970     1.63514    0.02347     2.65831
      O   10   -0.32997      0.99988     3.32426    0.00583     4.32997
      N   11   -0.39820      0.99971     2.88996    0.00853     3.89820
      H   12    0.09652      0.00000     0.40257    0.00091     0.40348
      H   13    0.09662      0.00000     0.40250    0.00088     0.40338
      H   14    0.09849      0.00000     0.40070    0.00081     0.40151
      H   15    0.09059      0.00000     0.40765    0.00176     0.40941
      H   16    0.09711      0.00000     0.40187    0.00102     0.40289
      H   17    0.09316      0.00000     0.40558    0.00126     0.40684
      H   18    0.09725      0.00000     0.40184    0.00091     0.40275
      H   19    0.09112      0.00000     0.40764    0.00124     0.40888
      H   20    0.09419      0.00000     0.40443    0.00138     0.40581
      H   21    0.09852      0.00000     0.40051    0.00097     0.40148
      H   22    0.10276      0.00000     0.39521    0.00203     0.39724
      H   23    0.09327      0.00000     0.40535    0.00138     0.40673
      H   24    0.10573      0.00000     0.39316    0.00111     0.39427
      H   25    0.11191      0.00000     0.38686    0.00122     0.38809
      H   26    0.10490      0.00000     0.39304    0.00205     0.39510
      H   27    0.20190      0.00000     0.27449    0.02360     0.29810
      H   28    0.19566      0.00000     0.30074    0.00360     0.30434
 =======================================================================
   * Total *   -0.00000     10.99613    31.84995    0.15392    43.00000

 Normal termination of Gaussian 16 at Tue Dec  8 20:56:28 2020.
