 Gaussian 16, Revision A.03,

 -----------------------------------------------------------
 # opt freq B3LYP/6-31G(d) empiricaldispersion=gd3bj scf=xqc
 -----------------------------------------------------------

 -------------------------------
 CID_131300480_JID_3680_neutraal
 -------------------------------
 Symbolic Z-matrix:
 Charge =  0 Multiplicity = 1

 SCF Done:  E(RB3LYP) =  -551.965999595     A.U. after   15 cycles
 SCF Done:  E(RB3LYP) =  -551.969802598     A.U. after   12 cycles
 SCF Done:  E(RB3LYP) =  -551.970250328     A.U. after   11 cycles
 SCF Done:  E(RB3LYP) =  -551.970583769     A.U. after   12 cycles
 SCF Done:  E(RB3LYP) =  -551.970746216     A.U. after   12 cycles
 SCF Done:  E(RB3LYP) =  -551.970965434     A.U. after   12 cycles
 SCF Done:  E(RB3LYP) =  -551.971187846     A.U. after   12 cycles
 SCF Done:  E(RB3LYP) =  -551.971210940     A.U. after   10 cycles
 SCF Done:  E(RB3LYP) =  -551.971217050     A.U. after   10 cycles
 SCF Done:  E(RB3LYP) =  -551.971220052     A.U. after    9 cycles
 SCF Done:  E(RB3LYP) =  -551.971221065     A.U. after    8 cycles
 SCF Done:  E(RB3LYP) =  -551.971221318     A.U. after    8 cycles
 SCF Done:  E(RB3LYP) =  -551.971221400     A.U. after    7 cycles
 Optimization completed.
    -- Stationary point found.
 Normal termination of Gaussian 16 at Mon Dec 14 13:08:42 2020.

 --------------------------------------------------------------------
 #N Geom=AllCheck Guess=TCheck SCRF=Check GenChk RB3LYP/6-31G(d) Freq
 --------------------------------------------------------------------

 Structure from the checkpoint file:  "JID_3680.chk"
 -------------------------------
 CID_131300480_JID_3680_neutraal
 -------------------------------
 Charge =  0 Multiplicity = 1

 SCF Done:  E(RB3LYP) =  -551.971221400     A.U. after    1 cycles

  Exact polarizability: 194.183  -1.118 126.256  -0.940   0.815  60.288
 Approx polarizability: 310.233  -7.659 199.266   4.341  -0.581  93.406

                      1                      2                      3
                      A                      A                      A
 Frequencies --     64.1977               114.0285               132.1435
 Red. masses --      3.5628                 4.0198                 7.8933
 Frc consts  --      0.0087                 0.0308                 0.0812
 IR Inten    --      0.6932                 0.9793                 4.6592

                      4                      5                      6
                      A                      A                      A
 Frequencies --    159.2436               181.3650               225.0885
 Red. masses --      1.7864                 1.7021                 1.9660
 Frc consts  --      0.0267                 0.0330                 0.0587
 IR Inten    --      5.1929                 6.7091                38.1724

                      7                      8                      9
                      A                      A                      A
 Frequencies --    234.2179               243.3143               326.8633
 Red. masses --      2.6652                 2.1580                 3.9327
 Frc consts  --      0.0861                 0.0753                 0.2476
 IR Inten    --      0.8817                 4.0164                 5.7860

                     10                     11                     12
                      A                      A                      A
 Frequencies --    328.8472               355.3883               417.0575
 Red. masses --      4.3870                 1.4851                 6.1978
 Frc consts  --      0.2795                 0.1105                 0.6352
 IR Inten    --      9.7447                 7.5385                 0.4299

                     13                     14                     15
                      A                      A                      A
 Frequencies --    468.4558               486.8930               521.2275
 Red. masses --      3.7634                 6.3755                 3.3713
 Frc consts  --      0.4866                 0.8905                 0.5396
 IR Inten    --      0.9669                 7.4088                 3.8309

                     16                     17                     18
                      A                      A                      A
 Frequencies --    535.0871               550.7574               620.3642
 Red. masses --      5.5111                 7.0815                 4.3426
 Frc consts  --      0.9297                 1.2656                 0.9847
 IR Inten    --      2.4640                 0.6911                 7.4274

                     19                     20                     21
                      A                      A                      A
 Frequencies --    638.6632               667.2717               706.5934
 Red. masses --      3.9084                 4.1826                 3.5671
 Frc consts  --      0.9393                 1.0972                 1.0493
 IR Inten    --      5.3627                 0.8611                 5.5865

                     22                     23                     24
                      A                      A                      A
 Frequencies --    730.0594               797.2864               856.0713
 Red. masses --      6.1563                 1.3974                 1.6332
 Frc consts  --      1.9332                 0.5234                 0.7052
 IR Inten    --     24.4116               212.0204                12.6447

                     25                     26                     27
                      A                      A                      A
 Frequencies --    868.9174               882.0244               964.8454
 Red. masses --      1.4157                 1.3411                 4.2498
 Frc consts  --      0.6298                 0.6147                 2.3310
 IR Inten    --     44.1745                16.4903                 1.9654

                     28                     29                     30
                      A                      A                      A
 Frequencies --    986.4803              1020.2379              1057.9475
 Red. masses --      2.3568                 3.0955                 4.1957
 Frc consts  --      1.3513                 1.8984                 2.7669
 IR Inten    --      6.9076                11.2290                 2.9924

                     31                     32                     33
                      A                      A                      A
 Frequencies --   1086.3564              1122.1392              1154.8883
 Red. masses --      1.6413                 2.5627                 1.3507
 Frc consts  --      1.1413                 1.9013                 1.0614
 IR Inten    --      4.5395                28.9690                29.0010

                     34                     35                     36
                      A                      A                      A
 Frequencies --   1158.5188              1186.9636              1210.2123
 Red. masses --      1.5656                 1.4185                 1.3326
 Frc consts  --      1.2381                 1.1775                 1.1499
 IR Inten    --      8.1705                24.2601                18.3386

                     37                     38                     39
                      A                      A                      A
 Frequencies --   1233.3336              1259.1455              1308.4330
 Red. masses --      1.3559                 1.9815                 1.5762
 Frc consts  --      1.2152                 1.8510                 1.5898
 IR Inten    --     10.1130                18.2420                 2.8460

                     40                     41                     42
                      A                      A                      A
 Frequencies --   1318.3726              1336.3056              1352.4887
 Red. masses --      2.0829                 1.5650                 4.3432
 Frc consts  --      2.1330                 1.6466                 4.6809
 IR Inten    --     59.4370                 8.9585                64.4241

                     43                     44                     45
                      A                      A                      A
 Frequencies --   1378.5041              1432.8868              1472.7795
 Red. masses --      4.0422                 2.2223                 1.4978
 Frc consts  --      4.5256                 2.6884                 1.9142
 IR Inten    --     71.1627                72.9205                27.4631

                     46                     47                     48
                      A                      A                      A
 Frequencies --   1498.2013              1508.7904              1525.9923
 Red. masses --      2.7995                 1.2136                 1.4418
 Frc consts  --      3.7024                 1.6277                 1.9781
 IR Inten    --      8.9686                12.4841                71.8192

                     49                     50                     51
                      A                      A                      A
 Frequencies --   1533.6048              1545.5817              1556.5708
 Red. masses --      1.3229                 1.0612                 1.3122
 Frc consts  --      1.8332                 1.4936                 1.8732
 IR Inten    --     18.7308                41.1703                31.3905

                     52                     53                     54
                      A                      A                      A
 Frequencies --   1637.9059              1661.8412              1701.4416
 Red. masses --      7.1489                 4.4261                 1.1988
 Frc consts  --     11.2998                 7.2020                 2.0446
 IR Inten    --     76.5479                67.1996                65.0790

                     55                     56                     57
                      A                      A                      A
 Frequencies --   2338.5457              2958.6674              2969.3973
 Red. masses --     12.6739                 1.0619                 1.0739
 Frc consts  --     40.8369                 5.4767                 5.5791
 IR Inten    --    115.5233                82.8565               123.6104

                     58                     59                     60
                      A                      A                      A
 Frequencies --   3045.5222              3100.0943              3102.9549
 Red. masses --      1.0689                 1.0892                 1.0780
 Frc consts  --      5.8415                 6.1676                 6.1155
 IR Inten    --     24.5369                28.4354                52.8760

                     61                     62                     63
                      A                      A                      A
 Frequencies --   3114.3819              3172.8471              3193.0214
 Red. masses --      1.0969                 1.0979                 1.0907
 Frc consts  --      6.2684                 6.5121                 6.5518
 IR Inten    --     19.9743                 6.0515                 8.2066

                     64                     65                     66
                      A                      A                      A
 Frequencies --   3215.2057              3516.9977              3605.6434
 Red. masses --      1.0920                 1.0489                 1.0951
 Frc consts  --      6.6508                 7.6442                 8.3882
 IR Inten    --      3.3525                 2.7765                 4.8339

 - Thermochemistry -
 -------------------
 Temperature   298.150 Kelvin.  Pressure   1.00000 Atm.
 Atom     1 has atomic number  6 and mass  12.00000

 Molecular mass:   173.09530 amu.
 Principal axes and moments of inertia in atomic units:
                           1         2         3
     Eigenvalues --  1156.070543170.224344272.35594
           X            0.99998   0.00328  -0.00485
           Y           -0.00325   0.99997   0.00644
           Z            0.00487  -0.00643   0.99997
 This molecule is an asymmetric top.
 Rotational symmetry number  1.
 Warning -- assumption of classical behavior for rotation
           may cause significant error
 Rotational temperatures (Kelvin)      0.07492     0.02732     0.02027
 Rotational constants (GHZ):           1.56110     0.56928     0.42242
 Zero-point vibrational energy     518314.8 (Joules/Mol)
                                  123.88022 (Kcal/Mol)
 Warning -- explicit consideration of  18 degrees of freedom as
           vibrations may cause significant error
 Vibrational temperatures:     92.37   164.06   190.13   229.12   260.94
          (Kelvin)            323.85   336.99   350.07   470.28   473.14
                              511.32   600.05   674.00   700.53   749.93
                              769.87   792.42   892.57   918.89   960.06
                             1016.63  1050.39  1147.12  1231.70  1250.18
                             1269.04  1388.20  1419.33  1467.89  1522.15
                             1563.02  1614.51  1661.63  1666.85  1707.78
                             1741.23  1774.49  1811.63  1882.54  1896.84
                             1922.65  1945.93  1983.36  2061.60  2119.00
                             2155.58  2170.81  2195.56  2206.52  2223.75
                             2239.56  2356.58  2391.02  2447.99  3364.65
                             4256.86  4272.30  4381.83  4460.34  4464.46
                             4480.90  4565.02  4594.05  4625.96  5060.18
                             5187.72

 Zero-point correction=                           0.197416 (Hartree/Particle)
 Thermal correction to Energy=                    0.208960
 Thermal correction to Enthalpy=                  0.209905
 Thermal correction to Gibbs Free Energy=         0.160277
 Sum of electronic and zero-point Energies=           -551.773806
 Sum of electronic and thermal Energies=              -551.762261
 Sum of electronic and thermal Enthalpies=            -551.761317
 Sum of electronic and thermal Free Energies=         -551.810944

                     E (Thermal)             CV                S
                      KCal/Mol        Cal/Mol-Kelvin    Cal/Mol-Kelvin
 Total                  131.125             44.612            104.450
 Electronic               0.000              0.000              0.000
 Translational            0.889              2.981             41.353
 Rotational               0.889              2.981             31.127
 Vibrational            129.347             38.650             31.970
 Vibration     1          0.597              1.971              4.324
 Vibration     2          0.607              1.938              3.199
 Vibration     3          0.612              1.921              2.915
 Vibration     4          0.621              1.892              2.559
 Vibration     5          0.630              1.865              2.314
 Vibration     6          0.650              1.803              1.918
 Vibration     7          0.654              1.789              1.846
 Vibration     8          0.659              1.774              1.779
 Vibration     9          0.711              1.622              1.276
 Vibration    10          0.712              1.618              1.266
 Vibration    11          0.731              1.564              1.142
 Vibration    12          0.780              1.433              0.902
 Vibration    13          0.826              1.320              0.742
 Vibration    14          0.843              1.279              0.692
 Vibration    15          0.876              1.203              0.607
 Vibration    16          0.890              1.172              0.576
 Vibration    17          0.906              1.138              0.543
 Vibration    18          0.980              0.989              0.416

 Optimization completed.
    -- Stationary point found.
 Normal termination of Gaussian 16 at Mon Dec 14 13:14:42 2020.

 ----------------------------------------------------------------------
 # B3LYP/6-311++G(d,p) empiricaldispersion=gd3bj scf=xqc pop=npa geom=c
 heck
 ----------------------------------------------------------------------

 ---------------------------------------
 CID_131300480_JID_3680_Energie_neutraal
 ---------------------------------------
 Structure from the checkpoint file:  "JID_3680.chk"
 Charge =  0 Multiplicity = 1

 SCF Done:  E(RB3LYP) =  -552.121513834     A.U. after   15 cycles
 Normal termination of Gaussian 16 at Mon Dec 14 13:16:46 2020.

 ----------------------------------------------------------------------
 # B3LYP/6-311++G(d,p) empiricaldispersion=gd3bj scf=xqc pop=npa geom=c
 heck
 ----------------------------------------------------------------------

 -------------------------------------
 CID_131300480_JID_3680_Energie_kation
 -------------------------------------
 Structure from the checkpoint file:  "JID_3680.chk"
 Charge =  1 Multiplicity = 2

 SCF Done:  E(UB3LYP) =  -551.854359471     A.U. after   22 cycles
 Normal termination of Gaussian 16 at Mon Dec 14 13:20:45 2020.
 Gaussian 16:  ES64L-G16RevA.03 25-Dec-2016

 ----------------------------------------------------------------------
 # B3LYP/6-311++G(d,p) empiricaldispersion=gd3bj scf=xqc pop=npa geom=c
 heck
 ----------------------------------------------------------------------

 ------------------------------------
 CID_131300480_JID_3680_Energie_anion
 ------------------------------------
 Structure from the checkpoint file:  "JID_3680.chk"
 Charge = -1 Multiplicity = 2

                         Standard orientation:
 ---------------------------------------------------------------------
 Center     Atomic      Atomic             Coordinates (Angstroms)
 Number     Number       Type             X           Y           Z
 ---------------------------------------------------------------------
      1          6           0       -3.129299    0.949387    0.154790
      2          7           0       -2.145628   -0.051995   -0.203316
      3          6           0       -2.467428   -1.436967    0.175677
      4          6           0       -1.180193   -2.219714   -0.138056
      5          6           0       -0.125154   -1.139839   -0.043308
      6          6           0       -0.764140    0.115556   -0.088559
      7          6           0        0.004154    1.300979   -0.060193
      8          6           0        1.393917    1.164784   -0.010227
      9          6           0        2.025567   -0.089291    0.007742
     10          6           0        1.249627   -1.262693   -0.006145
     11          6           0        3.450660   -0.165172    0.059760
     12          7           0        4.612739   -0.227726    0.103489
     13          7           0       -0.585697    2.585938   -0.154631
     14          1           0       -3.166443    1.146280    1.241971
     15          1           0       -4.116013    0.587104   -0.149384
     16          1           0       -2.935897    1.878421   -0.381253
     17          1           0       -3.341160   -1.788126   -0.381560
     18          1           0       -2.704112   -1.490491    1.253049
     19          1           0       -1.213773   -2.630485   -1.155827
     20          1           0       -1.017491   -3.053150    0.551030
     21          1           0        2.007473    2.060821    0.022274
     22          1           0        1.729264   -2.235603    0.014825
     23          1           0       -1.276355    2.763284    0.567302
     24          1           0        0.118352    3.316246   -0.110111
 ---------------------------------------------------------------------

 SCF Done:  E(UB3LYP) =  -552.118399107     A.U. after   30 cycles

 The electronic state is 2-A.
 Alpha  occ. eigenvalues --  -14.22638 -14.20944 -14.18865 -10.10759 -10.10290
 Alpha  occ. eigenvalues --  -10.10137 -10.09092 -10.08784 -10.08573 -10.08206
 Alpha  occ. eigenvalues --  -10.07314 -10.07163 -10.06969  -0.85904  -0.80681
 Alpha  occ. eigenvalues --   -0.78908  -0.74158  -0.68787  -0.64837  -0.62432
 Alpha  occ. eigenvalues --   -0.58377  -0.53884  -0.50852  -0.48287  -0.43162
 Alpha  occ. eigenvalues --   -0.40462  -0.40014  -0.38336  -0.37495  -0.36108
 Alpha  occ. eigenvalues --   -0.33160  -0.32241  -0.31165  -0.29770  -0.28854
 Alpha  occ. eigenvalues --   -0.27896  -0.26976  -0.26098  -0.25397  -0.24952
 Alpha  occ. eigenvalues --   -0.24368  -0.21779  -0.19926  -0.18076  -0.12715
 Alpha  occ. eigenvalues --   -0.08622   0.04071
 Alpha virt. eigenvalues --    0.06826   0.06938   0.07914   0.08521   0.09034
 Alpha virt. eigenvalues --    0.09631   0.10156   0.11342   0.11773   0.12377
 Alpha virt. eigenvalues --    0.12828   0.13049   0.14290   0.14945   0.15380

  Beta  occ. eigenvalues --  -14.22640 -14.20896 -14.18757 -10.10762 -10.10256
  Beta  occ. eigenvalues --  -10.10014 -10.09085 -10.08717 -10.08482 -10.08196
  Beta  occ. eigenvalues --  -10.07339 -10.07117 -10.06899  -0.85836  -0.80609
  Beta  occ. eigenvalues --   -0.78746  -0.74033  -0.68719  -0.64652  -0.62300
  Beta  occ. eigenvalues --   -0.58247  -0.53739  -0.50756  -0.48182  -0.43063
  Beta  occ. eigenvalues --   -0.40391  -0.39915  -0.38284  -0.37406  -0.36018
  Beta  occ. eigenvalues --   -0.33078  -0.32179  -0.31099  -0.29700  -0.28585
  Beta  occ. eigenvalues --   -0.27813  -0.26888  -0.26004  -0.25319  -0.24747
  Beta  occ. eigenvalues --   -0.24076  -0.21706  -0.19759  -0.17649  -0.12410
  Beta  occ. eigenvalues --   -0.08303
  Beta virt. eigenvalues --    0.06771   0.07694   0.07845   0.08401   0.08714
  Beta virt. eigenvalues --    0.09719   0.09906   0.10410   0.11688   0.12278
  Beta virt. eigenvalues --    0.12574   0.13086   0.13198   0.14360   0.15278

 Mulliken charges and spin densities:
               1          2
     1  C    1.218315  -1.634917
     2  N   -0.168693   0.296535
     3  C    0.615764  -0.868654
     4  C   -0.780945   0.422853
     5  C    0.355777   0.341600
     6  C    0.587301  -0.490173
     7  C    0.100746  -0.641667
     8  C   -0.807326   0.746526
     9  C    2.340304  -0.510594
    10  C   -1.310448   0.398148
    11  C   -1.158184  -0.365003
    12  N   -0.274788   0.059730
    13  N   -0.308216  -0.039107
    14  H   -0.678974   0.862815
    15  H   -0.303560   0.440254
    16  H   -0.063765   0.208123
    17  H   -0.206482   0.376002
    18  H   -0.139921   0.281691
    19  H    0.077667   0.071936
    20  H    0.077215   0.070512
    21  H   -0.014574   0.165413
    22  H    0.107861   0.038033
    23  H   -0.198154   0.460129
    24  H   -0.066921   0.309816
 Sum of Mulliken charges =  -1.00000   1.00000

 Dipole moment (field-independent basis, Debye):
    X=              0.2258    Y=             -3.2073    Z=             -1.8695  Tot=              3.7192
 Quadrupole moment (field-independent basis, Debye-Ang):
   XX=           -162.9503   YY=           -105.0733   ZZ=           -102.5954
   XY=              8.6954   XZ=              5.6719   YZ=             -2.8093

 Summary of Natural Population Analysis:

                                       Natural Population
                Natural  -----------------------------------------------
    Atom  No    Charge         Core      Valence    Rydberg      Total
 -----------------------------------------------------------------------
      C    1   -0.17969      0.99964     2.17112    0.00894     3.17969
      N    2   -0.24651      0.99966     2.73507    0.01177     3.74651
      C    3   -0.07331      0.99963     2.06328    0.01040     3.07331
      C    4   -0.19832      0.99961     2.18992    0.00879     3.19832
      C    5   -0.03240      0.99949     2.02309    0.00982     3.03240
      C    6    0.11311      0.99940     1.87532    0.01217     2.88689
      C    7    0.06087      0.99945     1.92913    0.01055     2.93913
      C    8   -0.08582      0.99951     2.07693    0.00938     3.08582
      C    9   -0.09262      0.99943     2.08487    0.00832     3.09262
      C   10   -0.07401      0.99948     2.06659    0.00793     3.07401
      C   11    0.15446      0.99963     1.82725    0.01866     2.84554
      N   12   -0.18966      0.99979     2.67931    0.01056     3.68966
      N   13   -0.40467      0.99973     2.89457    0.01037     3.90467
      H   14    0.09123      0.00000     0.40307    0.00571     0.40877
      H   15    0.09747      0.00000     0.40079    0.00174     0.40253
      H   16    0.10428      0.00000     0.39394    0.00178     0.39572
      H   17    0.09541      0.00000     0.40325    0.00134     0.40459
      H   18    0.08646      0.00000     0.41165    0.00188     0.41354
      H   19    0.10037      0.00000     0.39847    0.00116     0.39963
      H   20    0.10360      0.00000     0.39553    0.00087     0.39640
      H   21    0.09920      0.00000     0.39953    0.00127     0.40080
      H   22    0.10072      0.00000     0.39835    0.00093     0.39928
      H   23    0.18948      0.00000     0.30632    0.00420     0.31052
      H   24    0.18034      0.00000     0.31795    0.00171     0.31966
 =======================================================================
   * Total *   -0.00000     12.99446    32.84529    0.16025    46.00000

 Normal termination of Gaussian 16 at Mon Dec 14 13:26:09 2020.
