 Gaussian 16, Revision A.03,

 -----------------------------------------------------------
 # opt freq B3LYP/6-31G(d) empiricaldispersion=gd3bj scf=xqc
 -----------------------------------------------------------

 -------------------------------
 CID_131024908_JID_4736_neutraal
 -------------------------------
 Symbolic Z-matrix:
 Charge =  0 Multiplicity = 1

 SCF Done:  E(RB3LYP) =  -614.783453431     A.U. after   14 cycles
 SCF Done:  E(RB3LYP) =  -614.787976933     A.U. after   12 cycles
 SCF Done:  E(RB3LYP) =  -614.788606073     A.U. after   11 cycles
 SCF Done:  E(RB3LYP) =  -614.788708879     A.U. after   11 cycles
 SCF Done:  E(RB3LYP) =  -614.788777507     A.U. after   12 cycles
 SCF Done:  E(RB3LYP) =  -614.788878603     A.U. after   10 cycles
 SCF Done:  E(RB3LYP) =  -614.788911643     A.U. after   12 cycles
 SCF Done:  E(RB3LYP) =  -614.788918843     A.U. after   10 cycles
 SCF Done:  E(RB3LYP) =  -614.788919690     A.U. after    8 cycles
 SCF Done:  E(RB3LYP) =  -614.788919843     A.U. after    8 cycles
 SCF Done:  E(RB3LYP) =  -614.788919828     A.U. after    7 cycles
 SCF Done:  E(RB3LYP) =  -614.788919874     A.U. after    7 cycles
 Optimization completed.
    -- Stationary point found.
 Normal termination of Gaussian 16 at Thu Dec 10 10:28:57 2020.

 --------------------------------------------------------------------
 #N Geom=AllCheck Guess=TCheck SCRF=Check GenChk RB3LYP/6-31G(d) Freq
 --------------------------------------------------------------------

 Structure from the checkpoint file:  "JID_4736.chk"
 -------------------------------
 CID_131024908_JID_4736_neutraal
 -------------------------------
 Charge =  0 Multiplicity = 1

 SCF Done:  E(RB3LYP) =  -614.788919874     A.U. after    1 cycles

  Exact polarizability: 172.359   1.711 114.674  -0.020  17.642 104.411
 Approx polarizability: 242.261   7.253 169.134   0.473  41.359 164.902

                      1                      2                      3
                      A                      A                      A
 Frequencies --     37.4265                41.7525                49.0415
 Red. masses --      3.6740                 3.2555                 3.8688
 Frc consts  --      0.0030                 0.0033                 0.0055
 IR Inten    --      0.7579                 0.6360                 0.0745

                      4                      5                      6
                      A                      A                      A
 Frequencies --     81.8783               145.8837               194.3765
 Red. masses --      2.7824                 2.1957                 4.4464
 Frc consts  --      0.0110                 0.0275                 0.0990
 IR Inten    --      0.4802                 0.2187                 0.7643

                      7                      8                      9
                      A                      A                      A
 Frequencies --    208.3014               222.8908               241.6671
 Red. masses --      3.6882                 1.1523                 1.4543
 Frc consts  --      0.0943                 0.0337                 0.0500
 IR Inten    --      1.0478                 2.6909                 0.5463

                     10                     11                     12
                      A                      A                      A
 Frequencies --    253.5723               277.1936               286.6933
 Red. masses --      1.1039                 1.4399                 2.3610
 Frc consts  --      0.0418                 0.0652                 0.1143
 IR Inten    --      1.4107                62.2417                 6.2362

                     13                     14                     15
                      A                      A                      A
 Frequencies --    301.1662               329.0117               366.5458
 Red. masses --      1.7879                 2.3613                 2.6160
 Frc consts  --      0.0955                 0.1506                 0.2071
 IR Inten    --     29.6329                 1.4714                 8.8925

                     16                     17                     18
                      A                      A                      A
 Frequencies --    396.3489               396.9058               412.0378
 Red. masses --      2.6823                 2.6657                 2.5395
 Frc consts  --      0.2483                 0.2474                 0.2540
 IR Inten    --      2.4392                 1.3091                 5.3088

                     19                     20                     21
                      A                      A                      A
 Frequencies --    466.7773               506.2779               531.6467
 Red. masses --      2.9159                 2.6879                 2.3031
 Frc consts  --      0.3743                 0.4059                 0.3835
 IR Inten    --     13.3990                88.1195                25.0207

                     22                     23                     24
                      A                      A                      A
 Frequencies --    561.3132               589.2479               612.7342
 Red. masses --      2.7590                 3.1361                 3.0290
 Frc consts  --      0.5122                 0.6415                 0.6700
 IR Inten    --     41.0853                13.7258                19.8644

                     25                     26                     27
                      A                      A                      A
 Frequencies --    686.5155               730.5638               749.3193
 Red. masses --      6.8902                 1.9398                 3.3746
 Frc consts  --      1.9133                 0.6100                 1.1164
 IR Inten    --      0.9931                13.0224                 0.7532

                     28                     29                     30
                      A                      A                      A
 Frequencies --    821.4705               827.8107               838.6628
 Red. masses --      1.7015                 1.6893                 1.2554
 Frc consts  --      0.6765                 0.6821                 0.5202
 IR Inten    --     38.0755                 9.8089                 1.1050

                     31                     32                     33
                      A                      A                      A
 Frequencies --    874.2015               893.6120               933.7455
 Red. masses --      3.5489                 2.0238                 1.5083
 Frc consts  --      1.5980                 0.9522                 0.7748
 IR Inten    --     13.8938                 8.4045                 0.5281

                     34                     35                     36
                      A                      A                      A
 Frequencies --    957.9181               962.2335               986.2002
 Red. masses --      2.1232                 1.2841                 1.4225
 Frc consts  --      1.1479                 0.7005                 0.8151
 IR Inten    --     21.7263                 0.1878                 0.0239

                     37                     38                     39
                      A                      A                      A
 Frequencies --    998.2465              1008.3267              1019.8797
 Red. masses --      1.8440                 7.4275                 1.2716
 Frc consts  --      1.0826                 4.4493                 0.7793
 IR Inten    --      3.5870                18.5239                 0.2034

                     40                     41                     42
                      A                      A                      A
 Frequencies --   1065.2563              1091.9947              1107.4210
 Red. masses --      2.9351                 1.9643                 2.2261
 Frc consts  --      1.9624                 1.3801                 1.6085
 IR Inten    --      6.4574                11.8411                45.2143

                     43                     44                     45
                      A                      A                      A
 Frequencies --   1112.3492              1133.0032              1136.4601
 Red. masses --      1.7346                 1.7056                 1.7062
 Frc consts  --      1.2646                 1.2900                 1.2983
 IR Inten    --     21.1657                 6.5605                73.1013

                     46                     47                     48
                      A                      A                      A
 Frequencies --   1177.6259              1222.4948              1237.8244
 Red. masses --      1.9698                 2.2811                 2.9182
 Frc consts  --      1.6094                 2.0086                 2.6344
 IR Inten    --     11.3636                 4.8505                16.9055

                     49                     50                     51
                      A                      A                      A
 Frequencies --   1259.5605              1287.4213              1315.7542
 Red. masses --      1.3370                 2.1238                 1.4909
 Frc consts  --      1.2497                 2.0740                 1.5207
 IR Inten    --     25.9473                 5.0643                 7.4782

                     52                     53                     54
                      A                      A                      A
 Frequencies --   1347.1623              1360.2910              1376.1716
 Red. masses --      1.4680                 2.1167                 1.4016
 Frc consts  --      1.5697                 2.3076                 1.5640
 IR Inten    --      4.7703                57.6899                22.8577

                     55                     56                     57
                      A                      A                      A
 Frequencies --   1386.5435              1406.4477              1409.4960
 Red. masses --      1.5905                 1.6086                 1.4231
 Frc consts  --      1.8016                 1.8747                 1.6657
 IR Inten    --     45.0345                13.0291                 0.6831

                     58                     59                     60
                      A                      A                      A
 Frequencies --   1429.7012              1445.4710              1448.5724
 Red. masses --      1.2795                 1.2302                 1.2440
 Frc consts  --      1.5409                 1.5144                 1.5380
 IR Inten    --     11.7762                 4.1169                15.2852

                     61                     62                     63
                      A                      A                      A
 Frequencies --   1467.2707              1508.2564              1512.4570
 Red. masses --      2.0991                 1.0530                 1.0804
 Frc consts  --      2.6625                 1.4113                 1.4561
 IR Inten    --     12.6385                 1.1188                 0.3373

                     64                     65                     66
                      A                      A                      A
 Frequencies --   1519.4727              1523.2529              1527.8504
 Red. masses --      1.0941                 1.1189                 1.2490
 Frc consts  --      1.4883                 1.5297                 1.7178
 IR Inten    --      6.3892                13.2160                 3.3646

                     67                     68                     69
                      A                      A                      A
 Frequencies --   1533.0365              1535.2478              1545.4107
 Red. masses --      1.0882                 1.1499                 1.1238
 Frc consts  --      1.5069                 1.5969                 1.5813
 IR Inten    --     19.1126                 2.6502                 2.9170

                     70                     71                     72
                      A                      A                      A
 Frequencies --   1561.7723              1630.0002              1660.6200
 Red. masses --      2.3732                 3.7658                 5.4773
 Frc consts  --      3.4105                 5.8950                 8.8994
 IR Inten    --    140.1823                40.5557               344.4526

                     73                     74                     75
                      A                      A                      A
 Frequencies --   3040.3732              3044.6131              3050.3325
 Red. masses --      1.0595                 1.0425                 1.0415
 Frc consts  --      5.7704                 5.6938                 5.7098
 IR Inten    --     11.1791                24.7238                28.1193

                     76                     77                     78
                      A                      A                      A
 Frequencies --   3054.6197              3071.9257              3089.3076
 Red. masses --      1.0416                 1.0954                 1.0878
 Frc consts  --      5.7262                 6.0904                 6.1167
 IR Inten    --     28.5830                19.5109                15.4006

                     79                     80                     81
                      A                      A                      A
 Frequencies --   3101.8889              3111.9649              3118.4389
 Red. masses --      1.1003                 1.1021                 1.0953
 Frc consts  --      6.2374                 6.2885                 6.2754
 IR Inten    --     29.7261                42.8364                44.4860

                     82                     83                     84
                      A                      A                      A
 Frequencies --   3144.1668              3152.9879              3162.1578
 Red. masses --      1.0997                 1.1010                 1.0864
 Frc consts  --      6.4054                 6.4487                 6.4005
 IR Inten    --     21.6161                21.2591                29.1129

                     85                     86                     87
                      A                      A                      A
 Frequencies --   3164.0905              3164.3707              3184.8176
 Red. masses --      1.0977                 1.0898                 1.0947
 Frc consts  --      6.4748                 6.4297                 6.5420
 IR Inten    --     22.6234                35.5103                25.5015

                     88                     89                     90
                      A                      A                      A
 Frequencies --   3224.9989              3574.7866              3736.3004
 Red. masses --      1.0915                 1.0746                 1.0660
 Frc consts  --      6.6883                 8.0908                 8.7682
 IR Inten    --     12.7453                 9.2261                 9.0813

 - Thermochemistry -
 -------------------
 Temperature   298.150 Kelvin.  Pressure   1.00000 Atm.
 Atom     1 has atomic number  6 and mass  12.00000

 Molecular mass:   194.14191 amu.
 Principal axes and moments of inertia in atomic units:
                           1         2         3
     Eigenvalues --  1384.858964894.489305411.97234
           X            0.99999   0.00172   0.00271
           Y           -0.00173   0.99999   0.00298
           Z           -0.00270  -0.00299   0.99999
 This molecule is an asymmetric top.
 Rotational symmetry number  1.
 Warning -- assumption of classical behavior for rotation
           may cause significant error
 Rotational temperatures (Kelvin)      0.06254     0.01770     0.01600
 Rotational constants (GHZ):           1.30319     0.36873     0.33347
 Zero-point vibrational energy     737337.5 (Joules/Mol)
                                  176.22790 (Kcal/Mol)
 Warning -- explicit consideration of  24 degrees of freedom as
           vibrations may cause significant error
 Vibrational temperatures:     53.85    60.07    70.56   117.80   209.89
          (Kelvin)            279.66   299.70   320.69   347.71   364.83
                              398.82   412.49   433.31   473.37   527.38
                              570.26   571.06   592.83   671.59   728.42
                              764.92   807.60   847.80   881.59   987.74
                             1051.12  1078.10  1181.91  1191.03  1206.65
                             1257.78  1285.71  1343.45  1378.23  1384.44
                             1418.92  1436.25  1450.76  1467.38  1532.67
                             1571.14  1593.33  1600.42  1630.14  1635.11
                             1694.34  1758.90  1780.95  1812.23  1852.31
                             1893.08  1938.27  1957.16  1980.00  1994.93
                             2023.56  2027.95  2057.02  2079.71  2084.17
                             2111.08  2170.04  2176.09  2186.18  2191.62
                             2198.24  2205.70  2208.88  2223.50  2247.04
                             2345.21  2389.26  4374.42  4380.52  4388.75
                             4394.92  4419.82  4444.82  4462.93  4477.42
                             4486.74  4523.75  4536.45  4549.64  4552.42
                             4552.82  4582.24  4640.05  5143.32  5375.70

 Zero-point correction=                           0.280837 (Hartree/Particle)
 Thermal correction to Energy=                    0.295658
 Thermal correction to Enthalpy=                  0.296603
 Thermal correction to Gibbs Free Energy=         0.238792
 Sum of electronic and zero-point Energies=           -614.508083
 Sum of electronic and thermal Energies=              -614.493261
 Sum of electronic and thermal Enthalpies=            -614.492317
 Sum of electronic and thermal Free Energies=         -614.550128

                     E (Thermal)             CV                S
                      KCal/Mol        Cal/Mol-Kelvin    Cal/Mol-Kelvin
 Total                  185.528             56.801            121.673
 Electronic               0.000              0.000              0.000
 Translational            0.889              2.981             41.696
 Rotational               0.889              2.981             31.973
 Vibrational            183.751             50.839             48.004
 Vibration     1          0.594              1.982              5.391
 Vibration     2          0.594              1.980              5.174
 Vibration     3          0.595              1.978              4.856
 Vibration     4          0.600              1.962              3.845
 Vibration     5          0.617              1.907              2.725
 Vibration     6          0.635              1.848              2.186
 Vibration     7          0.642              1.828              2.059
 Vibration     8          0.649              1.806              1.935
 Vibration     9          0.658              1.777              1.791
 Vibration    10          0.665              1.757              1.706
 Vibration    11          0.678              1.716              1.551
 Vibration    12          0.684              1.698              1.493
 Vibration    13          0.693              1.671              1.410
 Vibration    14          0.712              1.618              1.265
 Vibration    15          0.739              1.541              1.094
 Vibration    16          0.763              1.478              0.976
 Vibration    17          0.763              1.477              0.974
 Vibration    18          0.776              1.444              0.919
 Vibration    19          0.824              1.324              0.747
 Vibration    20          0.862              1.236              0.643
 Vibration    21          0.887              1.180              0.584
 Vibration    22          0.917              1.115              0.521
 Vibration    23          0.947              1.055              0.469
 Vibration    24          0.972              1.005              0.428

 Optimization completed.
    -- Stationary point found.
 Normal termination of Gaussian 16 at Thu Dec 10 10:38:02 2020.

 ----------------------------------------------------------------------
 # B3LYP/6-311++G(d,p) empiricaldispersion=gd3bj scf=xqc pop=npa geom=c
 heck
 ----------------------------------------------------------------------

 ---------------------------------------
 CID_131024908_JID_4736_Energie_neutraal
 ---------------------------------------
 Structure from the checkpoint file:  "JID_4736.chk"
 Charge =  0 Multiplicity = 1

 SCF Done:  E(RB3LYP) =  -614.969528216     A.U. after   15 cycles
 Normal termination of Gaussian 16 at Thu Dec 10 10:42:10 2020.

 ----------------------------------------------------------------------
 # B3LYP/6-311++G(d,p) empiricaldispersion=gd3bj scf=xqc pop=npa geom=c
 heck
 ----------------------------------------------------------------------

 -------------------------------------
 CID_131024908_JID_4736_Energie_kation
 -------------------------------------
 Structure from the checkpoint file:  "JID_4736.chk"
 Charge =  1 Multiplicity = 2

 SCF Done:  E(UB3LYP) =  -614.678885739     A.U. after   23 cycles
 Normal termination of Gaussian 16 at Thu Dec 10 10:49:56 2020.
 Gaussian 16:  ES64L-G16RevA.03 25-Dec-2016

 ----------------------------------------------------------------------
 # B3LYP/6-311++G(d,p) empiricaldispersion=gd3bj scf=xqc pop=npa geom=c
 heck
 ----------------------------------------------------------------------

 ------------------------------------
 CID_131024908_JID_4736_Energie_anion
 ------------------------------------
 Structure from the checkpoint file:  "JID_4736.chk"
 Charge = -1 Multiplicity = 2

                         Standard orientation:
 ---------------------------------------------------------------------
 Center     Atomic      Atomic             Coordinates (Angstroms)
 Number     Number       Type             X           Y           Z
 ---------------------------------------------------------------------
      1          6           0       -2.013459    2.571351   -0.401704
      2          6           0       -1.069515    1.450186   -0.843777
      3          6           0       -0.968720    0.223417    0.087327
      4          6           0       -2.248073   -0.644214    0.239841
      5          6           0       -2.823340   -1.101539   -1.107311
      6          6           0       -1.970742   -1.849281    1.147507
      7          8           0       -3.189549    0.221233    0.892457
      8          7           0        0.138345   -0.639163   -0.326937
      9          6           0        1.465631   -0.316595   -0.128924
     10          6           0        1.904742    0.639919    0.805092
     11          6           0        3.271856    0.850116    0.959746
     12          7           0        4.230993    0.211598    0.278188
     13          6           0        3.801077   -0.694809   -0.613723
     14          6           0        2.467789   -0.991045   -0.854812
     15          1           0       -3.056931    2.253382   -0.412228
     16          1           0       -1.900773    3.439521   -1.061027
     17          1           0       -1.783828    2.893731    0.620500
     18          1           0       -1.331849    1.110936   -1.854762
     19          1           0       -0.052395    1.853739   -0.921727
     20          1           0       -0.749738    0.571618    1.101533
     21          1           0       -2.112177   -1.713074   -1.675791
     22          1           0       -3.713138   -1.721264   -0.942718
     23          1           0       -3.115800   -0.245092   -1.720002
     24          1           0       -1.554506   -1.514271    2.102669
     25          1           0       -2.907597   -2.384736    1.349398
     26          1           0       -1.266971   -2.550956    0.694264
     27          1           0       -3.988948   -0.301610    1.062275
     28          1           0       -0.029956   -1.139208   -1.191423
     29          1           0        1.204855    1.213790    1.400844
     30          1           0        3.614321    1.589971    1.682158
     31          1           0        4.575470   -1.216697   -1.174184
     32          1           0        2.197510   -1.741712   -1.593762
 ---------------------------------------------------------------------

 SCF Done:  E(UB3LYP) =  -614.961845064     A.U. after   33 cycles
 SCF Done:  E(UB3LYP) =  -614.961845064     a.u. after    1 cycles

 The electronic state is 2-A.
 Alpha  occ. eigenvalues --  -19.01966 -14.23670 -14.20739 -10.13922 -10.13484
 Alpha  occ. eigenvalues --  -10.11662 -10.11502 -10.11262 -10.08411 -10.08179
 Alpha  occ. eigenvalues --  -10.07433 -10.06191 -10.05745 -10.05665  -0.92670
 Alpha  occ. eigenvalues --   -0.86091  -0.83869  -0.71844  -0.67511  -0.66838
 Alpha  occ. eigenvalues --   -0.66587  -0.59615  -0.58971  -0.54410  -0.52563
 Alpha  occ. eigenvalues --   -0.51878  -0.47062  -0.45518  -0.40840  -0.38974
 Alpha  occ. eigenvalues --   -0.38130  -0.37799  -0.35864  -0.35371  -0.34441
 Alpha  occ. eigenvalues --   -0.33625  -0.32691  -0.31706  -0.31330  -0.30263
 Alpha  occ. eigenvalues --   -0.29317  -0.28081  -0.26797  -0.26370  -0.26138
 Alpha  occ. eigenvalues --   -0.25509  -0.24789  -0.22890  -0.21558  -0.17714
 Alpha  occ. eigenvalues --   -0.17379  -0.16875  -0.12901   0.04113
 Alpha virt. eigenvalues --    0.06586   0.07001   0.07087   0.07464   0.07899
 Alpha virt. eigenvalues --    0.08619   0.09200   0.09781   0.10304   0.10412
 Alpha virt. eigenvalues --    0.10913   0.12158   0.12197   0.12833   0.13365

  Beta  occ. eigenvalues --  -19.01926 -14.23642 -14.20739 -10.13923 -10.13481
  Beta  occ. eigenvalues --  -10.11657 -10.11499 -10.11259 -10.08404 -10.08159
  Beta  occ. eigenvalues --  -10.07421 -10.06180 -10.05681 -10.05630  -0.92586
  Beta  occ. eigenvalues --   -0.86062  -0.83852  -0.71821  -0.67486  -0.66809
  Beta  occ. eigenvalues --   -0.66552  -0.59542  -0.58916  -0.54378  -0.52540
  Beta  occ. eigenvalues --   -0.51820  -0.46988  -0.45486  -0.40797  -0.38919
  Beta  occ. eigenvalues --   -0.38092  -0.37775  -0.35818  -0.35328  -0.34416
  Beta  occ. eigenvalues --   -0.33600  -0.32651  -0.31675  -0.31285  -0.30235
  Beta  occ. eigenvalues --   -0.29282  -0.28043  -0.26769  -0.26331  -0.26101
  Beta  occ. eigenvalues --   -0.25468  -0.24753  -0.22871  -0.21516  -0.17671
  Beta  occ. eigenvalues --   -0.17367  -0.16867  -0.12878
  Beta virt. eigenvalues --    0.06527   0.07069   0.07453   0.07517   0.07639
  Beta virt. eigenvalues --    0.08148   0.09079   0.09626   0.10102   0.10734
  Beta virt. eigenvalues --    0.10873   0.11189   0.12496   0.12644   0.13014

 Mulliken charges and spin densities:
               1          2
     1  C   -0.513601  -0.186671
     2  C    0.334625  -0.449589
     3  C    0.594127  -0.922639
     4  C   -2.226162   1.985695
     5  C    1.488681  -1.918222
     6  C    1.334188  -1.742884
     7  O   -0.081919  -0.020201
     8  N    0.425060  -0.104044
     9  C    0.867554  -1.864771
    10  C    0.376267   0.335435
    11  C   -0.597105  -0.006164
    12  N   -0.128446   0.016865
    13  C    0.262713  -0.911573
    14  C   -1.315912   1.880103
    15  H    0.097035   0.093834
    16  H    0.037535   0.086612
    17  H    0.061928   0.064289
    18  H   -0.096727   0.261042
    19  H    0.183930  -0.029766
    20  H    0.128406   0.079115
    21  H   -1.003280   1.167395
    22  H   -0.613173   0.770436
    23  H    0.061733   0.111529
    24  H    0.026476   0.138898
    25  H   -0.439948   0.588761
    26  H    0.015204   0.139504
    27  H   -0.206829   0.464521
    28  H    0.617926  -0.352553
    29  H    0.111880   0.041424
    30  H    0.086730   0.065842
    31  H    0.077999   0.079895
    32  H   -0.966894   1.137884
 Sum of Mulliken charges =  -1.00000   1.00000

 Dipole moment (field-independent basis, Debye):
    X=              4.4090    Y=              5.3907    Z=              2.4801  Tot=              7.3925
 Quadrupole moment (field-independent basis, Debye-Ang):
   XX=           -175.7309   YY=           -128.2511   ZZ=           -122.0092
   XY=            -11.1379   XZ=              0.6505   YZ=             -5.5006

 Summary of Natural Population Analysis:

                                       Natural Population
                Natural  -----------------------------------------------
    Atom  No    Charge         Core      Valence    Rydberg      Total
 -----------------------------------------------------------------------
      C    1   -0.28457      0.99966     2.28063    0.00428     3.28457
      C    2   -0.19677      0.99961     2.18897    0.00819     3.19677
      C    3   -0.00977      0.99952     1.99606    0.01418     3.00977
      C    4    0.12803      0.99953     1.85624    0.01620     2.87197
      C    5   -0.30186      0.99961     2.29452    0.00774     3.30186
      C    6   -0.29431      0.99961     2.28760    0.00710     3.29431
      O    7   -0.38029      0.99989     3.37349    0.00691     4.38029
      N    8   -0.30767      0.99966     2.79626    0.01176     3.80767
      C    9    0.11072      0.99950     1.87824    0.01154     2.88928
      C   10   -0.15596      0.99951     2.14948    0.00696     3.15596
      C   11    0.03189      0.99960     1.95426    0.01425     2.96811
      N   12   -0.25955      0.99972     2.74802    0.01181     3.75955
      C   13    0.02755      0.99959     1.95714    0.01572     2.97245
      C   14   -0.14203      0.99952     2.13276    0.00976     3.14203
      H   15    0.10944      0.00000     0.38943    0.00113     0.39056
      H   16    0.09300      0.00000     0.40621    0.00078     0.40700
      H   17    0.09501      0.00000     0.40410    0.00089     0.40499
      H   18    0.09874      0.00000     0.40008    0.00118     0.40126
      H   19    0.09835      0.00000     0.40041    0.00124     0.40165
      H   20    0.09967      0.00000     0.39815    0.00218     0.40033
      H   21    0.10354      0.00000     0.39301    0.00345     0.39646
      H   22    0.10720      0.00000     0.38981    0.00299     0.39280
      H   23    0.10360      0.00000     0.39494    0.00145     0.39640
      H   24    0.10047      0.00000     0.39851    0.00101     0.39953
      H   25    0.10155      0.00000     0.39696    0.00148     0.39845
      H   26    0.10819      0.00000     0.39056    0.00125     0.39181
      H   27    0.23384      0.00000     0.26081    0.00535     0.26616
      H   28    0.19282      0.00000     0.30283    0.00434     0.30718
      H   29    0.10532      0.00000     0.39367    0.00101     0.39468
      H   30    0.08700      0.00000     0.41188    0.00111     0.41300
      H   31    0.08902      0.00000     0.40970    0.00128     0.41098
      H   32    0.10781      0.00000     0.39050    0.00168     0.39219
 =======================================================================
   * Total *   -0.00000     13.99453    38.82523    0.18025    53.00000

 Normal termination of Gaussian 16 at Thu Dec 10 11:01:16 2020.
