 Gaussian 16, Revision A.03,

 -----------------------------------------------------------
 # opt freq B3LYP/6-31G(d) empiricaldispersion=gd3bj scf=xqc
 -----------------------------------------------------------

 -------------------------------
 CID_140057448_JID_4334_neutraal
 -------------------------------
 Symbolic Z-matrix:
 Charge =  0 Multiplicity = 1

 SCF Done:  E(RB3LYP) =  -602.355389371     A.U. after   12 cycles
 SCF Done:  E(RB3LYP) =  -602.359510565     A.U. after   11 cycles
 SCF Done:  E(RB3LYP) =  -602.359861638     A.U. after   10 cycles
 SCF Done:  E(RB3LYP) =  -602.360554069     A.U. after   10 cycles
 SCF Done:  E(RB3LYP) =  -602.361539857     A.U. after   11 cycles
 SCF Done:  E(RB3LYP) =  -602.360993273     A.U. after   11 cycles
 SCF Done:  E(RB3LYP) =  -602.363084507     A.U. after   11 cycles
 SCF Done:  E(RB3LYP) =  -602.363616333     A.U. after   11 cycles
 SCF Done:  E(RB3LYP) =  -602.363778886     A.U. after   10 cycles
 SCF Done:  E(RB3LYP) =  -602.363947050     A.U. after   10 cycles
 SCF Done:  E(RB3LYP) =  -602.364013767     A.U. after   10 cycles
 SCF Done:  E(RB3LYP) =  -602.364018990     A.U. after    9 cycles
 SCF Done:  E(RB3LYP) =  -602.364019842     A.U. after    7 cycles
 SCF Done:  E(RB3LYP) =  -602.364020073     A.U. after    7 cycles
 SCF Done:  E(RB3LYP) =  -602.364020148     A.U. after    6 cycles
 Optimization completed.
    -- Stationary point found.
 Normal termination of Gaussian 16 at Thu Dec 10 09:29:18 2020.

 --------------------------------------------------------------------
 #N Geom=AllCheck Guess=TCheck SCRF=Check GenChk RB3LYP/6-31G(d) Freq
 --------------------------------------------------------------------

 Structure from the checkpoint file:  "JID_4334.chk"
 -------------------------------
 CID_140057448_JID_4334_neutraal
 -------------------------------
 Charge =  0 Multiplicity = 1

 SCF Done:  E(RB3LYP) =  -602.364020148     A.U. after    1 cycles

  Exact polarizability: 160.876   0.610 123.576  -1.516   0.501 118.459
 Approx polarizability: 186.130  -0.832 181.010  -2.205  -0.660 181.057

                      1                      2                      3
                      A                      A                      A
 Frequencies --     37.2573                45.5563                54.5919
 Red. masses --      3.6390                 3.3681                 3.0302
 Frc consts  --      0.0030                 0.0041                 0.0053
 IR Inten    --      0.3299                 0.6317                 0.7697

                      4                      5                      6
                      A                      A                      A
 Frequencies --     69.0602                90.2739               110.1489
 Red. masses --      3.4753                 3.7150                 2.7675
 Frc consts  --      0.0098                 0.0178                 0.0198
 IR Inten    --      0.5241                 1.8446                 1.1726

                      7                      8                      9
                      A                      A                      A
 Frequencies --    126.9975               177.5887               213.1492
 Red. masses --      3.4397                 1.8240                 2.9858
 Frc consts  --      0.0327                 0.0339                 0.0799
 IR Inten    --      0.9197                 0.2082                 3.5640

                     10                     11                     12
                      A                      A                      A
 Frequencies --    242.5043               257.8140               291.8935
 Red. masses --      1.6848                 2.9071                 1.8676
 Frc consts  --      0.0584                 0.1138                 0.0938
 IR Inten    --      0.1830                 0.7860                 0.0248

                     13                     14                     15
                      A                      A                      A
 Frequencies --    319.9376               334.3000               365.0400
 Red. masses --      1.9733                 2.0397                 1.8944
 Frc consts  --      0.1190                 0.1343                 0.1487
 IR Inten    --      0.2639                 0.0911                 0.7520

                     16                     17                     18
                      A                      A                      A
 Frequencies --    394.0216               421.2658               439.5642
 Red. masses --      1.8796                 2.1332                 2.2352
 Frc consts  --      0.1719                 0.2230                 0.2545
 IR Inten    --      0.1348                 1.8394                 0.4577

                     19                     20                     21
                      A                      A                      A
 Frequencies --    464.3401               539.2722               542.4180
 Red. masses --      1.8999                 1.6524                 1.3562
 Frc consts  --      0.2413                 0.2831                 0.2351
 IR Inten    --      0.4809                54.2449                88.0823

                     22                     23                     24
                      A                      A                      A
 Frequencies --    592.7743               605.6992               709.4124
 Red. masses --      2.7261                 2.2345                 1.4230
 Frc consts  --      0.5644                 0.4830                 0.4219
 IR Inten    --     34.0530                18.3876                22.5754

                     25                     26                     27
                      A                      A                      A
 Frequencies --    730.0737               742.7504               787.5613
 Red. masses --      2.1128                 1.5393                 1.7745
 Frc consts  --      0.6635                 0.5003                 0.6485
 IR Inten    --     12.9500                 0.0719                 8.8015

                     28                     29                     30
                      A                      A                      A
 Frequencies --    790.9718               820.9174               837.0688
 Red. masses --      3.1509                 2.3239                 1.9381
 Frc consts  --      1.1615                 0.9227                 0.8001
 IR Inten    --      2.6460                 4.0507                 3.8352

                     31                     32                     33
                      A                      A                      A
 Frequencies --    858.4498               878.5457               892.8758
 Red. masses --      2.2086                 2.0848                 2.0170
 Frc consts  --      0.9590                 0.9481                 0.9474
 IR Inten    --      6.1107                23.1139                 2.3079

                     34                     35                     36
                      A                      A                      A
 Frequencies --    910.4749               918.0652               959.7688
 Red. masses --      1.7117                 2.0708                 1.6106
 Frc consts  --      0.8360                 1.0284                 0.8741
 IR Inten    --     14.8224                 2.3077                 3.5664

                     37                     38                     39
                      A                      A                      A
 Frequencies --    981.0346               983.4437               997.1205
 Red. masses --      2.0442                 2.0834                 1.6794
 Frc consts  --      1.1591                 1.1872                 0.9838
 IR Inten    --      9.6729                 5.9179                 1.0710

                     40                     41                     42
                      A                      A                      A
 Frequencies --   1026.3527              1041.3330              1049.1101
 Red. masses --      1.6543                 2.0471                 1.7677
 Frc consts  --      1.0267                 1.3079                 1.1463
 IR Inten    --     12.2943                 3.0989                 8.0753

                     43                     44                     45
                      A                      A                      A
 Frequencies --   1066.0118              1077.5082              1087.1426
 Red. masses --      1.6488                 2.2430                 1.6694
 Frc consts  --      1.1039                 1.5344                 1.1625
 IR Inten    --      6.3643                 8.8236                13.9202

                     46                     47                     48
                      A                      A                      A
 Frequencies --   1104.0709              1115.5695              1136.1934
 Red. masses --      1.6241                 1.9457                 1.7188
 Frc consts  --      1.1664                 1.4267                 1.3073
 IR Inten    --     12.0538                 7.7533                 1.4145

                     49                     50                     51
                      A                      A                      A
 Frequencies --   1145.1649              1160.2773              1188.6773
 Red. masses --      1.9569                 2.1198                 1.3404
 Frc consts  --      1.5120                 1.6814                 1.1158
 IR Inten    --     15.9463                 5.4753                 4.2267

                     52                     53                     54
                      A                      A                      A
 Frequencies --   1209.0564              1222.4764              1224.5184
 Red. masses --      1.1881                 1.3455                 1.2867
 Frc consts  --      1.0232                 1.1848                 1.1367
 IR Inten    --     38.7672                 4.1898                11.2816

                     55                     56                     57
                      A                      A                      A
 Frequencies --   1261.8217              1278.6437              1286.7816
 Red. masses --      1.2992                 1.5031                 1.5067
 Frc consts  --      1.2187                 1.4479                 1.4699
 IR Inten    --      3.1657                22.5664                 4.1855

                     58                     59                     60
                      A                      A                      A
 Frequencies --   1291.5084              1313.0574              1327.8124
 Red. masses --      1.2469                 1.1835                 1.3438
 Frc consts  --      1.2254                 1.2023                 1.3959
 IR Inten    --      3.0383                 2.9905                 9.3876

                     61                     62                     63
                      A                      A                      A
 Frequencies --   1337.4734              1348.8790              1357.5858
 Red. masses --      1.1641                 1.4157                 1.1279
 Frc consts  --      1.2269                 1.5176                 1.2248
 IR Inten    --      0.2423                 6.7607                 7.4798

                     64                     65                     66
                      A                      A                      A
 Frequencies --   1376.3104              1382.0740              1393.9989
 Red. masses --      1.6112                 1.3205                 1.5242
 Frc consts  --      1.7982                 1.4861                 1.7451
 IR Inten    --      1.1987                18.2426                 0.2680

                     67                     68                     69
                      A                      A                      A
 Frequencies --   1401.3283              1406.0025              1415.7479
 Red. masses --      1.3228                 1.4232                 1.4141
 Frc consts  --      1.5305                 1.6576                 1.6699
 IR Inten    --      2.7572                 1.1975                 1.1254

                     70                     71                     72
                      A                      A                      A
 Frequencies --   1419.3586              1432.5777              1435.0798
 Red. masses --      1.3798                 1.3705                 1.4015
 Frc consts  --      1.6377                 1.6571                 1.7006
 IR Inten    --      0.6070                 4.8750                 3.7071

                     73                     74                     75
                      A                      A                      A
 Frequencies --   1443.2707              1445.4921              1463.7472
 Red. masses --      1.2753                 1.3400                 1.3282
 Frc consts  --      1.5651                 1.6497                 1.6766
 IR Inten    --      3.6547                34.3071                45.1303

                     76                     77                     78
                      A                      A                      A
 Frequencies --   1505.1226              1513.1151              1516.3920
 Red. masses --      1.0777                 1.0882                 1.0841
 Frc consts  --      1.4385                 1.4680                 1.4687
 IR Inten    --      0.0835                 2.0387                 3.6824

                     79                     80                     81
                      A                      A                      A
 Frequencies --   1518.5274              1522.3847              1529.7968
 Red. masses --      1.0872                 1.0768                 1.0700
 Frc consts  --      1.4771                 1.4705                 1.4753
 IR Inten    --      9.1425                 0.8823                16.1036

                     82                     83                     84
                      A                      A                      A
 Frequencies --   1533.6375              1536.6323              1538.8062
 Red. masses --      1.0667                 1.0691                 1.1037
 Frc consts  --      1.4782                 1.4873                 1.5398
 IR Inten    --      6.4913                 1.3929                 4.2540

                     85                     86                     87
                      A                      A                      A
 Frequencies --   1544.9170              1552.2597              2939.5129
 Red. masses --      1.0746                 1.0883                 1.0835
 Frc consts  --      1.5112                 1.5450                 5.5159
 IR Inten    --      1.6859                 2.2074                57.7993

                     88                     89                     90
                      A                      A                      A
 Frequencies --   2954.2288              3022.7445              3025.7738
 Red. masses --      1.0725                 1.0682                 1.0635
 Frc consts  --      5.5151                 5.7506                 5.7366
 IR Inten    --    111.0531                38.7240                27.3933

                     91                     92                     93
                      A                      A                      A
 Frequencies --   3033.0301              3035.3546              3040.0909
 Red. masses --      1.0655                 1.0623                 1.0663
 Frc consts  --      5.7752                 5.7664                 5.8065
 IR Inten    --     19.1604                35.0512                 7.4452

                     94                     95                     96
                      A                      A                      A
 Frequencies --   3042.3453              3044.7878              3051.0831
 Red. masses --      1.0578                 1.0460                 1.0654
 Frc consts  --      5.7687                 5.7134                 5.8432
 IR Inten    --      8.4232                21.4126                33.5259

                     97                     98                     99
                      A                      A                      A
 Frequencies --   3058.0792              3063.9398              3067.6108
 Red. masses --      1.0983                 1.0964                 1.0967
 Frc consts  --      6.0518                 6.0645                 6.0804
 IR Inten    --      9.0150                54.8601                39.4833

                    100                    101                    102
                      A                      A                      A
 Frequencies --   3074.7677              3077.3842              3078.7904
 Red. masses --      1.0979                 1.0999                 1.0723
 Frc consts  --      6.1157                 6.1373                 5.9888
 IR Inten    --     38.3313               140.6772                26.8748

                    103                    104                    105
                      A                      A                      A
 Frequencies --   3085.3155              3106.3584              3108.5255
 Red. masses --      1.0969                 1.0933                 1.1014
 Frc consts  --      6.1520                 6.2157                 6.2703
 IR Inten    --     36.5635                29.5982                49.3593

                    106                    107                    108
                      A                      A                      A
 Frequencies --   3108.8904              3116.5128              3120.8359
 Red. masses --      1.0906                 1.1019                 1.0884
 Frc consts  --      6.2106                 6.3056                 6.2457
 IR Inten    --     29.7830                52.5036                55.7171

                    109                    110                    111
                      A                      A                      A
 Frequencies --   3162.7312              3521.0547              3680.0674
 Red. masses --      1.0940                 1.0753                 1.0650
 Frc consts  --      6.4475                 7.8545                 8.4976
 IR Inten    --     12.2172                 0.3759                20.6746

 - Thermochemistry -
 -------------------
 Temperature   298.150 Kelvin.  Pressure   1.00000 Atm.
 Atom     1 has atomic number  6 and mass  12.00000

 Molecular mass:   199.19361 amu.
 Principal axes and moments of inertia in atomic units:
                           1         2         3
     Eigenvalues --  1214.472066718.592907142.47249
           X            0.99997   0.00758  -0.00110
           Y           -0.00756   0.99980   0.01865
           Z            0.00124  -0.01864   0.99983
 This molecule is an asymmetric top.
 Rotational symmetry number  1.
 Warning -- assumption of classical behavior for rotation
           may cause significant error
 Rotational temperatures (Kelvin)      0.07132     0.01289     0.01213
 Rotational constants (GHZ):           1.48603     0.26862     0.25268
 Zero-point vibrational energy     960825.2 (Joules/Mol)
                                  229.64273 (Kcal/Mol)
 Warning -- explicit consideration of  23 degrees of freedom as
           vibrations may cause significant error
 Vibrational temperatures:     53.60    65.55    78.55    99.36   129.88
          (Kelvin)            158.48   182.72   255.51   306.67   348.91
                              370.94   419.97   460.32   480.98   525.21
                              566.91   606.11   632.43   668.08   775.89
                              780.42   852.87   871.47  1020.69  1050.41
                             1068.65  1133.12  1138.03  1181.12  1204.36
                             1235.12  1264.03  1284.65  1309.97  1320.89
                             1380.89  1411.49  1414.96  1434.63  1476.69
                             1498.25  1509.44  1533.75  1550.29  1564.16
                             1588.51  1605.06  1634.73  1647.64  1669.38
                             1710.24  1739.56  1758.87  1761.81  1815.48
                             1839.68  1851.39  1858.19  1889.20  1910.43
                             1924.33  1940.74  1953.26  1980.20  1988.50
                             2005.65  2016.20  2022.92  2036.95  2042.14
                             2061.16  2064.76  2076.54  2079.74  2106.01
                             2165.54  2177.04  2181.75  2184.82  2190.37
                             2201.04  2206.56  2210.87  2214.00  2222.79
                             2233.36  4229.30  4250.48  4349.06  4353.41
                             4363.85  4367.20  4374.01  4377.26  4380.77
                             4389.83  4399.89  4408.33  4413.61  4423.90
                             4427.67  4429.69  4439.08  4469.36  4472.47
                             4473.00  4483.97  4490.19  4550.46  5066.01
                             5294.80

 Zero-point correction=                           0.365959 (Hartree/Particle)
 Thermal correction to Energy=                    0.381402
 Thermal correction to Enthalpy=                  0.382346
 Thermal correction to Gibbs Free Energy=         0.322499
 Sum of electronic and zero-point Energies=           -601.998061
 Sum of electronic and thermal Energies=              -601.982618
 Sum of electronic and thermal Enthalpies=            -601.981674
 Sum of electronic and thermal Free Energies=         -602.041521

                     E (Thermal)             CV                S
                      KCal/Mol        Cal/Mol-Kelvin    Cal/Mol-Kelvin
 Total                  239.333             59.637            125.958
 Electronic               0.000              0.000              0.000
 Translational            0.889              2.981             41.772
 Rotational               0.889              2.981             32.433
 Vibrational            237.556             53.675             51.754
 Vibration     1          0.594              1.982              5.400
 Vibration     2          0.595              1.979              5.002
 Vibration     3          0.596              1.976              4.644
 Vibration     4          0.598              1.969              4.180
 Vibration     5          0.602              1.956              3.654
 Vibration     6          0.606              1.941              3.266
 Vibration     7          0.611              1.926              2.991
 Vibration     8          0.628              1.870              2.354
 Vibration     9          0.644              1.821              2.017
 Vibration    10          0.659              1.775              1.784
 Vibration    11          0.667              1.750              1.677
 Vibration    12          0.687              1.689              1.463
 Vibration    13          0.706              1.635              1.310
 Vibration    14          0.716              1.607              1.239
 Vibration    15          0.738              1.544              1.101
 Vibration    16          0.761              1.483              0.985
 Vibration    17          0.784              1.424              0.888
 Vibration    18          0.800              1.384              0.828
 Vibration    19          0.822              1.329              0.754
 Vibration    20          0.894              1.163              0.567
 Vibration    21          0.898              1.156              0.560
 Vibration    22          0.950              1.047              0.462
 Vibration    23          0.964              1.020              0.440

 Optimization completed.
    -- Stationary point found.
 Normal termination of Gaussian 16 at Thu Dec 10 09:42:35 2020.

 ----------------------------------------------------------------------
 # B3LYP/6-311++G(d,p) empiricaldispersion=gd3bj scf=xqc pop=npa geom=c
 heck
 ----------------------------------------------------------------------

 ---------------------------------------
 CID_140057448_JID_4334_Energie_neutraal
 ---------------------------------------
 Structure from the checkpoint file:  "JID_4334.chk"
 Charge =  0 Multiplicity = 1

 SCF Done:  E(RB3LYP) =  -602.543601761     A.U. after   13 cycles
 Normal termination of Gaussian 16 at Thu Dec 10 09:49:01 2020.

 ----------------------------------------------------------------------
 # B3LYP/6-311++G(d,p) empiricaldispersion=gd3bj scf=xqc pop=npa geom=c
 heck
 ----------------------------------------------------------------------

 -------------------------------------
 CID_140057448_JID_4334_Energie_kation
 -------------------------------------
 Structure from the checkpoint file:  "JID_4334.chk"
 Charge =  1 Multiplicity = 2

 SCF Done:  E(UB3LYP) =  -602.229188753     A.U. after   23 cycles
 Normal termination of Gaussian 16 at Thu Dec 10 10:05:24 2020.
 Gaussian 16:  ES64L-G16RevA.03 25-Dec-2016

 ----------------------------------------------------------------------
 # B3LYP/6-311++G(d,p) empiricaldispersion=gd3bj scf=xqc pop=npa geom=c
 heck
 ----------------------------------------------------------------------

 ------------------------------------
 CID_140057448_JID_4334_Energie_anion
 ------------------------------------
 Structure from the checkpoint file:  "JID_4334.chk"
 Charge = -1 Multiplicity = 2

                         Standard orientation:
 ---------------------------------------------------------------------
 Center     Atomic      Atomic             Coordinates (Angstroms)
 Number     Number       Type             X           Y           Z
 ---------------------------------------------------------------------
      1          6           0        5.144264    1.010125    0.476703
      2          6           0        4.283664    0.576757   -0.713730
      3          6           0        3.556383   -0.759891   -0.502784
      4          6           0        2.595006   -0.797495    0.696123
      5          6           0        1.494800    0.275619    0.678809
      6          6           0        0.597320    0.268543   -0.568139
      7          6           0       -0.107306   -1.067988   -0.860981
      8          6           0       -0.966534   -1.680137    0.258693
      9          6           0       -2.318304   -1.015054    0.562485
     10          6           0       -2.301672    0.386833    1.244500
     11          6           0       -3.205900    1.271508    0.356352
     12          6           0       -4.117392    0.225656   -0.295612
     13          7           0       -3.111716   -0.775991   -0.661616
     14          8           0       -2.469150    1.965178   -0.645473
     15          1           0        4.535713    1.204508    1.366808
     16          1           0        5.699259    1.927444    0.250636
     17          1           0        5.873912    0.233490    0.738257
     18          1           0        3.553434    1.364337   -0.940974
     19          1           0        4.919062    0.489757   -1.604967
     20          1           0        3.006580   -1.010794   -1.419343
     21          1           0        4.305208   -1.553958   -0.372733
     22          1           0        2.134622   -1.793217    0.740122
     23          1           0        3.167956   -0.695221    1.626712
     24          1           0        0.878193    0.152271    1.579022
     25          1           0        1.951644    1.269521    0.770639
     26          1           0       -0.137935    1.074248   -0.477859
     27          1           0        1.204680    0.522755   -1.447054
     28          1           0       -0.738566   -0.947505   -1.749039
     29          1           0        0.654793   -1.810911   -1.129713
     30          1           0       -1.174753   -2.722587   -0.022094
     31          1           0       -0.397786   -1.738853    1.195616
     32          1           0       -2.859204   -1.700316    1.239630
     33          1           0       -2.713640    0.313315    2.256451
     34          1           0       -1.305285    0.821048    1.326780
     35          1           0       -3.747759    2.032886    0.922137
     36          1           0       -4.633722    0.616276   -1.177587
     37          1           0       -4.869718   -0.141815    0.426950
     38          1           0       -3.513922   -1.633229   -1.032076
     39          1           0       -2.183521    1.270213   -1.265739
 ---------------------------------------------------------------------

 SCF Done:  E(UB3LYP) =  -602.531486127     A.U. after   26 cycles

 The electronic state is 2-A.
 Alpha  occ. eigenvalues --  -19.01990 -14.20048 -10.12246 -10.09664 -10.09308
 Alpha  occ. eigenvalues --  -10.07570 -10.07120 -10.07039 -10.06855 -10.06748
 Alpha  occ. eigenvalues --  -10.06452 -10.06299 -10.06282 -10.06171  -0.92756
 Alpha  occ. eigenvalues --   -0.81856  -0.72204  -0.69402  -0.66154  -0.65318
 Alpha  occ. eigenvalues --   -0.62539  -0.59528  -0.56532  -0.52932  -0.50222
 Alpha  occ. eigenvalues --   -0.48777  -0.46339  -0.44179  -0.42139  -0.39089
 Alpha  occ. eigenvalues --   -0.38789  -0.38213  -0.36277  -0.35064  -0.34475
 Alpha  occ. eigenvalues --   -0.33350  -0.31983  -0.31691  -0.30780  -0.30050
 Alpha  occ. eigenvalues --   -0.28986  -0.28370  -0.27948  -0.27408  -0.26163
 Alpha  occ. eigenvalues --   -0.25521  -0.25157  -0.23912  -0.23878  -0.23033
 Alpha  occ. eigenvalues --   -0.22420  -0.21365  -0.21186  -0.20924  -0.17510
 Alpha  occ. eigenvalues --   -0.13412   0.04133
 Alpha virt. eigenvalues --    0.05504   0.07000   0.07232   0.07832   0.08187
 Alpha virt. eigenvalues --    0.08434   0.09520   0.10023   0.10134   0.10432
 Alpha virt. eigenvalues --    0.10575   0.11000   0.11449   0.12410   0.12852

  Beta  occ. eigenvalues --  -19.01985 -14.20012 -10.12241 -10.09644 -10.09284
  Beta  occ. eigenvalues --  -10.07560 -10.07108 -10.07014 -10.06845 -10.06741
  Beta  occ. eigenvalues --  -10.06438 -10.06296 -10.06264 -10.06164  -0.92743
  Beta  occ. eigenvalues --   -0.81813  -0.72185  -0.69376  -0.66118  -0.65276
  Beta  occ. eigenvalues --   -0.62505  -0.59490  -0.56493  -0.52889  -0.50173
  Beta  occ. eigenvalues --   -0.48745  -0.46285  -0.44134  -0.42070  -0.39060
  Beta  occ. eigenvalues --   -0.38767  -0.38190  -0.36239  -0.35031  -0.34441
  Beta  occ. eigenvalues --   -0.33310  -0.31948  -0.31668  -0.30751  -0.30023
  Beta  occ. eigenvalues --   -0.28954  -0.28345  -0.27921  -0.27384  -0.26135
  Beta  occ. eigenvalues --   -0.25493  -0.25134  -0.23888  -0.23852  -0.23002
  Beta  occ. eigenvalues --   -0.22397  -0.21342  -0.21165  -0.20897  -0.17491
  Beta  occ. eigenvalues --   -0.13339
  Beta virt. eigenvalues --    0.05958   0.06793   0.07350   0.07554   0.08401
  Beta virt. eigenvalues --    0.08571   0.08840   0.09809   0.10276   0.10544
  Beta virt. eigenvalues --    0.10716   0.10757   0.11220   0.11777   0.12663

 Mulliken charges and spin densities:
               1          2
     1  C    0.408713  -1.051289
     2  C   -0.388350   0.210188
     3  C    0.089860  -0.355385
     4  C   -0.253470  -0.018910
     5  C   -0.222722  -0.106302
     6  C    0.541911  -0.623630
     7  C   -0.517401   0.174290
     8  C   -0.539461   0.031143
     9  C    0.855889  -0.814151
    10  C    0.693659  -1.206121
    11  C   -1.083145   0.811005
    12  C    1.152641  -1.470893
    13  N   -0.359559   0.183050
    14  O   -0.136672  -0.031231
    15  H   -0.067883   0.203868
    16  H   -0.099433   0.232653
    17  H   -0.117044   0.253804
    18  H    0.126904  -0.002828
    19  H   -0.144874   0.293249
    20  H   -0.010931   0.142762
    21  H   -0.119508   0.275950
    22  H   -0.119458   0.279486
    23  H   -0.012403   0.172340
    24  H    0.041399   0.097641
    25  H    0.152122   0.019983
    26  H    0.100814   0.009364
    27  H    0.115607   0.053456
    28  H    0.032029   0.120341
    29  H    0.141963   0.009399
    30  H   -0.411916   0.605405
    31  H    0.148820  -0.031599
    32  H   -0.530962   0.747392
    33  H   -0.220017   0.384260
    34  H    0.083875   0.061807
    35  H   -0.057723   0.263321
    36  H   -0.037046   0.217238
    37  H   -0.364530   0.493189
    38  H   -0.152131   0.414311
    39  H    0.280434  -0.048551
 Sum of Mulliken charges =  -1.00000   1.00000

 Dipole moment (field-independent basis, Debye):
    X=              2.4585    Y=              2.8167    Z=             -1.2490  Tot=              3.9418
 Quadrupole moment (field-independent basis, Debye-Ang):
   XX=           -198.8247   YY=           -136.4176   ZZ=           -123.2285
   XY=            -10.5444   XZ=              4.3023   YZ=              1.6743

 Summary of Natural Population Analysis:

                                       Natural Population
                Natural  -----------------------------------------------
    Atom  No    Charge         Core      Valence    Rydberg      Total
 -----------------------------------------------------------------------
      C    1   -0.28623      0.99967     2.28218    0.00438     3.28623
      C    2   -0.19383      0.99964     2.18543    0.00876     3.19383
      C    3   -0.19129      0.99963     2.18283    0.00884     3.19129
      C    4   -0.19413      0.99963     2.18558    0.00892     3.19413
      C    5   -0.19244      0.99963     2.18569    0.00712     3.19244
      C    6   -0.19827      0.99962     2.19145    0.00720     3.19827
      C    7   -0.19560      0.99962     2.18687    0.00910     3.19560
      C    8   -0.19262      0.99960     2.18240    0.01061     3.19262
      C    9   -0.01021      0.99961     1.99547    0.01513     3.01021
      C   10   -0.20823      0.99960     2.19994    0.00869     3.20823
      C   11    0.05909      0.99956     1.92575    0.01560     2.94091
      C   12   -0.09929      0.99961     2.08833    0.01135     3.09929
      N   13   -0.35737      0.99973     2.84436    0.01327     3.85737
      O   14   -0.37666      0.99990     3.37041    0.00635     4.37666
      H   15    0.09640      0.00000     0.40254    0.00106     0.40360
      H   16    0.09756      0.00000     0.40145    0.00099     0.40244
      H   17    0.09560      0.00000     0.40312    0.00128     0.40440
      H   18    0.09361      0.00000     0.40526    0.00113     0.40639
      H   19    0.09489      0.00000     0.40412    0.00099     0.40511
      H   20    0.09641      0.00000     0.40243    0.00116     0.40359
      H   21    0.09547      0.00000     0.40352    0.00101     0.40453
      H   22    0.09841      0.00000     0.40049    0.00110     0.40159
      H   23    0.09585      0.00000     0.40313    0.00102     0.40415
      H   24    0.09699      0.00000     0.40189    0.00112     0.40301
      H   25    0.09542      0.00000     0.40353    0.00105     0.40458
      H   26    0.10309      0.00000     0.39522    0.00169     0.39691
      H   27    0.09372      0.00000     0.40515    0.00113     0.40628
      H   28    0.10275      0.00000     0.39586    0.00140     0.39725
      H   29    0.09487      0.00000     0.40402    0.00110     0.40513
      H   30    0.10038      0.00000     0.39823    0.00139     0.39962
      H   31    0.09777      0.00000     0.40097    0.00126     0.40223
      H   32    0.08770      0.00000     0.40869    0.00361     0.41230
      H   33    0.10430      0.00000     0.39422    0.00148     0.39570
      H   34    0.10573      0.00000     0.39305    0.00121     0.39427
      H   35    0.08931      0.00000     0.40974    0.00095     0.41069
      H   36    0.09637      0.00000     0.40261    0.00102     0.40363
      H   37    0.08594      0.00000     0.41181    0.00225     0.41406
      H   38    0.18582      0.00000     0.31022    0.00396     0.31418
      H   39    0.23270      0.00000     0.26386    0.00344     0.26730
 =======================================================================
   * Total *    0.00000     13.99504    41.83182    0.17314    56.00000

 Normal termination of Gaussian 16 at Thu Dec 10 10:23:52 2020.
