 Gaussian 16, Revision A.03,

 -----------------------------------------------------------
 # opt freq B3LYP/6-31G(d) empiricaldispersion=gd3bj scf=xqc
 -----------------------------------------------------------

 ------------------------------
 CID_14190625_JID_3811_neutraal
 ------------------------------
 Symbolic Z-matrix:
 Charge =  0 Multiplicity = 1

 SCF Done:  E(RB3LYP) =  -581.641744659     A.U. after   14 cycles
 SCF Done:  E(RB3LYP) =  -581.646370899     A.U. after   11 cycles
 SCF Done:  E(RB3LYP) =  -581.647279946     A.U. after   12 cycles
 SCF Done:  E(RB3LYP) =  -581.647660131     A.U. after   12 cycles
 SCF Done:  E(RB3LYP) =  -581.647945891     A.U. after   11 cycles
 SCF Done:  E(RB3LYP) =  -581.648516525     A.U. after   12 cycles
 SCF Done:  E(RB3LYP) =  -581.648499691     A.U. after   14 cycles
 SCF Done:  E(RB3LYP) =  -581.648900955     A.U. after   12 cycles
 SCF Done:  E(RB3LYP) =  -581.648549123     A.U. after   12 cycles
 SCF Done:  E(RB3LYP) =  -581.649107179     A.U. after   12 cycles
 SCF Done:  E(RB3LYP) =  -581.649330083     A.U. after   10 cycles
 SCF Done:  E(RB3LYP) =  -581.649324171     A.U. after   10 cycles
 SCF Done:  E(RB3LYP) =  -581.649331973     A.U. after   10 cycles
 SCF Done:  E(RB3LYP) =  -581.649332065     A.U. after    8 cycles
 SCF Done:  E(RB3LYP) =  -581.649332231     A.U. after    7 cycles
 SCF Done:  E(RB3LYP) =  -581.649332240     A.U. after    6 cycles
 Optimization completed.
    -- Stationary point found.
 Normal termination of Gaussian 16 at Mon Dec 14 16:39:41 2020.

 --------------------------------------------------------------------
 #N Geom=AllCheck Guess=TCheck SCRF=Check GenChk RB3LYP/6-31G(d) Freq
 --------------------------------------------------------------------

 Structure from the checkpoint file:  "JID_3811.chk"
 ------------------------------
 CID_14190625_JID_3811_neutraal
 ------------------------------
 Charge =  0 Multiplicity = 1

 SCF Done:  E(RB3LYP) =  -581.649332240     A.U. after    1 cycles

  Exact polarizability: 159.064  -3.266 114.714  11.442   2.277 102.903
 Approx polarizability: 212.984  -5.078 154.575  27.919   3.582 155.201

                      1                      2                      3
                      A                      A                      A
 Frequencies --     21.7864                26.3466                39.9585
 Red. masses --      4.2161                 3.5001                 3.1001
 Frc consts  --      0.0012                 0.0014                 0.0029
 IR Inten    --      0.1477                 1.0551                 0.5232

                      4                      5                      6
                      A                      A                      A
 Frequencies --     62.1424                70.8807                99.3877
 Red. masses --      3.2165                 3.7293                 2.6273
 Frc consts  --      0.0073                 0.0110                 0.0153
 IR Inten    --      1.2456                 0.1432                 1.8219

                      7                      8                      9
                      A                      A                      A
 Frequencies --    121.0107               133.6031               144.7343
 Red. masses --      1.3538                 1.5907                 1.6668
 Frc consts  --      0.0117                 0.0167                 0.0206
 IR Inten    --      0.2416                 2.3245                 1.6050

                     10                     11                     12
                      A                      A                      A
 Frequencies --    167.7246               206.1579               231.2149
 Red. masses --      1.1001                 2.0956                 2.6707
 Frc consts  --      0.0182                 0.0525                 0.0841
 IR Inten    --      0.3291                 1.0429                 1.0572

                     13                     14                     15
                      A                      A                      A
 Frequencies --    251.2566               290.5884               336.6678
 Red. masses --      2.2747                 2.8075                 2.3376
 Frc consts  --      0.0846                 0.1397                 0.1561
 IR Inten    --      7.6430                 2.0397                 8.6500

                     16                     17                     18
                      A                      A                      A
 Frequencies --    350.1327               377.1976               394.9065
 Red. masses --      2.3265                 1.5535                 2.1060
 Frc consts  --      0.1680                 0.1302                 0.1935
 IR Inten    --     36.3933                71.2670                 5.6215

                     19                     20                     21
                      A                      A                      A
 Frequencies --    415.1172               437.0822               468.6714
 Red. masses --      1.8104                 3.2650                 3.1038
 Frc consts  --      0.1838                 0.3675                 0.4017
 IR Inten    --     58.2512                 5.3382                10.9003

                     22                     23                     24
                      A                      A                      A
 Frequencies --    492.5821               537.9862               582.8605
 Red. masses --      2.7202                 2.1775                 2.7673
 Frc consts  --      0.3889                 0.3713                 0.5539
 IR Inten    --      0.8872                12.8701                 1.8885

                     25                     26                     27
                      A                      A                      A
 Frequencies --    613.1787               760.2996               791.7511
 Red. masses --      2.7844                 2.1311                 3.1235
 Frc consts  --      0.6168                 0.7258                 1.1536
 IR Inten    --      7.9174                 9.5075                 1.3896

                     28                     29                     30
                      A                      A                      A
 Frequencies --    867.3405               876.5851               920.1477
 Red. masses --      1.4901                 1.5932                 1.7903
 Frc consts  --      0.6605                 0.7213                 0.8931
 IR Inten    --      4.6850                13.1108                 8.2686

                     31                     32                     33
                      A                      A                      A
 Frequencies --    941.7639               945.1109               983.5060
 Red. masses --      2.3071                 3.3213                 1.8080
 Frc consts  --      1.2056                 1.7479                 1.0304
 IR Inten    --      6.3524                27.1809                16.1344

                     34                     35                     36
                      A                      A                      A
 Frequencies --   1000.3132              1007.5152              1015.9159
 Red. masses --      1.5902                 1.5759                 1.5766
 Frc consts  --      0.9375                 0.9425                 0.9587
 IR Inten    --      8.8036                 2.6555                14.0653

                     37                     38                     39
                      A                      A                      A
 Frequencies --   1059.7915              1076.8362              1080.0946
 Red. masses --      2.1197                 1.5729                 1.5787
 Frc consts  --      1.4027                 1.0746                 1.0851
 IR Inten    --      4.6778                 7.0203                22.7186

                     40                     41                     42
                      A                      A                      A
 Frequencies --   1103.3616              1111.0330              1130.1432
 Red. masses --      2.9934                 2.6690                 2.7420
 Frc consts  --      2.1471                 1.9411                 2.0634
 IR Inten    --     18.7822                45.2033                 9.3560

                     43                     44                     45
                      A                      A                      A
 Frequencies --   1143.5910              1188.3500              1189.7257
 Red. masses --      3.6830                 1.5783                 1.2939
 Frc consts  --      2.8379                 1.3132                 1.0791
 IR Inten    --     78.6492                 8.7270                 2.4522

                     46                     47                     48
                      A                      A                      A
 Frequencies --   1206.8595              1223.2470              1230.4316
 Red. masses --      1.7285                 1.3225                 1.2641
 Frc consts  --      1.4833                 1.1659                 1.1275
 IR Inten    --     14.5697                12.0621                15.0159

                     49                     50                     51
                      A                      A                      A
 Frequencies --   1249.2582              1273.9848              1319.3962
 Red. masses --      1.6798                 1.5132                 1.2440
 Frc consts  --      1.5446                 1.4470                 1.2759
 IR Inten    --      4.8793                 1.7772                13.2607

                     52                     53                     54
                      A                      A                      A
 Frequencies --   1354.1060              1362.1074              1382.5347
 Red. masses --      1.2390                 1.2866                 1.2464
 Frc consts  --      1.3385                 1.4064                 1.4037
 IR Inten    --      4.1069                 1.0038                 6.1131

                     55                     56                     57
                      A                      A                      A
 Frequencies --   1386.8380              1407.6294              1426.4826
 Red. masses --      1.3966                 1.2737                 1.3196
 Frc consts  --      1.5826                 1.4869                 1.5821
 IR Inten    --     20.6039                12.6386                11.2971

                     58                     59                     60
                      A                      A                      A
 Frequencies --   1439.5851              1446.6324              1447.0678
 Red. masses --      1.3125                 1.3966                 1.3150
 Frc consts  --      1.6026                 1.7220                 1.6224
 IR Inten    --     33.2186                 0.3174                 9.8328

                     61                     62                     63
                      A                      A                      A
 Frequencies --   1497.7822              1509.3929              1510.2123
 Red. masses --      1.1527                 1.0751                 1.0572
 Frc consts  --      1.5235                 1.4432                 1.4207
 IR Inten    --      1.2693                 3.7547                 1.1758

                     64                     65                     66
                      A                      A                      A
 Frequencies --   1511.1061              1514.0092              1515.3755
 Red. masses --      1.0673                 1.0464                 1.0652
 Frc consts  --      1.4359                 1.4133                 1.4412
 IR Inten    --      2.6899                 6.5248                 3.4175

                     67                     68                     69
                      A                      A                      A
 Frequencies --   1521.8788              1524.5265              1532.8897
 Red. masses --      1.0907                 1.0857                 1.0856
 Frc consts  --      1.4884                 1.4867                 1.5029
 IR Inten    --      2.1063                 0.8893                 6.2845

                     70                     71                     72
                      A                      A                      A
 Frequencies --   1534.3111              1542.2015              1749.2093
 Red. masses --      1.0780                 1.0578                 6.5193
 Frc consts  --      1.4952                 1.4823                11.7526
 IR Inten    --      4.9998                 7.7141                15.1875

                     73                     74                     75
                      A                      A                      A
 Frequencies --   1760.7694              2966.5099              2991.7736
 Red. masses --      6.5802                 1.0728                 1.0421
 Frc consts  --     12.0197                 5.5626                 5.4958
 IR Inten    --      1.9783                87.3206                44.1829

                     76                     77                     78
                      A                      A                      A
 Frequencies --   3022.0586              3031.5798              3038.6201
 Red. masses --      1.0641                 1.0423                 1.0487
 Frc consts  --      5.7261                 5.6438                 5.7049
 IR Inten    --     50.8809                41.8916                27.1673

                     79                     80                     81
                      A                      A                      A
 Frequencies --   3041.9295              3045.1297              3045.7942
 Red. masses --      1.0639                 1.0572                 1.0964
 Frc consts  --      5.8004                 5.7760                 5.9925
 IR Inten    --     12.4073                40.9143                55.2087

                     82                     83                     84
                      A                      A                      A
 Frequencies --   3058.3373              3072.9787              3083.5864
 Red. masses --      1.0882                 1.0995                 1.0973
 Frc consts  --      5.9969                 6.1175                 6.1475
 IR Inten    --     25.1806                28.7248                34.9349

                     85                     86                     87
                      A                      A                      A
 Frequencies --   3085.4556              3092.5860              3093.1010
 Red. masses --      1.0987                 1.0942                 1.1040
 Frc consts  --      6.1628                 6.1659                 6.2230
 IR Inten    --     31.6766                14.6363                43.2135

                     88                     89                     90
                      A                      A                      A
 Frequencies --   3133.4802              3137.5041              3147.8427
 Red. masses --      1.0975                 1.0883                 1.0950
 Frc consts  --      6.3490                 6.3123                 6.3928
 IR Inten    --     41.2116                26.1024                20.4528

                     91                     92                     93
                      A                      A                      A
 Frequencies --   3150.1631              3166.7223              3732.4185
 Red. masses --      1.0974                 1.0866                 1.0658
 Frc consts  --      6.4163                 6.4199                 8.7479
 IR Inten    --     28.6910                11.4400                 9.3548

 - Thermochemistry -
 -------------------
 Temperature   298.150 Kelvin.  Pressure   1.00000 Atm.
 Atom     1 has atomic number  6 and mass  12.00000

 Molecular mass:   184.14633 amu.
 Principal axes and moments of inertia in atomic units:
                           1         2         3
     Eigenvalues --  1672.683064538.345305408.17541
           X            0.99990  -0.01325  -0.00502
           Y            0.01326   0.99991   0.00167
           Z            0.00500  -0.00174   0.99999
 This molecule is an asymmetric top.
 Rotational symmetry number  1.
 Warning -- assumption of classical behavior for rotation
           may cause significant error
 Rotational temperatures (Kelvin)      0.05178     0.01908     0.01602
 Rotational constants (GHZ):           1.07895     0.39767     0.33371
 Zero-point vibrational energy     775082.9 (Joules/Mol)
                                  185.24927 (Kcal/Mol)
 Warning -- explicit consideration of  25 degrees of freedom as
           vibrations may cause significant error
 Vibrational temperatures:     31.35    37.91    57.49    89.41   101.98
          (Kelvin)            143.00   174.11   192.23   208.24   241.32
                              296.62   332.67   361.50   418.09   484.39
                              503.76   542.70   568.18   597.26   628.86
                              674.31   708.72   774.04   838.61   882.23
                             1093.90  1139.15  1247.91  1261.21  1323.89
                             1354.99  1359.80  1415.05  1439.23  1449.59
                             1461.68  1524.80  1549.33  1554.02  1587.49
                             1598.53  1626.02  1645.37  1709.77  1711.75
                             1736.40  1759.98  1770.32  1797.40  1832.98
                             1898.32  1948.26  1959.77  1989.16  1995.35
                             2025.26  2052.39  2071.24  2081.38  2082.01
                             2154.97  2171.68  2172.86  2174.14  2178.32
                             2180.29  2189.64  2193.45  2205.49  2207.53
                             2218.88  2516.72  2533.35  4268.15  4304.49
                             4348.07  4361.77  4371.90  4376.66  4381.26
                             4382.22  4400.27  4421.33  4436.59  4439.28
                             4449.54  4450.28  4508.38  4514.17  4529.04
                             4532.38  4556.21  5370.12

 Zero-point correction=                           0.295214 (Hartree/Particle)
 Thermal correction to Energy=                    0.311579
 Thermal correction to Enthalpy=                  0.312523
 Thermal correction to Gibbs Free Energy=         0.249178
 Sum of electronic and zero-point Energies=           -581.354119
 Sum of electronic and thermal Energies=              -581.337754
 Sum of electronic and thermal Enthalpies=            -581.336810
 Sum of electronic and thermal Free Energies=         -581.400154

                     E (Thermal)             CV                S
                      KCal/Mol        Cal/Mol-Kelvin    Cal/Mol-Kelvin
 Total                  195.518             57.882            133.321
 Electronic               0.000              0.000              0.000
 Translational            0.889              2.981             41.538
 Rotational               0.889              2.981             32.085
 Vibrational            193.741             51.920             59.698
 Vibration     1          0.593              1.985              6.464
 Vibration     2          0.593              1.985              6.087
 Vibration     3          0.594              1.981              5.261
 Vibration     4          0.597              1.972              4.388
 Vibration     5          0.598              1.968              4.129
 Vibration     6          0.604              1.950              3.466
 Vibration     7          0.609              1.932              3.084
 Vibration     8          0.613              1.920              2.894
 Vibration     9          0.616              1.908              2.740
 Vibration    10          0.624              1.882              2.461
 Vibration    11          0.641              1.831              2.077
 Vibration    12          0.653              1.793              1.869
 Vibration    13          0.663              1.761              1.722
 Vibration    14          0.687              1.691              1.471
 Vibration    15          0.717              1.602              1.228
 Vibration    16          0.727              1.575              1.166
 Vibration    17          0.748              1.519              1.050
 Vibration    18          0.762              1.481              0.982
 Vibration    19          0.779              1.437              0.909
 Vibration    20          0.797              1.389              0.836
 Vibration    21          0.826              1.320              0.741
 Vibration    22          0.848              1.266              0.677
 Vibration    23          0.893              1.166              0.570
 Vibration    24          0.940              1.068              0.480
 Vibration    25          0.972              1.004              0.428

 Optimization completed.
    -- Stationary point found.
 Normal termination of Gaussian 16 at Mon Dec 14 16:48:07 2020.

 ----------------------------------------------------------------------
 # B3LYP/6-311++G(d,p) empiricaldispersion=gd3bj scf=xqc pop=npa geom=c
 heck
 ----------------------------------------------------------------------

 --------------------------------------
 CID_14190625_JID_3811_Energie_neutraal
 --------------------------------------
 Structure from the checkpoint file:  "JID_3811.chk"
 Charge =  0 Multiplicity = 1

 SCF Done:  E(RB3LYP) =  -581.827638580     A.U. after   14 cycles
 Normal termination of Gaussian 16 at Mon Dec 14 16:52:12 2020.

 ----------------------------------------------------------------------
 # B3LYP/6-311++G(d,p) empiricaldispersion=gd3bj scf=xqc pop=npa geom=c
 heck
 ----------------------------------------------------------------------

 ------------------------------------
 CID_14190625_JID_3811_Energie_kation
 ------------------------------------
 Structure from the checkpoint file:  "JID_3811.chk"
 Charge =  1 Multiplicity = 2

 SCF Done:  E(UB3LYP) =  -581.527214629     A.U. after   24 cycles
 Normal termination of Gaussian 16 at Mon Dec 14 17:02:14 2020.
 Gaussian 16:  ES64L-G16RevA.03 25-Dec-2016

 ----------------------------------------------------------------------
 # B3LYP/6-311++G(d,p) empiricaldispersion=gd3bj scf=xqc pop=npa geom=c
 heck
 ----------------------------------------------------------------------

 -----------------------------------
 CID_14190625_JID_3811_Energie_anion
 -----------------------------------
 Structure from the checkpoint file:  "JID_3811.chk"
 Charge = -1 Multiplicity = 2

                         Standard orientation:
 ---------------------------------------------------------------------
 Center     Atomic      Atomic             Coordinates (Angstroms)
 Number     Number       Type             X           Y           Z
 ---------------------------------------------------------------------
      1          6           0       -0.811065   -0.606403    1.859452
      2          6           0       -1.183922   -1.207377    0.528327
      3          6           0       -2.340875   -0.996108   -0.116498
      4          6           0       -3.477971   -0.100356    0.285925
      5          8           0       -3.662641    0.981974   -0.627214
      6          6           0       -2.618687    1.931354   -0.567606
      7          6           0       -0.121762   -2.088681   -0.104725
      8          6           0        0.753844   -1.333387   -1.139403
      9          6           0        1.403821   -0.098376   -0.581941
     10          6           0        2.672047    0.050672   -0.178573
     11          6           0        3.732031   -1.018674   -0.214642
     12          6           0        3.154423    1.371598    0.389450
     13          8           0        2.229056    2.441912    0.305035
     14          1           0       -1.545388    0.109569    2.234041
     15          1           0        0.157291   -0.097265    1.787310
     16          1           0       -0.694841   -1.396885    2.613520
     17          1           0       -2.486211   -1.487184   -1.080077
     18          1           0       -4.424233   -0.652271    0.256597
     19          1           0       -3.351390    0.288675    1.306730
     20          1           0       -2.529985    2.373356    0.438596
     21          1           0       -1.645306    1.495066   -0.835620
     22          1           0       -2.866411    2.721471   -1.281423
     23          1           0        0.533063   -2.500392    0.673357
     24          1           0       -0.593579   -2.938095   -0.612814
     25          1           0        1.497922   -2.030381   -1.540217
     26          1           0        0.106405   -1.045522   -1.978011
     27          1           0        0.743094    0.757129   -0.454057
     28          1           0        4.584801   -0.709707   -0.834575
     29          1           0        4.130164   -1.203967    0.792592
     30          1           0        3.359951   -1.969284   -0.602153
     31          1           0        3.369870    1.254995    1.459790
     32          1           0        4.114414    1.638263   -0.087864
     33          1           0        2.037748    2.575763   -0.636893
 ---------------------------------------------------------------------

 SCF Done:  E(UB3LYP) =  -581.814860924     A.U. after   31 cycles

 The electronic state is 2-A.
 Alpha  occ. eigenvalues --  -19.03381 -19.02428 -10.12600 -10.11777 -10.11630
 Alpha  occ. eigenvalues --  -10.08615 -10.07421 -10.07046 -10.07025 -10.06651
 Alpha  occ. eigenvalues --  -10.06436 -10.06181 -10.05867  -0.94399  -0.92638
 Alpha  occ. eigenvalues --   -0.73073  -0.70529  -0.66077  -0.63487  -0.59354
 Alpha  occ. eigenvalues --   -0.58499  -0.57887  -0.53763  -0.50639  -0.43708
 Alpha  occ. eigenvalues --   -0.42623  -0.40809  -0.39004  -0.38846  -0.37820
 Alpha  occ. eigenvalues --   -0.36304  -0.35336  -0.34068  -0.33328  -0.32605
 Alpha  occ. eigenvalues --   -0.31464  -0.30418  -0.29839  -0.29048  -0.28534
 Alpha  occ. eigenvalues --   -0.27642  -0.27197  -0.25697  -0.24437  -0.23862
 Alpha  occ. eigenvalues --   -0.22728  -0.21963  -0.18284  -0.17176  -0.15646
 Alpha  occ. eigenvalues --   -0.13473   0.04371
 Alpha virt. eigenvalues --    0.06518   0.06839   0.07505   0.08339   0.08595
 Alpha virt. eigenvalues --    0.09099   0.09664   0.10185   0.10254   0.10683
 Alpha virt. eigenvalues --    0.11428   0.11905   0.12059   0.12667   0.12860

  Beta  occ. eigenvalues --  -19.03373 -19.02405 -10.12594 -10.11765 -10.11601
  Beta  occ. eigenvalues --  -10.08606 -10.07420 -10.07028 -10.07008 -10.06628
  Beta  occ. eigenvalues --  -10.06420 -10.06132 -10.05852  -0.94378  -0.92590
  Beta  occ. eigenvalues --   -0.73039  -0.70495  -0.66042  -0.63455  -0.59311
  Beta  occ. eigenvalues --   -0.58444  -0.57809  -0.53723  -0.50590  -0.43652
  Beta  occ. eigenvalues --   -0.42571  -0.40770  -0.38975  -0.38825  -0.37787
  Beta  occ. eigenvalues --   -0.36265  -0.35296  -0.34025  -0.33301  -0.32561
  Beta  occ. eigenvalues --   -0.31418  -0.30375  -0.29808  -0.29029  -0.28491
  Beta  occ. eigenvalues --   -0.27603  -0.27165  -0.25666  -0.24408  -0.23832
  Beta  occ. eigenvalues --   -0.22703  -0.21928  -0.18252  -0.17161  -0.15587
  Beta  occ. eigenvalues --   -0.13427
  Beta virt. eigenvalues --    0.06503   0.07220   0.07400   0.08027   0.08675
  Beta virt. eigenvalues --    0.08967   0.09429   0.09897   0.10534   0.10625
  Beta virt. eigenvalues --    0.11093   0.11606   0.12158   0.12368   0.12947

 Mulliken charges and spin densities:
               1          2
     1  C    0.240410  -1.037936
     2  C    0.011090   0.939348
     3  C    0.102839  -0.331664
     4  C    0.075067  -0.663937
     5  O   -0.130589   0.018358
     6  C   -0.122100  -0.263329
     7  C   -0.921614   0.270441
     8  C   -0.312214  -0.011164
     9  C    0.659092  -0.419492
    10  C   -1.730679   1.899123
    11  C    2.454524  -3.105353
    12  C    0.315513  -0.845627
    13  O   -0.286797   0.044540
    14  H    0.095232  -0.016240
    15  H    0.143341   0.058348
    16  H   -0.332458   0.495666
    17  H    0.083950   0.093584
    18  H    0.071290   0.087151
    19  H    0.046753   0.076255
    20  H    0.062500   0.060913
    21  H   -0.034129   0.234707
    22  H    0.027708   0.119872
    23  H   -0.150864   0.306781
    24  H   -0.395575   0.576327
    25  H   -0.200210   0.380247
    26  H   -0.119415   0.254962
    27  H    0.751312  -0.630362
    28  H   -0.288383   0.429698
    29  H   -0.292371   0.450098
    30  H   -0.327656   0.451651
    31  H   -0.028423   0.214555
    32  H   -0.339036   0.482608
    33  H   -0.128109   0.379870
 Sum of Mulliken charges =  -1.00000   1.00000

 Dipole moment (field-independent basis, Debye):
    X=             -5.5964    Y=              1.6225    Z=              0.4083  Tot=              5.8412
 Quadrupole moment (field-independent basis, Debye-Ang):
   XX=           -157.1155   YY=           -131.9086   ZZ=           -116.9954
   XY=              1.1452   XZ=             -1.0791   YZ=              0.8029

 Summary of Natural Population Analysis:

                                       Natural Population
                Natural  -----------------------------------------------
    Atom  No    Charge         Core      Valence    Rydberg      Total
 -----------------------------------------------------------------------
      C    1   -0.30433      0.99960     2.29829    0.00644     3.30433
      C    2    0.01154      0.99949     1.97775    0.01122     2.98846
      C    3   -0.12564      0.99943     2.11658    0.00963     3.12564
      C    4   -0.02206      0.99956     2.01051    0.01199     3.02206
      O    5   -0.29799      0.99989     3.28883    0.00927     4.29799
      C    6   -0.10042      0.99962     2.09213    0.00867     3.10042
      C    7   -0.19674      0.99958     2.18725    0.00992     3.19674
      C    8   -0.19683      0.99960     2.18814    0.00909     3.19683
      C    9   -0.11016      0.99944     2.09820    0.01252     3.11016
      C   10   -0.02106      0.99947     2.01041    0.01118     3.02106
      C   11   -0.30098      0.99962     2.29498    0.00638     3.30098
      C   12   -0.01368      0.99954     2.00221    0.01194     3.01368
      O   13   -0.36579      0.99990     3.35941    0.00648     4.36579
      H   14    0.09794      0.00000     0.40102    0.00104     0.40206
      H   15    0.11293      0.00000     0.38572    0.00135     0.38707
      H   16    0.10571      0.00000     0.39309    0.00120     0.39429
      H   17    0.09458      0.00000     0.40406    0.00136     0.40542
      H   18    0.09032      0.00000     0.40836    0.00132     0.40968
      H   19    0.07897      0.00000     0.41960    0.00143     0.42103
      H   20    0.07595      0.00000     0.42267    0.00138     0.42405
      H   21    0.08482      0.00000     0.41332    0.00186     0.41518
      H   22    0.08768      0.00000     0.41117    0.00115     0.41232
      H   23    0.10036      0.00000     0.39786    0.00177     0.39964
      H   24    0.10315      0.00000     0.39529    0.00156     0.39685
      H   25    0.10172      0.00000     0.39679    0.00149     0.39828
      H   26    0.09881      0.00000     0.39965    0.00154     0.40119
      H   27    0.09799      0.00000     0.39967    0.00234     0.40201
      H   28    0.10431      0.00000     0.39387    0.00182     0.39569
      H   29    0.10513      0.00000     0.39305    0.00181     0.39487
      H   30    0.10544      0.00000     0.39319    0.00137     0.39456
      H   31    0.09011      0.00000     0.40829    0.00160     0.40989
      H   32    0.07986      0.00000     0.41809    0.00205     0.42014
      H   33    0.22840      0.00000     0.26742    0.00419     0.27160
 =======================================================================
   * Total *    0.00000     12.99474    37.84688    0.15838    51.00000

 Normal termination of Gaussian 16 at Mon Dec 14 17:15:03 2020.
