 Gaussian 16, Revision A.03,

 -----------------------------------------------------------
 # opt freq B3LYP/6-31G(d) empiricaldispersion=gd3bj scf=xqc
 -----------------------------------------------------------

 ------------------------------
 CID_148507810_JID_307_neutraal
 ------------------------------
 Symbolic Z-matrix:
 Charge =  0 Multiplicity = 1

 SCF Done:  E(RB3LYP) =  -817.604314996     A.U. after   15 cycles
 SCF Done:  E(RB3LYP) =  -817.609580281     A.U. after   13 cycles
 SCF Done:  E(RB3LYP) =  -817.610838171     A.U. after   12 cycles
 SCF Done:  E(RB3LYP) =  -817.611472421     A.U. after   13 cycles
 SCF Done:  E(RB3LYP) =  -817.611780376     A.U. after   12 cycles
 SCF Done:  E(RB3LYP) =  -817.611997619     A.U. after   11 cycles
 SCF Done:  E(RB3LYP) =  -817.612085076     A.U. after   11 cycles
 SCF Done:  E(RB3LYP) =  -817.612105232     A.U. after   10 cycles
 SCF Done:  E(RB3LYP) =  -817.612121705     A.U. after   11 cycles
 SCF Done:  E(RB3LYP) =  -817.612128025     A.U. after   10 cycles
 SCF Done:  E(RB3LYP) =  -817.612128758     A.U. after    8 cycles
 SCF Done:  E(RB3LYP) =  -817.612129212     A.U. after    8 cycles
 SCF Done:  E(RB3LYP) =  -817.612129325     A.U. after    7 cycles
 SCF Done:  E(RB3LYP) =  -817.612129371     A.U. after    7 cycles
 Optimization completed.
    -- Stationary point found.
 Normal termination of Gaussian 16 at Tue Dec  8 10:23:33 2020.

 --------------------------------------------------------------------
 #N Geom=AllCheck Guess=TCheck SCRF=Check GenChk RB3LYP/6-31G(d) Freq
 --------------------------------------------------------------------

 Structure from the checkpoint file:  "JID_307.chk"
 ------------------------------
 CID_148507810_JID_307_neutraal
 ------------------------------
 Charge =  0 Multiplicity = 1

 SCF Done:  E(RB3LYP) =  -817.612129371     A.U. after    1 cycles

  Exact polarizability: 126.836   0.830  96.168  -1.370  -2.731  58.138
 Approx polarizability: 165.950  -1.324 172.007  -3.121  -8.565  87.171

                      1                      2                      3
                      A                      A                      A
 Frequencies --     46.0155                61.9023               113.3795
 Red. masses --      3.9432                 3.0831                 3.7653
 Frc consts  --      0.0049                 0.0070                 0.0285
 IR Inten    --      0.8430                 0.3746                 1.5317

                      4                      5                      6
                      A                      A                      A
 Frequencies --    142.0811               194.4264               234.6242
 Red. masses --      2.1776                 4.5279                 1.7568
 Frc consts  --      0.0259                 0.1008                 0.0570
 IR Inten    --      0.2402                 0.5202                 1.2229

                      7                      8                      9
                      A                      A                      A
 Frequencies --    252.6300               294.6717               348.0346
 Red. masses --      3.7039                 1.8969                 5.4889
 Frc consts  --      0.1393                 0.0970                 0.3917
 IR Inten    --      7.5016                 1.1893                 6.4692

                     10                     11                     12
                      A                      A                      A
 Frequencies --    432.1270               438.1515               465.4857
 Red. masses --      2.5001                 1.5159                 3.7215
 Frc consts  --      0.2751                 0.1715                 0.4751
 IR Inten    --      2.8112                47.4773                12.4353

                     13                     14                     15
                      A                      A                      A
 Frequencies --    548.5057               580.9003               597.8649
 Red. masses --      7.6192                 2.1978                 1.8205
 Frc consts  --      1.3506                 0.4370                 0.3834
 IR Inten    --     10.6301                75.5991                71.3847

                     16                     17                     18
                      A                      A                      A
 Frequencies --    649.4625               667.4442               683.1256
 Red. masses --      4.5384                 2.9187                 2.9369
 Frc consts  --      1.1279                 0.7661                 0.8075
 IR Inten    --     21.1083                 4.0693                39.6419

                     19                     20                     21
                      A                      A                      A
 Frequencies --    737.3450               783.3716               857.3717
 Red. masses --      2.7033                 1.2505                 3.7326
 Frc consts  --      0.8659                 0.4521                 1.6166
 IR Inten    --     81.0365                 4.2729                 5.1053

                     22                     23                     24
                      A                      A                      A
 Frequencies --    901.6747               930.7945              1006.9951
 Red. masses --      2.3888                 1.3057                 1.9383
 Frc consts  --      1.1443                 0.6665                 1.1580
 IR Inten    --      1.1774                 4.9162                 9.8245

                     25                     26                     27
                      A                      A                      A
 Frequencies --   1049.4645              1097.6458              1155.5499
 Red. masses --      2.3296                 2.2978                 2.9374
 Frc consts  --      1.5117                 1.6311                 2.3110
 IR Inten    --     13.9239                 3.5847                41.9304

                     28                     29                     30
                      A                      A                      A
 Frequencies --   1170.1688              1173.1401              1236.3725
 Red. masses --      1.7374                 2.5206                 2.0005
 Frc consts  --      1.4017                 2.0439                 1.8017
 IR Inten    --     11.0246                22.2859                71.2023

                     31                     32                     33
                      A                      A                      A
 Frequencies --   1272.1229              1295.4807              1330.8746
 Red. masses --      1.2844                 1.4397                 1.2980
 Frc consts  --      1.2247                 1.4236                 1.3546
 IR Inten    --     15.4503                 9.8774                 8.1813

                     34                     35                     36
                      A                      A                      A
 Frequencies --   1393.2992              1408.2957              1446.8604
 Red. masses --      1.3344                 1.4136                 1.2732
 Frc consts  --      1.5262                 1.6519                 1.5703
 IR Inten    --     13.8141                 8.0732                11.7420

                     37                     38                     39
                      A                      A                      A
 Frequencies --   1459.9518              1511.4113              1522.7260
 Red. masses --      2.0656                 1.0745                 1.4116
 Frc consts  --      2.5940                 1.4462                 1.9284
 IR Inten    --     15.9769                 1.4079                59.2073

                     40                     41                     42
                      A                      A                      A
 Frequencies --   1531.2288              1543.9915              1548.5438
 Red. masses --      1.1263                 1.1423                 1.0929
 Frc consts  --      1.5559                 1.6045                 1.5442
 IR Inten    --     46.5716                60.4350                 8.1864

                     43                     44                     45
                      A                      A                      A
 Frequencies --   1694.8845              1828.9125              2971.6113
 Red. masses --      6.2318                11.4875                 1.0728
 Frc consts  --     10.5473                22.6392                 5.5815
 IR Inten    --    143.7289               590.6848                46.8994

                     46                     47                     48
                      A                      A                      A
 Frequencies --   3043.6982              3054.2064              3085.4238
 Red. masses --      1.0384                 1.0604                 1.0964
 Frc consts  --      5.6680                 5.8278                 6.1498
 IR Inten    --     17.3784                24.1821                 9.2863

                     49                     50                     51
                      A                      A                      A
 Frequencies --   3087.3137              3110.2119              3122.1622
 Red. masses --      1.0948                 1.1030                 1.1008
 Frc consts  --      6.1480                 6.2864                 6.3224
 IR Inten    --     19.4873                66.7821                35.5884

                     52                     53                     54
                      A                      A                      A
 Frequencies --   3300.5298              3518.4404              3623.0650
 Red. masses --      1.0943                 1.0735                 1.0781
 Frc consts  --      7.0234                 7.8298                 8.3383
 IR Inten    --      8.9551                 4.0411                44.7399

 - Thermochemistry -
 -------------------
 Temperature   298.150 Kelvin.  Pressure   1.00000 Atm.
 Atom     1 has atomic number  6 and mass  12.00000

 Molecular mass:   158.05138 amu.
 Principal axes and moments of inertia in atomic units:
                           1         2         3
     Eigenvalues --   580.271043617.741174076.82850
           X            0.99998   0.00384   0.00416
           Y           -0.00390   0.99990   0.01365
           Z           -0.00411  -0.01367   0.99990
 This molecule is an asymmetric top.
 Rotational symmetry number  1.
 Warning -- assumption of classical behavior for rotation
           may cause significant error
 Rotational temperatures (Kelvin)      0.14926     0.02394     0.02125
 Rotational constants (GHZ):           3.11017     0.49886     0.44268
 Zero-point vibrational energy     427999.8 (Joules/Mol)
                                  102.29440 (Kcal/Mol)
 Warning -- explicit consideration of  15 degrees of freedom as
           vibrations may cause significant error
 Vibrational temperatures:     66.21    89.06   163.13   204.42   279.74
          (Kelvin)            337.57   363.48   423.97   500.74   621.73
                              630.40   669.73   789.18   835.79   860.19
                              934.43   960.30   982.87  1060.88  1127.10
                             1233.57  1297.31  1339.21  1448.84  1509.95
                             1579.27  1662.58  1683.61  1687.89  1778.86
                             1830.30  1863.91  1914.83  2004.65  2026.22
                             2081.71  2100.55  2174.58  2190.86  2203.10
                             2221.46  2228.01  2438.56  2631.40  4275.49
                             4379.20  4394.32  4439.24  4441.96  4474.90
                             4492.10  4748.73  5062.25  5212.78

 Zero-point correction=                           0.163017 (Hartree/Particle)
 Thermal correction to Energy=                    0.173524
 Thermal correction to Enthalpy=                  0.174468
 Thermal correction to Gibbs Free Energy=         0.126086
 Sum of electronic and zero-point Energies=           -817.449113
 Sum of electronic and thermal Energies=              -817.438606
 Sum of electronic and thermal Enthalpies=            -817.437661
 Sum of electronic and thermal Free Energies=         -817.486044

                     E (Thermal)             CV                S
                      KCal/Mol        Cal/Mol-Kelvin    Cal/Mol-Kelvin
 Total                  108.888             38.499            101.829
 Electronic               0.000              0.000              0.000
 Translational            0.889              2.981             41.082
 Rotational               0.889              2.981             30.527
 Vibrational            107.110             32.538             30.219
 Vibration     1          0.595              1.979              4.982
 Vibration     2          0.597              1.972              4.396
 Vibration     3          0.607              1.938              3.210
 Vibration     4          0.616              1.911              2.776
 Vibration     5          0.635              1.848              2.185
 Vibration     6          0.654              1.788              1.843
 Vibration     7          0.664              1.758              1.712
 Vibration     8          0.689              1.684              1.447
 Vibration     9          0.726              1.579              1.175
 Vibration    10          0.793              1.400              0.852
 Vibration    11          0.798              1.387              0.832
 Vibration    12          0.823              1.327              0.750
 Vibration    13          0.904              1.143              0.547
 Vibration    14          0.938              1.073              0.484
 Vibration    15          0.956              1.036              0.453

 Optimization completed.
    -- Stationary point found.
 Normal termination of Gaussian 16 at Tue Dec  8 10:26:42 2020.

 ----------------------------------------------------------------------
 # B3LYP/6-311++G(d,p) empiricaldispersion=gd3bj scf=xqc pop=npa geom=c
 heck
 ----------------------------------------------------------------------

 --------------------------------------
 CID_148507810_JID_307_Energie_neutraal
 --------------------------------------
 Structure from the checkpoint file:  "JID_307.chk"
 Charge =  0 Multiplicity = 1

 SCF Done:  E(RB3LYP) =  -817.767245864     A.U. after   14 cycles
 Normal termination of Gaussian 16 at Tue Dec  8 10:27:53 2020.

 ----------------------------------------------------------------------
 # B3LYP/6-311++G(d,p) empiricaldispersion=gd3bj scf=xqc pop=npa geom=c
 heck
 ----------------------------------------------------------------------

 ------------------------------------
 CID_148507810_JID_307_Energie_kation
 ------------------------------------
 Structure from the checkpoint file:  "JID_307.chk"
 Charge =  1 Multiplicity = 2

 SCF Done:  E(UB3LYP) =  -817.486034088     A.U. after   20 cycles
 Normal termination of Gaussian 16 at Tue Dec  8 10:30:46 2020.
 Gaussian 16:  ES64L-G16RevA.03 25-Dec-2016

 ----------------------------------------------------------------------
 # B3LYP/6-311++G(d,p) empiricaldispersion=gd3bj scf=xqc pop=npa geom=c
 heck
 ----------------------------------------------------------------------

 -----------------------------------
 CID_148507810_JID_307_Energie_anion
 -----------------------------------
 Structure from the checkpoint file:  "JID_307.chk"
 Charge = -1 Multiplicity = 2

                         Standard orientation:
 ---------------------------------------------------------------------
 Center     Atomic      Atomic             Coordinates (Angstroms)
 Number     Number       Type             X           Y           Z
 ---------------------------------------------------------------------
      1          6           0        4.129127    0.719934    0.601089
      2          6           0        3.593904   -0.236597   -0.469840
      3          6           0        2.176223   -0.740439   -0.199371
      4          7           0        1.206856    0.352123   -0.239985
      5          6           0       -0.131171    0.009763   -0.067962
      6          6           0       -0.703304   -1.204712    0.091277
      7         16           0       -2.466637   -1.088591    0.170738
      8          6           0       -2.399973    0.710235   -0.016971
      9          8           0       -3.341056    1.470461   -0.073985
     10          7           0       -1.059772    1.052138   -0.100019
     11          1           0        3.569116    1.662840    0.631209
     12          1           0        5.174184    0.980378    0.404463
     13          1           0        4.078900    0.266377    1.598419
     14          1           0        3.615583    0.249538   -1.452608
     15          1           0        4.251723   -1.111965   -0.532685
     16          1           0        1.883152   -1.458515   -0.973162
     17          1           0        2.145762   -1.275024    0.766497
     18          1           0        1.479089    1.124083    0.363050
     19          1           0       -0.202899   -2.153990    0.194350
     20          1           0       -0.818391    1.991119   -0.388764
 ---------------------------------------------------------------------

 SCF Done:  E(UB3LYP) =  -817.759103699     A.U. after   29 cycles

 The electronic state is 2-A.
 Alpha  occ. eigenvalues --  -88.77002 -19.00883 -14.26565 -14.23000 -10.20482
 Alpha  occ. eigenvalues --  -10.15527 -10.10225 -10.08738 -10.06894 -10.05488
 Alpha  occ. eigenvalues --   -7.85621  -5.81941  -5.81612  -5.81110  -0.96212
 Alpha  occ. eigenvalues --   -0.88742  -0.82066  -0.70921  -0.68249  -0.61744
 Alpha  occ. eigenvalues --   -0.58119  -0.51707  -0.50557  -0.47642  -0.44852
 Alpha  occ. eigenvalues --   -0.39267  -0.37480  -0.35973  -0.35189  -0.33116
 Alpha  occ. eigenvalues --   -0.32828  -0.32086  -0.31328  -0.27200  -0.26017
 Alpha  occ. eigenvalues --   -0.24771  -0.24569  -0.23965  -0.19877  -0.18030
 Alpha  occ. eigenvalues --   -0.17239  -0.10147   0.04308
 Alpha virt. eigenvalues --    0.06924   0.07440   0.08566   0.09617   0.10055
 Alpha virt. eigenvalues --    0.10374   0.10613   0.11351   0.11696   0.11847
 Alpha virt. eigenvalues --    0.12470   0.13785   0.14347   0.14913   0.15364

  Beta  occ. eigenvalues --  -88.76992 -19.00885 -14.26526 -14.22946 -10.20464
  Beta  occ. eigenvalues --  -10.15525 -10.10203 -10.08709 -10.06870 -10.05421
  Beta  occ. eigenvalues --   -7.85611  -5.81911  -5.81607  -5.81104  -0.96199
  Beta  occ. eigenvalues --   -0.88701  -0.82000  -0.70854  -0.68190  -0.61683
  Beta  occ. eigenvalues --   -0.58015  -0.51633  -0.50456  -0.47530  -0.44782
  Beta  occ. eigenvalues --   -0.39210  -0.37434  -0.35930  -0.35150  -0.33078
  Beta  occ. eigenvalues --   -0.32740  -0.32029  -0.31271  -0.27137  -0.25952
  Beta  occ. eigenvalues --   -0.24691  -0.24508  -0.23914  -0.19845  -0.18005
  Beta  occ. eigenvalues --   -0.17186  -0.10109
  Beta virt. eigenvalues --    0.06964   0.08225   0.08368   0.09116   0.10044
  Beta virt. eigenvalues --    0.10209   0.10613   0.11167   0.11679   0.12224
  Beta virt. eigenvalues --    0.12469   0.12852   0.13979   0.14623   0.15029

 Mulliken charges and spin densities:
               1          2
     1  C    1.553174  -2.039662
     2  C   -0.421623   0.012890
     3  C    0.464302  -0.654809
     4  N   -0.126330   0.077952
     5  C   -0.484668  -0.215280
     6  C    1.208032  -0.613591
     7  S   -0.295380   0.055806
     8  C    0.093552  -0.038595
     9  O   -0.365198   0.011091
    10  N   -0.139183   0.060680
    11  H   -0.550563   0.678345
    12  H   -0.523375   0.674894
    13  H   -0.344403   0.482793
    14  H   -0.053486   0.205301
    15  H   -0.233465   0.376075
    16  H   -0.183135   0.345476
    17  H   -0.065011   0.225002
    18  H   -0.045923   0.304772
    19  H   -0.296876   0.549080
    20  H   -0.190440   0.501779
 Sum of Mulliken charges =  -1.00000   1.00000

 Dipole moment (field-independent basis, Debye):
    X=             -4.8198    Y=             -3.2959    Z=             -1.1197  Tot=              5.9453
 Quadrupole moment (field-independent basis, Debye-Ang):
   XX=           -152.6647   YY=           -106.3598   ZZ=            -91.8446
   XY=             -1.3088   XZ=             -5.3440   YZ=             -0.0234

 Summary of Natural Population Analysis:

                                       Natural Population
                Natural  -----------------------------------------------
    Atom  No    Charge         Core      Valence    Rydberg      Total
 -----------------------------------------------------------------------
      C    1   -0.28788      0.99967     2.28333    0.00489     3.28788
      C    2   -0.19082      0.99964     2.18408    0.00710     3.19082
      C    3   -0.08372      0.99962     2.07452    0.00958     3.08372
      N    4   -0.32150      0.99968     2.81036    0.01147     3.82150
      C    5    0.17553      0.99946     1.81099    0.01403     2.82447
      C    6   -0.24563      0.99944     2.23719    0.00900     3.24563
      S    7    0.12420      4.99953     2.85527    0.02101     7.87580
      C    8    0.26161      0.99973     1.70898    0.02968     2.73839
      O    9   -0.31289      0.99986     3.30522    0.00780     4.31289
      N   10   -0.31144      0.99962     2.80053    0.01129     3.81144
      H   11    0.09793      0.00000     0.39920    0.00288     0.40207
      H   12    0.10279      0.00000     0.39505    0.00216     0.39721
      H   13    0.09724      0.00000     0.40072    0.00204     0.40276
      H   14    0.09752      0.00000     0.40091    0.00158     0.40248
      H   15    0.09797      0.00000     0.40039    0.00165     0.40203
      H   16    0.09578      0.00000     0.40197    0.00225     0.40422
      H   17    0.08483      0.00000     0.41277    0.00240     0.41517
      H   18    0.19240      0.00000     0.29932    0.00827     0.30760
      H   19    0.11588      0.00000     0.38283    0.00130     0.38412
      H   20    0.21021      0.00000     0.28429    0.00549     0.28979
 =======================================================================
   * Total *   -0.00000     13.99624    27.84790    0.15586    42.00000

 Normal termination of Gaussian 16 at Tue Dec  8 10:36:41 2020.
