 Gaussian 16, Revision A.03,

 -----------------------------------------------------------
 # opt freq B3LYP/6-31G(d) empiricaldispersion=gd3bj scf=xqc
 -----------------------------------------------------------

 -------------------------------
 CID_131328012_JID_3837_neutraal
 -------------------------------
 Symbolic Z-matrix:
 Charge =  0 Multiplicity = 1

 SCF Done:  E(RB3LYP) =  -612.531010467     A.U. after   15 cycles
 SCF Done:  E(RB3LYP) =  -612.538760847     A.U. after   12 cycles
 SCF Done:  E(RB3LYP) =  -612.540022714     A.U. after   12 cycles
 SCF Done:  E(RB3LYP) =  -612.540520676     A.U. after   11 cycles
 SCF Done:  E(RB3LYP) =  -612.540880306     A.U. after   11 cycles
 SCF Done:  E(RB3LYP) =  -612.541130381     A.U. after   11 cycles
 SCF Done:  E(RB3LYP) =  -612.541286066     A.U. after   11 cycles
 SCF Done:  E(RB3LYP) =  -612.541303050     A.U. after   10 cycles
 SCF Done:  E(RB3LYP) =  -612.541308966     A.U. after    9 cycles
 SCF Done:  E(RB3LYP) =  -612.541309679     A.U. after    9 cycles
 SCF Done:  E(RB3LYP) =  -612.541827567     A.U. after    9 cycles
 SCF Done:  E(RB3LYP) =  -612.541831552     A.U. after   11 cycles
 SCF Done:  E(RB3LYP) =  -612.541833610     A.U. after    9 cycles
 SCF Done:  E(RB3LYP) =  -612.541833723     A.U. after    8 cycles
 SCF Done:  E(RB3LYP) =  -612.541833742     A.U. after    8 cycles
 Optimization completed.
    -- Stationary point found.
 Normal termination of Gaussian 16 at Sun Dec 13 20:17:06 2020.

 --------------------------------------------------------------------
 #N Geom=AllCheck Guess=TCheck SCRF=Check GenChk RB3LYP/6-31G(d) Freq
 --------------------------------------------------------------------

 Structure from the checkpoint file:  "JID_3837.chk"
 -------------------------------
 CID_131328012_JID_3837_neutraal
 -------------------------------
 Charge =  0 Multiplicity = 1

 SCF Done:  E(RB3LYP) =  -612.541833742     A.U. after    1 cycles

  Exact polarizability: 132.803   9.781 108.670  -2.693   7.797  94.873
 Approx polarizability: 180.245  28.867 169.694   0.446  24.936 149.262

                      1                      2                      3
                      A                      A                      A
 Frequencies --     28.1371                62.2765                75.7191
 Red. masses --      3.6864                 3.5252                 2.3636
 Frc consts  --      0.0017                 0.0081                 0.0080
 IR Inten    --      0.2196                 0.7422                 0.2042

                      4                      5                      6
                      A                      A                      A
 Frequencies --     99.2015               130.5061               150.2031
 Red. masses --      3.3032                 1.0507                 2.8917
 Frc consts  --      0.0192                 0.0105                 0.0384
 IR Inten    --      1.7588                 0.0951                 1.7707

                      7                      8                      9
                      A                      A                      A
 Frequencies --    172.7470               206.8478               222.0308
 Red. masses --      3.6239                 1.0454                 2.3895
 Frc consts  --      0.0637                 0.0264                 0.0694
 IR Inten    --      1.2897                 0.3909                 1.3702

                     10                     11                     12
                      A                      A                      A
 Frequencies --    242.6523               277.1131               285.7241
 Red. masses --      1.6669                 2.2688                 1.3843
 Frc consts  --      0.0578                 0.1027                 0.0666
 IR Inten    --      0.4426                21.3400                16.6653

                     13                     14                     15
                      A                      A                      A
 Frequencies --    309.6304               318.9157               333.0434
 Red. masses --      3.1354                 3.4522                 3.2053
 Frc consts  --      0.1771                 0.2069                 0.2095
 IR Inten    --      0.2663                 4.2751                 1.1862

                     16                     17                     18
                      A                      A                      A
 Frequencies --    345.1996               407.0890               432.3893
 Red. masses --      3.2778                 2.3957                 3.8071
 Frc consts  --      0.2301                 0.2339                 0.4194
 IR Inten    --     34.3220                 2.4356                 2.8619

                     19                     20                     21
                      A                      A                      A
 Frequencies --    495.7382               546.7706               565.1260
 Red. masses --      2.9283                 2.2031                 3.4231
 Frc consts  --      0.4240                 0.3881                 0.6441
 IR Inten    --      1.5150               101.5625                22.2291

                     22                     23                     24
                      A                      A                      A
 Frequencies --    652.2084               701.5230               715.8109
 Red. masses --      4.6968                 4.4719                 4.3798
 Frc consts  --      1.1771                 1.2966                 1.3222
 IR Inten    --      7.8285                26.2122                20.1019

                     25                     26                     27
                      A                      A                      A
 Frequencies --    771.0967               777.8973               791.7726
 Red. masses --      9.0775                 2.2856                 1.6973
 Frc consts  --      3.1801                 0.8149                 0.6269
 IR Inten    --     11.1699                29.5544                19.5407

                     28                     29                     30
                      A                      A                      A
 Frequencies --    852.7756               916.5811               918.1688
 Red. masses --      1.8157                 1.6308                 2.5170
 Frc consts  --      0.7780                 0.8072                 1.2502
 IR Inten    --     10.5954               102.4111                58.2609

                     31                     32                     33
                      A                      A                      A
 Frequencies --    959.8749               988.9414              1014.7442
 Red. masses --      2.2616                 1.2459                 1.6257
 Frc consts  --      1.2277                 0.7179                 0.9863
 IR Inten    --     75.1462                 2.1450                 2.6972

                     34                     35                     36
                      A                      A                      A
 Frequencies --   1034.8040              1049.3148              1075.7072
 Red. masses --      3.2779                 2.3934                 1.4435
 Frc consts  --      2.0680                 1.5526                 0.9842
 IR Inten    --     44.3404                 5.5194                 0.5694

                     37                     38                     39
                      A                      A                      A
 Frequencies --   1087.3367              1120.5212              1133.9530
 Red. masses --      1.5322                 2.1247                 2.8062
 Frc consts  --      1.0673                 1.5718                 2.1260
 IR Inten    --      6.3655                17.6328                13.8341

                     40                     41                     42
                      A                      A                      A
 Frequencies --   1155.5877              1162.9850              1191.5518
 Red. masses --      3.2359                 2.5517                 3.1124
 Frc consts  --      2.5460                 2.0335                 2.6036
 IR Inten    --      4.5912                18.7570                33.8898

                     43                     44                     45
                      A                      A                      A
 Frequencies --   1198.9170              1241.1177              1311.6454
 Red. masses --      2.1167                 1.6676                 1.4798
 Frc consts  --      1.7927                 1.5134                 1.5000
 IR Inten    --      9.6087                 1.0398                18.5952

                     46                     47                     48
                      A                      A                      A
 Frequencies --   1323.4035              1358.4242              1383.8941
 Red. masses --      1.3833                 1.2864                 1.5370
 Frc consts  --      1.4274                 1.3986                 1.7343
 IR Inten    --     11.4886                 8.9036                 9.0842

                     49                     50                     51
                      A                      A                      A
 Frequencies --   1391.5162              1406.3452              1421.1430
 Red. masses --      1.3507                 1.4916                 1.4033
 Frc consts  --      1.5409                 1.7381                 1.6699
 IR Inten    --      0.9405                 3.3247                 4.2126

                     52                     53                     54
                      A                      A                      A
 Frequencies --   1426.3236              1436.9863              1443.7758
 Red. masses --      1.8900                 1.2769                 1.2283
 Frc consts  --      2.2654                 1.5535                 1.5086
 IR Inten    --     16.7706                 4.6552                 2.2858

                     55                     56                     57
                      A                      A                      A
 Frequencies --   1446.7938              1515.2211              1520.6039
 Red. masses --      1.3987                 1.0630                 1.0597
 Frc consts  --      1.7250                 1.4379                 1.4437
 IR Inten    --     12.8377                 6.3684                 6.3017

                     58                     59                     60
                      A                      A                      A
 Frequencies --   1523.1315              1528.8734              1531.0166
 Red. masses --      1.0508                 1.0475                 1.0457
 Frc consts  --      1.4364                 1.4425                 1.4442
 IR Inten    --      7.0363                 2.5263                11.1263

                     61                     62                     63
                      A                      A                      A
 Frequencies --   1540.5913              1543.8484              1692.5921
 Red. masses --      1.0769                 1.0439                 1.5753
 Frc consts  --      1.5060                 1.4660                 2.6590
 IR Inten    --      7.4748                 5.1549                29.3179

                     64                     65                     66
                      A                      A                      A
 Frequencies --   1698.5330              1814.2506              3020.8531
 Red. masses --      2.5506                11.3573                 1.0782
 Frc consts  --      4.3356                22.0251                 5.7970
 IR Inten    --     91.9936               431.2669                 2.4290

                     67                     68                     69
                      A                      A                      A
 Frequencies --   3032.0688              3047.5009              3048.9024
 Red. masses --      1.0682                 1.0391                 1.0387
 Frc consts  --      5.7861                 5.6860                 5.6890
 IR Inten    --     15.0236                 8.1711                44.2299

                     70                     71                     72
                      A                      A                      A
 Frequencies --   3049.5004              3058.8000              3079.9879
 Red. masses --      1.0478                 1.0787                 1.0951
 Frc consts  --      5.7410                 5.9465                 6.1207
 IR Inten    --     11.8648                44.7238                21.1866

                     73                     74                     75
                      A                      A                      A
 Frequencies --   3101.0893              3111.5065              3118.3960
 Red. masses --      1.1019                 1.1004                 1.0969
 Frc consts  --      6.2431                 6.2770                 6.2845
 IR Inten    --     17.4776                47.8968                30.0717

                     76                     77                     78
                      A                      A                      A
 Frequencies --   3128.7018              3136.2377              3158.3526
 Red. masses --      1.0993                 1.1001                 1.1001
 Frc consts  --      6.3402                 6.3755                 6.4656
 IR Inten    --     44.3527                 5.1967                11.0723

                     79                     80                     81
                      A                      A                      A
 Frequencies --   3461.3275              3549.8498              3571.6554
 Red. masses --      1.0499                 1.0924                 1.0787
 Frc consts  --      7.4112                 8.1105                 8.1072
 IR Inten    --      0.8772                 0.2307                35.4124

 - Thermochemistry -
 -------------------
 Temperature   298.150 Kelvin.  Pressure   1.00000 Atm.
 Atom     1 has atomic number  6 and mass  12.00000

 Molecular mass:   184.12118 amu.
 Principal axes and moments of inertia in atomic units:
                           1         2         3
     Eigenvalues --  1468.466193534.814264125.44987
           X            0.99984  -0.01735   0.00528
           Y            0.01740   0.99980  -0.00987
           Z           -0.00510   0.00996   0.99994
 This molecule is an asymmetric top.
 Rotational symmetry number  1.
 Warning -- assumption of classical behavior for rotation
           may cause significant error
 Rotational temperatures (Kelvin)      0.05898     0.02450     0.02100
 Rotational constants (GHZ):           1.22900     0.51056     0.43747
 Zero-point vibrational energy     658866.6 (Joules/Mol)
                                  157.47290 (Kcal/Mol)
 Warning -- explicit consideration of  21 degrees of freedom as
           vibrations may cause significant error
 Vibrational temperatures:     40.48    89.60   108.94   142.73   187.77
          (Kelvin)            216.11   248.54   297.61   319.45   349.12
                              398.70   411.09   445.49   458.85   479.18
                              496.67   585.71   622.11   713.26   786.68
                              813.09   938.38  1009.34  1029.89  1109.44
                             1119.22  1139.18  1226.95  1318.76  1321.04
                             1381.05  1422.87  1459.99  1488.85  1509.73
                             1547.70  1564.44  1612.18  1631.51  1662.63
                             1673.28  1714.38  1724.97  1785.69  1887.17
                             1904.08  1954.47  1991.12  2002.08  2023.42
                             2044.71  2052.16  2067.50  2077.27  2081.61
                             2180.07  2187.81  2191.45  2199.71  2202.79
                             2216.57  2221.25  2435.26  2443.81  2610.30
                             4346.33  4362.47  4384.67  4386.69  4387.55
                             4400.93  4431.42  4461.78  4476.76  4486.68
                             4501.50  4512.35  4544.16  4980.08  5107.44
                             5138.82

 Zero-point correction=                           0.250949 (Hartree/Particle)
 Thermal correction to Energy=                    0.265368
 Thermal correction to Enthalpy=                  0.266312
 Thermal correction to Gibbs Free Energy=         0.209510
 Sum of electronic and zero-point Energies=           -612.290885
 Sum of electronic and thermal Energies=              -612.276466
 Sum of electronic and thermal Enthalpies=            -612.275522
 Sum of electronic and thermal Free Energies=         -612.332324

                     E (Thermal)             CV                S
                      KCal/Mol        Cal/Mol-Kelvin    Cal/Mol-Kelvin
 Total                  166.521             53.119            119.550
 Electronic               0.000              0.000              0.000
 Translational            0.889              2.981             41.538
 Rotational               0.889              2.981             31.438
 Vibrational            164.743             47.157             46.575
 Vibration     1          0.593              1.984              5.957
 Vibration     2          0.597              1.972              4.384
 Vibration     3          0.599              1.965              3.999
 Vibration     4          0.604              1.950              3.470
 Vibration     5          0.612              1.923              2.939
 Vibration     6          0.618              1.902              2.670
 Vibration     7          0.626              1.876              2.405
 Vibration     8          0.641              1.830              2.071
 Vibration     9          0.648              1.808              1.942
 Vibration    10          0.659              1.775              1.783
 Vibration    11          0.678              1.716              1.551
 Vibration    12          0.684              1.700              1.499
 Vibration    13          0.699              1.655              1.364
 Vibration    14          0.705              1.637              1.316
 Vibration    15          0.715              1.610              1.245
 Vibration    16          0.724              1.585              1.188
 Vibration    17          0.772              1.455              0.937
 Vibration    18          0.793              1.400              0.851
 Vibration    19          0.851              1.259              0.669
 Vibration    20          0.902              1.147              0.551
 Vibration    21          0.921              1.107              0.514

 Optimization completed.
    -- Stationary point found.
 Normal termination of Gaussian 16 at Sun Dec 13 20:24:44 2020.

 ----------------------------------------------------------------------
 # B3LYP/6-311++G(d,p) empiricaldispersion=gd3bj scf=xqc pop=npa geom=c
 heck
 ----------------------------------------------------------------------

 ---------------------------------------
 CID_131328012_JID_3837_Energie_neutraal
 ---------------------------------------
 Structure from the checkpoint file:  "JID_3837.chk"
 Charge =  0 Multiplicity = 1

 SCF Done:  E(RB3LYP) =  -612.726422074     A.U. after   15 cycles
 Normal termination of Gaussian 16 at Sun Dec 13 20:28:20 2020.

 ----------------------------------------------------------------------
 # B3LYP/6-311++G(d,p) empiricaldispersion=gd3bj scf=xqc pop=npa geom=c
 heck
 ----------------------------------------------------------------------

 -------------------------------------
 CID_131328012_JID_3837_Energie_kation
 -------------------------------------
 Structure from the checkpoint file:  "JID_3837.chk"
 Charge =  1 Multiplicity = 2

 SCF Done:  E(UB3LYP) =  -612.410736558     A.U. after   25 cycles
 Normal termination of Gaussian 16 at Sun Dec 13 20:36:43 2020.
 Gaussian 16:  ES64L-G16RevA.03 25-Dec-2016

 ----------------------------------------------------------------------
 # B3LYP/6-311++G(d,p) empiricaldispersion=gd3bj scf=xqc pop=npa geom=c
 heck
 ----------------------------------------------------------------------

 ------------------------------------
 CID_131328012_JID_3837_Energie_anion
 ------------------------------------
 Structure from the checkpoint file:  "JID_3837.chk"
 Charge = -1 Multiplicity = 2

                         Standard orientation:
 ---------------------------------------------------------------------
 Center     Atomic      Atomic             Coordinates (Angstroms)
 Number     Number       Type             X           Y           Z
 ---------------------------------------------------------------------
      1          6           0       -2.844530    2.129812   -0.641256
      2          6           0       -1.873922    0.975737   -0.906072
      3          6           0       -1.896000   -0.120050    0.175198
      4          6           0       -3.256107   -0.824795    0.248531
      5          6           0       -0.777400   -1.157636   -0.063629
      6          6           0        0.596387   -0.548022   -0.182513
      7          6           0        1.270673    0.406553    0.504335
      8          6           0        2.631443    0.426957   -0.030554
      9          8           0        3.569899    1.174484    0.190878
     10          7           0        2.700449   -0.692287   -0.899376
     11          8           0        1.387193   -1.193405   -1.096046
     12          6           0        0.824397    1.364410    1.563918
     13          7           0       -0.796387   -2.199179    0.980021
     14          1           0       -3.888284    1.800415   -0.655174
     15          1           0       -2.734789    2.911943   -1.400054
     16          1           0       -2.652364    2.586830    0.337563
     17          1           0       -2.104440    0.515104   -1.877575
     18          1           0       -0.859475    1.381458   -0.994242
     19          1           0       -1.705433    0.356899    1.147923
     20          1           0       -3.522992   -1.243521   -0.730597
     21          1           0       -3.228866   -1.645399    0.967961
     22          1           0       -4.046210   -0.127232    0.541495
     23          1           0       -0.983629   -1.664190   -1.015154
     24          1           0        3.137185   -0.567271   -1.808064
     25          1           0        0.081200    2.078986    1.191614
     26          1           0        0.388711    0.854653    2.430675
     27          1           0        1.695421    1.932195    1.903794
     28          1           0       -0.099572   -2.909379    0.760114
     29          1           0       -0.511289   -1.787649    1.868807
 ---------------------------------------------------------------------

 SCF Done:  E(UB3LYP) =  -612.717523457     A.U. after   33 cycles
 SCF Done:  E(UB3LYP) =  -612.717523457     a.u. after    1 cycles

 The electronic state is 2-A.
 Alpha  occ. eigenvalues --  -19.09017 -18.97357 -14.27614 -14.18857 -10.14976
 Alpha  occ. eigenvalues --  -10.11933 -10.10495 -10.07111 -10.06368 -10.06136
 Alpha  occ. eigenvalues --  -10.05899 -10.05826 -10.04595  -1.02726  -0.91554
 Alpha  occ. eigenvalues --   -0.79458  -0.75130  -0.70441  -0.69283  -0.62615
 Alpha  occ. eigenvalues --   -0.60196  -0.57741  -0.52765  -0.48375  -0.48143
 Alpha  occ. eigenvalues --   -0.45475  -0.41592  -0.38245  -0.37878  -0.35995
 Alpha  occ. eigenvalues --   -0.35222  -0.33760  -0.33199  -0.31661  -0.30927
 Alpha  occ. eigenvalues --   -0.30575  -0.28670  -0.28355  -0.27972  -0.27500
 Alpha  occ. eigenvalues --   -0.27084  -0.26395  -0.25354  -0.22407  -0.22165
 Alpha  occ. eigenvalues --   -0.22095  -0.18534  -0.14798  -0.14457  -0.12136
 Alpha  occ. eigenvalues --    0.04681
 Alpha virt. eigenvalues --    0.06841   0.07942   0.08055   0.08555   0.09496
 Alpha virt. eigenvalues --    0.09900   0.10823   0.11152   0.11340   0.12590
 Alpha virt. eigenvalues --    0.13335   0.13625   0.14230   0.14278   0.14629

  Beta  occ. eigenvalues --  -19.08909 -18.97258 -14.27592 -14.18762 -10.14870
  Beta  occ. eigenvalues --  -10.11678 -10.10505 -10.07097 -10.06363 -10.06117
  Beta  occ. eigenvalues --  -10.05901 -10.05795 -10.04564  -1.02546  -0.91361
  Beta  occ. eigenvalues --   -0.79259  -0.74984  -0.70320  -0.69145  -0.62551
  Beta  occ. eigenvalues --   -0.60045  -0.57628  -0.52670  -0.48289  -0.47936
  Beta  occ. eigenvalues --   -0.45400  -0.41397  -0.38151  -0.37582  -0.35902
  Beta  occ. eigenvalues --   -0.35019  -0.33661  -0.33076  -0.31597  -0.30791
  Beta  occ. eigenvalues --   -0.30476  -0.28570  -0.28257  -0.27913  -0.27439
  Beta  occ. eigenvalues --   -0.26901  -0.26013  -0.25220  -0.22368  -0.22117
  Beta  occ. eigenvalues --   -0.22048  -0.18056  -0.14626  -0.14207  -0.11562
  Beta virt. eigenvalues --    0.07068   0.08130   0.08157   0.08594   0.09490
  Beta virt. eigenvalues --    0.09994   0.10371   0.11128   0.11538   0.11582
  Beta virt. eigenvalues --    0.12882   0.13488   0.13867   0.14247   0.14646

 Mulliken charges and spin densities:
               1          2
     1  C    1.117206  -1.818131
     2  C   -1.476205   1.178026
     3  C    0.090656   0.372800
     4  C    1.007307  -1.632460
     5  C   -0.402030   0.032197
     6  C   -1.015269   0.438555
     7  C    0.732169   0.120761
     8  C   -0.092687   0.124327
     9  O   -0.429314   0.036135
    10  N   -0.218979   0.015933
    11  O    0.052985   0.024902
    12  C    0.256962  -1.138390
    13  N   -0.242450   0.038446
    14  H   -0.201269   0.348954
    15  H   -0.127825   0.258724
    16  H   -0.207835   0.345581
    17  H    0.017166   0.117327
    18  H    0.182005  -0.015452
    19  H    0.164366   0.010702
    20  H   -0.008621   0.133031
    21  H   -0.091656   0.267461
    22  H   -0.332171   0.466370
    23  H    0.101913   0.122581
    24  H    0.279500   0.004862
    25  H    0.197557  -0.035426
    26  H   -0.298734   0.474249
    27  H    0.112283   0.062997
    28  H   -0.124925   0.376352
    29  H   -0.042104   0.268587
 Sum of Mulliken charges =  -1.00000   1.00000

 Dipole moment (field-independent basis, Debye):
    X=              2.1559    Y=             -0.3222    Z=             -4.1849  Tot=              4.7186
 Quadrupole moment (field-independent basis, Debye-Ang):
   XX=           -150.4757   YY=           -120.4068   ZZ=           -103.9113
   XY=             -3.3893   XZ=             -2.3728   YZ=              5.4444

 Summary of Natural Population Analysis:

                                       Natural Population
                Natural  -----------------------------------------------
    Atom  No    Charge         Core      Valence    Rydberg      Total
 -----------------------------------------------------------------------
      C    1   -0.28494      0.99967     2.28019    0.00508     3.28494
      C    2   -0.19034      0.99962     2.18253    0.00820     3.19034
      C    3   -0.11153      0.99959     2.10038    0.01157     3.11153
      C    4   -0.28731      0.99965     2.28111    0.00655     3.28731
      C    5   -0.03670      0.99953     2.02255    0.01462     3.03670
      C    6    0.23441      0.99938     1.75016    0.01606     2.76559
      C    7   -0.11997      0.99939     2.11073    0.00985     3.11997
      C    8    0.32225      0.99961     1.65459    0.02355     2.67775
      O    9   -0.31970      0.99987     3.31400    0.00582     4.31970
      N   10   -0.16566      0.99968     2.65299    0.01299     3.66566
      O   11   -0.18100      0.99986     3.17274    0.00840     4.18100
      C   12   -0.29553      0.99964     2.28989    0.00601     3.29553
      N   13   -0.40600      0.99977     2.89625    0.00997     3.90600
      H   14    0.09846      0.00000     0.40037    0.00117     0.40154
      H   15    0.09724      0.00000     0.40198    0.00078     0.40276
      H   16    0.09633      0.00000     0.40252    0.00115     0.40367
      H   17    0.09151      0.00000     0.40733    0.00116     0.40849
      H   18    0.10153      0.00000     0.39709    0.00138     0.39847
      H   19    0.09638      0.00000     0.40135    0.00227     0.40362
      H   20    0.09258      0.00000     0.40640    0.00102     0.40742
      H   21    0.11301      0.00000     0.38552    0.00147     0.38699
      H   22    0.09948      0.00000     0.39936    0.00116     0.40052
      H   23    0.09823      0.00000     0.39965    0.00212     0.40177
      H   24    0.18518      0.00000     0.31309    0.00173     0.31482
      H   25    0.10102      0.00000     0.39801    0.00097     0.39898
      H   26    0.10492      0.00000     0.39363    0.00145     0.39508
      H   27    0.11167      0.00000     0.38723    0.00110     0.38833
      H   28    0.17780      0.00000     0.32025    0.00195     0.32220
      H   29    0.17670      0.00000     0.32052    0.00278     0.32330
 =======================================================================
   * Total *    0.00000     12.99525    36.84242    0.16234    50.00000

 Normal termination of Gaussian 16 at Sun Dec 13 20:47:14 2020.
