 Gaussian 16, Revision A.03,

 -----------------------------------------------------------
 # opt freq B3LYP/6-31G(d) empiricaldispersion=gd3bj scf=xqc
 -----------------------------------------------------------

 -------------------------------
 CID_115345398_JID_6721_neutraal
 -------------------------------
 Symbolic Z-matrix:
 Charge =  0 Multiplicity = 1

 SCF Done:  E(RB3LYP) =  -1085.52371283     A.U. after   15 cycles
 SCF Done:  E(RB3LYP) =  -1085.52924497     A.U. after   13 cycles
 SCF Done:  E(RB3LYP) =  -1085.53095466     A.U. after   13 cycles
 SCF Done:  E(RB3LYP) =  -1085.53204239     A.U. after   14 cycles
 SCF Done:  E(RB3LYP) =  -1085.53241190     A.U. after   12 cycles
 SCF Done:  E(RB3LYP) =  -1085.53400600     A.U. after   12 cycles
 SCF Done:  E(RB3LYP) =  -1085.53497749     A.U. after   13 cycles
 SCF Done:  E(RB3LYP) =  -1085.52947489     A.U. after   15 cycles
 SCF Done:  E(RB3LYP) =  -1085.53516485     A.U. after   13 cycles
 SCF Done:  E(RB3LYP) =  -1085.53587786     A.U. after   12 cycles
 SCF Done:  E(RB3LYP) =  -1085.53634421     A.U. after   11 cycles
 SCF Done:  E(RB3LYP) =  -1085.53634761     A.U. after   10 cycles
 SCF Done:  E(RB3LYP) =  -1085.53634931     A.U. after   10 cycles
 SCF Done:  E(RB3LYP) =  -1085.53634954     A.U. after    9 cycles
 SCF Done:  E(RB3LYP) =  -1085.53634958     A.U. after    7 cycles
 Optimization completed.
    -- Stationary point found.
 Normal termination of Gaussian 16 at Fri Dec 11 00:37:12 2020.

 --------------------------------------------------------------------
 #N Geom=AllCheck Guess=TCheck SCRF=Check GenChk RB3LYP/6-31G(d) Freq
 --------------------------------------------------------------------

 Structure from the checkpoint file:  "JID_6721.chk"
 -------------------------------
 CID_115345398_JID_6721_neutraal
 -------------------------------
 Charge =  0 Multiplicity = 1

 SCF Done:  E(RB3LYP) =  -1085.53634958     A.U. after    1 cycles

  Exact polarizability: 174.659  -1.240 130.139  -1.874   6.180 134.865
 Approx polarizability: 234.755  -1.475 183.918   2.702  17.057 223.337

                      1                      2                      3
                      A                      A                      A
 Frequencies --     16.2769                32.4791                40.0535
 Red. masses --      3.7672                 3.9447                 3.4981
 Frc consts  --      0.0006                 0.0025                 0.0033
 IR Inten    --      0.3965                 0.4466                 0.0336

                      4                      5                      6
                      A                      A                      A
 Frequencies --     55.5622                60.4919                84.9737
 Red. masses --      4.6770                 3.4770                 6.2170
 Frc consts  --      0.0085                 0.0075                 0.0264
 IR Inten    --      0.7141                 2.2816                 1.0447

                      7                      8                      9
                      A                      A                      A
 Frequencies --    101.6398               140.0326               164.9637
 Red. masses --      3.6791                 3.9293                 2.8654
 Frc consts  --      0.0224                 0.0454                 0.0459
 IR Inten    --      0.4964                 1.5299                 1.9126

                     10                     11                     12
                      A                      A                      A
 Frequencies --    187.9454               196.8405               215.2930
 Red. masses --      1.8228                 1.9004                 2.6827
 Frc consts  --      0.0379                 0.0434                 0.0733
 IR Inten    --      2.4669                 0.6934                 4.7195

                     13                     14                     15
                      A                      A                      A
 Frequencies --    232.0003               258.6959               274.5188
 Red. masses --      2.7264                 1.1725                 2.0956
 Frc consts  --      0.0865                 0.0462                 0.0930
 IR Inten    --      3.5020                 1.6358                 0.9628

                     16                     17                     18
                      A                      A                      A
 Frequencies --    290.0637               295.2233               311.0926
 Red. masses --      1.5006                 1.4978                 1.9616
 Frc consts  --      0.0744                 0.0769                 0.1119
 IR Inten    --      2.1040                14.2406                 0.6020

                     19                     20                     21
                      A                      A                      A
 Frequencies --    330.9473               349.0460               383.8836
 Red. masses --      1.8168                 3.1253                 3.4404
 Frc consts  --      0.1172                 0.2243                 0.2987
 IR Inten    --     36.9617                 3.5341                 1.3952

                     22                     23                     24
                      A                      A                      A
 Frequencies --    410.9274               446.6479               477.0036
 Red. masses --      2.3428                 1.9654                 3.5132
 Frc consts  --      0.2331                 0.2310                 0.4710
 IR Inten    --      1.9668                 0.1607                 2.7942

                     25                     26                     27
                      A                      A                      A
 Frequencies --    519.4559               563.1337               653.9374
 Red. masses --      2.6584                 3.2663                 3.6234
 Frc consts  --      0.4226                 0.6103                 0.9129
 IR Inten    --      2.8312                10.8592                 2.0775

                     28                     29                     30
                      A                      A                      A
 Frequencies --    661.2772               689.9281               719.0431
 Red. masses --      4.3145                 4.9134                 6.0882
 Frc consts  --      1.1116                 1.3780                 1.8546
 IR Inten    --      2.5615                 3.8496                 2.7671

                     31                     32                     33
                      A                      A                      A
 Frequencies --    741.7566               781.8742               800.2663
 Red. masses --      3.6678                 3.3620                 3.8714
 Frc consts  --      1.1890                 1.2109                 1.4608
 IR Inten    --      4.9001                10.8747                10.2049

                     34                     35                     36
                      A                      A                      A
 Frequencies --    827.3069               890.0173               911.3528
 Red. masses --      2.6750                 1.8773                 4.2482
 Frc consts  --      1.0787                 0.8762                 2.0789
 IR Inten    --     37.4516                 9.0358                11.8819

                     37                     38                     39
                      A                      A                      A
 Frequencies --    923.7237               944.1484               960.3249
 Red. masses --      3.9885                 1.6345                 2.3945
 Frc consts  --      2.0051                 0.8585                 1.3011
 IR Inten    --      9.3200               175.8219                 4.9676

                     40                     41                     42
                      A                      A                      A
 Frequencies --    987.3680               998.8575              1018.6358
 Red. masses --      1.5129                 1.1960                 5.6933
 Frc consts  --      0.8690                 0.7030                 3.4806
 IR Inten    --     28.1289                 2.8259                 4.1432

                     43                     44                     45
                      A                      A                      A
 Frequencies --   1031.9348              1040.5987              1054.8845
 Red. masses --      2.0232                 2.9652                 2.9036
 Frc consts  --      1.2694                 1.8918                 1.9037
 IR Inten    --     11.6567                10.8591                18.6375

                     46                     47                     48
                      A                      A                      A
 Frequencies --   1072.1885              1085.5234              1087.8657
 Red. masses --      2.7163                 2.1741                 1.5317
 Frc consts  --      1.8398                 1.5094                 1.0680
 IR Inten    --      8.9533                44.5841                11.4603

                     49                     50                     51
                      A                      A                      A
 Frequencies --   1123.5453              1138.3352              1173.3780
 Red. masses --      1.8018                 1.2711                 1.2275
 Frc consts  --      1.3401                 0.9705                 0.9958
 IR Inten    --      0.8049                10.1618                 3.1140

                     52                     53                     54
                      A                      A                      A
 Frequencies --   1182.7627              1199.9416              1205.3872
 Red. masses --      1.4323                 1.4501                 1.3655
 Frc consts  --      1.1805                 1.2302                 1.1690
 IR Inten    --     10.6625                 8.9515                 6.2953

                     55                     56                     57
                      A                      A                      A
 Frequencies --   1242.6367              1287.9251              1312.3326
 Red. masses --      1.5097                 1.5128                 2.1314
 Frc consts  --      1.3735                 1.4784                 2.1628
 IR Inten    --     16.3195                41.1703                14.1753

                     58                     59                     60
                      A                      A                      A
 Frequencies --   1321.3715              1339.1115              1342.4793
 Red. masses --      1.3178                 2.2418                 2.2637
 Frc consts  --      1.3557                 2.3685                 2.4037
 IR Inten    --      5.9379                21.7347                 6.5147

                     61                     62                     63
                      A                      A                      A
 Frequencies --   1354.2979              1382.9397              1393.8565
 Red. masses --      1.2899                 1.8980                 1.1653
 Frc consts  --      1.3939                 2.1387                 1.3339
 IR Inten    --     21.0433                75.3665                 5.9280

                     64                     65                     66
                      A                      A                      A
 Frequencies --   1398.7817              1408.4800              1423.0026
 Red. masses --      1.3878                 1.2542                 1.7265
 Frc consts  --      1.5998                 1.4659                 2.0598
 IR Inten    --      3.2528                25.9340                46.2551

                     67                     68                     69
                      A                      A                      A
 Frequencies --   1442.0946              1469.9166              1490.4469
 Red. masses --      1.6427                 1.1593                 1.1305
 Frc consts  --      2.0128                 1.4758                 1.4797
 IR Inten    --      5.6026                 1.3478                 1.4292

                     70                     71                     72
                      A                      A                      A
 Frequencies --   1500.0857              1501.0559              1502.5982
 Red. masses --      1.0620                 1.0913                 1.1227
 Frc consts  --      1.4080                 1.4487                 1.4935
 IR Inten    --      8.6841                 5.0675                12.5682

                     73                     74                     75
                      A                      A                      A
 Frequencies --   1508.1006              1513.1554              1516.2253
 Red. masses --      1.0598                 1.1015                 1.0557
 Frc consts  --      1.4201                 1.4860                 1.4299
 IR Inten    --      3.6529                11.3148                13.5975

                     76                     77                     78
                      A                      A                      A
 Frequencies --   1519.0321              1526.2902              1541.1461
 Red. masses --      1.0830                 1.1017                 1.0546
 Frc consts  --      1.4723                 1.5122                 1.4759
 IR Inten    --      4.6636                11.6883                 7.3413

                     79                     80                     81
                      A                      A                      A
 Frequencies --   1555.4839              1557.0282              1625.8526
 Red. masses --      1.1878                 4.1558                 8.3452
 Frc consts  --      1.6932                 5.9360                12.9972
 IR Inten    --      1.7467                14.4884                66.4936

                     82                     83                     84
                      A                      A                      A
 Frequencies --   1711.2313              2949.6556              2967.5308
 Red. masses --      1.0847                 1.0600                 1.0581
 Frc consts  --      1.8714                 5.4336                 5.4900
 IR Inten    --     27.1000                56.9641               111.9567

                     85                     86                     87
                      A                      A                      A
 Frequencies --   3042.5189              3050.5873              3063.3630
 Red. masses --      1.0607                 1.0621                 1.0311
 Frc consts  --      5.7849                 5.8237                 5.7007
 IR Inten    --     19.7384                26.8676                17.4145

                     88                     89                     90
                      A                      A                      A
 Frequencies --   3066.2345              3067.5787              3070.6104
 Red. masses --      1.0731                 1.0681                 1.0704
 Frc consts  --      5.9440                 5.9219                 5.9461
 IR Inten    --     45.1414                 9.9676                65.1092

                     91                     92                     93
                      A                      A                      A
 Frequencies --   3073.5033              3077.1301              3086.6086
 Red. masses --      1.0649                 1.0854                 1.0988
 Frc consts  --      5.9271                 6.0552                 6.1679
 IR Inten    --     11.5021                17.3624                28.5509

                     94                     95                     96
                      A                      A                      A
 Frequencies --   3099.7165              3115.7907              3121.6274
 Red. masses --      1.1054                 1.1036                 1.1013
 Frc consts  --      6.2575                 6.3126                 6.3230
 IR Inten    --     17.9467                31.3256                24.8317

                     97                     98                     99
                      A                      A                      A
 Frequencies --   3125.8363              3130.5329              3148.4213
 Red. masses --      1.1040                 1.0966                 1.1072
 Frc consts  --      6.3556                 6.3321                 6.4662
 IR Inten    --     15.4162                16.4924                 6.5642

                    100                    101                    102
                      A                      A                      A
 Frequencies --   3161.3784              3473.2366              3558.2963
 Red. masses --      1.1052                 1.0498                 1.0923
 Frc consts  --      6.5078                 7.4616                 8.1485
 IR Inten    --      5.3837                15.2157                15.0001

 - Thermochemistry -
 -------------------
 Temperature   298.150 Kelvin.  Pressure   1.00000 Atm.
 Atom     1 has atomic number  6 and mass  12.00000

 Molecular mass:   244.13578 amu.
 Principal axes and moments of inertia in atomic units:
                           1         2         3
     Eigenvalues --  2528.490796092.320226945.63437
           X            0.99995  -0.00962   0.00257
           Y            0.00956   0.99971   0.02212
           Z           -0.00278  -0.02209   0.99975
 This molecule is an asymmetric top.
 Rotational symmetry number  1.
 Warning -- assumption of classical behavior for rotation
           may cause significant error
 Rotational temperatures (Kelvin)      0.03426     0.01422     0.01247
 Rotational constants (GHZ):           0.71376     0.29623     0.25984
 Zero-point vibrational energy     816346.5 (Joules/Mol)
                                  195.11149 (Kcal/Mol)
 Warning -- explicit consideration of  26 degrees of freedom as
           vibrations may cause significant error
 Vibrational temperatures:     23.42    46.73    57.63    79.94    87.03
          (Kelvin)            122.26   146.24   201.48   237.35   270.41
                              283.21   309.76   333.80   372.21   394.97
                              417.34   424.76   447.59   476.16   502.20
                              552.32   591.23   642.63   686.30   747.38
                              810.22   940.87   951.43   992.65  1034.54
                             1067.22  1124.94  1151.40  1190.31  1280.54
                             1311.23  1329.03  1358.42  1381.69  1420.60
                             1437.13  1465.59  1484.72  1497.19  1517.74
                             1542.64  1561.83  1565.20  1616.53  1637.81
                             1688.23  1701.73  1726.45  1734.28  1787.88
                             1853.04  1888.15  1901.16  1926.68  1931.53
                             1948.53  1989.74  2005.45  2012.53  2026.49
                             2047.38  2074.85  2114.88  2144.42  2158.29
                             2159.68  2161.90  2169.82  2177.09  2181.51
                             2185.55  2195.99  2217.37  2237.99  2240.22
                             2339.24  2462.08  4243.90  4269.61  4377.51
                             4389.11  4407.50  4411.63  4413.56  4417.92
                             4422.09  4427.30  4440.94  4459.80  4482.93
                             4491.33  4497.38  4504.14  4529.88  4548.52
                             4997.21  5119.59

 Zero-point correction=                           0.310930 (Hartree/Particle)
 Thermal correction to Energy=                    0.329106
 Thermal correction to Enthalpy=                  0.330050
 Thermal correction to Gibbs Free Energy=         0.262576
 Sum of electronic and zero-point Energies=          -1085.225420
 Sum of electronic and thermal Energies=             -1085.207244
 Sum of electronic and thermal Enthalpies=           -1085.206299
 Sum of electronic and thermal Free Energies=        -1085.273774

                     E (Thermal)             CV                S
                      KCal/Mol        Cal/Mol-Kelvin    Cal/Mol-Kelvin
 Total                  206.517             65.985            142.012
 Electronic               0.000              0.000              0.000
 Translational            0.889              2.981             42.379
 Rotational               0.889              2.981             33.036
 Vibrational            204.740             60.023             66.597
 Vibration     1          0.593              1.986              7.043
 Vibration     2          0.594              1.983              5.672
 Vibration     3          0.594              1.981              5.256
 Vibration     4          0.596              1.975              4.609
 Vibration     5          0.597              1.973              4.441
 Vibration     6          0.601              1.960              3.773
 Vibration     7          0.604              1.948              3.423
 Vibration     8          0.615              1.913              2.803
 Vibration     9          0.623              1.886              2.492
 Vibration    10          0.633              1.856              2.248
 Vibration    11          0.636              1.844              2.162
 Vibration    12          0.645              1.818              1.998
 Vibration    13          0.653              1.792              1.863
 Vibration    14          0.668              1.748              1.671
 Vibration    15          0.677              1.720              1.568
 Vibration    16          0.686              1.692              1.474
 Vibration    17          0.689              1.683              1.444
 Vibration    18          0.700              1.653              1.357
 Vibration    19          0.713              1.614              1.255
 Vibration    20          0.726              1.577              1.170
 Vibration    21          0.753              1.505              1.024
 Vibration    22          0.775              1.447              0.923
 Vibration    23          0.806              1.368              0.806
 Vibration    24          0.834              1.301              0.718
 Vibration    25          0.874              1.207              0.611
 Vibration    26          0.919              1.111              0.518

 Optimization completed.
    -- Stationary point found.
 Normal termination of Gaussian 16 at Fri Dec 11 00:49:45 2020.

 ----------------------------------------------------------------------
 # B3LYP/6-311++G(d,p) empiricaldispersion=gd3bj scf=xqc pop=npa geom=c
 heck
 ----------------------------------------------------------------------

 ---------------------------------------
 CID_115345398_JID_6721_Energie_neutraal
 ---------------------------------------
 Structure from the checkpoint file:  "JID_6721.chk"
 Charge =  0 Multiplicity = 1

 SCF Done:  E(RB3LYP) =  -1085.75855729     A.U. after   14 cycles
 Normal termination of Gaussian 16 at Fri Dec 11 00:55:03 2020.

 ----------------------------------------------------------------------
 # B3LYP/6-311++G(d,p) empiricaldispersion=gd3bj scf=xqc pop=npa geom=c
 heck
 ----------------------------------------------------------------------

 -------------------------------------
 CID_115345398_JID_6721_Energie_kation
 -------------------------------------
 Structure from the checkpoint file:  "JID_6721.chk"
 Charge =  1 Multiplicity = 2

 SCF Done:  E(UB3LYP) =  -1085.47873598     A.U. after   27 cycles
 Normal termination of Gaussian 16 at Fri Dec 11 01:08:58 2020.
 Gaussian 16:  ES64L-G16RevA.03 25-Dec-2016

 ----------------------------------------------------------------------
 # B3LYP/6-311++G(d,p) empiricaldispersion=gd3bj scf=xqc pop=npa geom=c
 heck
 ----------------------------------------------------------------------

 ------------------------------------
 CID_115345398_JID_6721_Energie_anion
 ------------------------------------
 Structure from the checkpoint file:  "JID_6721.chk"
 Charge = -1 Multiplicity = 2

                         Standard orientation:
 ---------------------------------------------------------------------
 Center     Atomic      Atomic             Coordinates (Angstroms)
 Number     Number       Type             X           Y           Z
 ---------------------------------------------------------------------
      1          6           0       -2.069036    1.625489   -0.414213
      2          7           0       -3.402713    1.108667   -0.157304
      3          6           0       -4.112905    0.798766   -1.385686
      4          6           0       -3.475114    0.063213    0.849922
      5          6           0       -2.814345   -1.306354    0.525302
      6          6           0       -1.318271   -1.286722    0.551477
      7          7           0       -0.641526   -0.914139    1.611634
      8          8           0        0.704575   -1.030737    1.193986
      9          6           0        0.677681   -1.465415   -0.075452
     10          7           0       -0.531281   -1.639388   -0.530489
     11          6           0        1.968784   -1.571600   -0.833367
     12          6           0        2.117302   -0.322115   -1.756452
     13          6           0        1.827687    1.038037   -1.115902
     14         16           0        3.001975    1.508972    0.227430
     15          6           0        1.829290    2.289934    1.390558
     16          7           0        3.067147   -1.863001    0.084613
     17          1           0       -2.146454    2.564216   -0.975994
     18          1           0       -1.433794    0.937321   -1.001034
     19          1           0       -1.562938    1.831024    0.534394
     20          1           0       -3.627822    0.017770   -2.001527
     21          1           0       -5.129630    0.465545   -1.150309
     22          1           0       -4.185709    1.703447   -2.000109
     23          1           0       -3.032232    0.447734    1.775371
     24          1           0       -4.537058   -0.123901    1.049938
     25          1           0       -3.168299   -2.030472    1.268784
     26          1           0       -3.129960   -1.671300   -0.455602
     27          1           0        1.855578   -2.436900   -1.495628
     28          1           0        3.128633   -0.339535   -2.182146
     29          1           0        1.417887   -0.436429   -2.594660
     30          1           0        1.848074    1.815194   -1.886203
     31          1           0        0.823472    1.038550   -0.683016
     32          1           0        1.335476    3.151918    0.933072
     33          1           0        1.087090    1.562293    1.729239
     34          1           0        2.411568    2.633349    2.249243
     35          1           0        3.917071   -2.000826   -0.458730
     36          1           0        3.233025   -1.051036    0.677856
 ---------------------------------------------------------------------

 SCF Done:  E(UB3LYP) =  -1085.74772161     A.U. after   33 cycles
 SCF Done:  E(UB3LYP) =  -1085.74772161     a.u. after    1 cycles

 The electronic state is 2-A.
 Alpha  occ. eigenvalues --  -88.74416 -19.10712 -14.25515 -14.21439 -14.21154
 Alpha  occ. eigenvalues --  -14.19505 -10.16259 -10.13668 -10.12047 -10.10997
 Alpha  occ. eigenvalues --  -10.10226 -10.10107 -10.09481 -10.09125 -10.09091
 Alpha  occ. eigenvalues --  -10.07838  -7.83031  -5.79430  -5.79069  -5.78386
 Alpha  occ. eigenvalues --   -1.05581  -0.83800  -0.82950  -0.80672  -0.76133
 Alpha  occ. eigenvalues --   -0.71260  -0.67464  -0.66162  -0.61518  -0.60333
 Alpha  occ. eigenvalues --   -0.59088  -0.54988  -0.51611  -0.50521  -0.48342
 Alpha  occ. eigenvalues --   -0.46212  -0.42214  -0.40190  -0.39742  -0.38757
 Alpha  occ. eigenvalues --   -0.37536  -0.36551  -0.35624  -0.35072  -0.34019
 Alpha  occ. eigenvalues --   -0.33351  -0.32674  -0.32083  -0.31476  -0.30641
 Alpha  occ. eigenvalues --   -0.29873  -0.29367  -0.28142  -0.27584  -0.27182
 Alpha  occ. eigenvalues --   -0.26544  -0.26308  -0.25089  -0.23357  -0.22435
 Alpha  occ. eigenvalues --   -0.21835  -0.19547  -0.18269  -0.15644  -0.12530
 Alpha  occ. eigenvalues --   -0.12205   0.04395
 Alpha virt. eigenvalues --    0.05774   0.06875   0.06950   0.07666   0.08485
 Alpha virt. eigenvalues --    0.08986   0.09169   0.09918   0.10324   0.10865
 Alpha virt. eigenvalues --    0.11167   0.11718   0.12178   0.12478   0.12568

  Beta  occ. eigenvalues --  -88.74413 -19.10594 -14.25414 -14.21437 -14.21160
  Beta  occ. eigenvalues --  -14.19488 -10.16102 -10.13639 -10.12056 -10.10989
  Beta  occ. eigenvalues --  -10.10218 -10.10082 -10.09454 -10.09125 -10.09077
  Beta  occ. eigenvalues --  -10.07783  -7.83028  -5.79427  -5.79063  -5.78385
  Beta  occ. eigenvalues --   -1.05391  -0.83753  -0.82886  -0.80587  -0.75996
  Beta  occ. eigenvalues --   -0.71227  -0.67427  -0.66105  -0.61483  -0.60238
  Beta  occ. eigenvalues --   -0.59043  -0.54867  -0.51548  -0.50443  -0.48264
  Beta  occ. eigenvalues --   -0.46121  -0.42089  -0.40022  -0.39667  -0.38628
  Beta  occ. eigenvalues --   -0.37492  -0.36512  -0.35535  -0.34967  -0.33994
  Beta  occ. eigenvalues --   -0.33300  -0.32628  -0.32001  -0.31436  -0.30571
  Beta  occ. eigenvalues --   -0.29822  -0.29329  -0.28054  -0.27559  -0.27126
  Beta  occ. eigenvalues --   -0.26512  -0.26239  -0.25026  -0.23237  -0.22117
  Beta  occ. eigenvalues --   -0.21787  -0.19487  -0.17693  -0.15607  -0.12507
  Beta  occ. eigenvalues --   -0.12183
  Beta virt. eigenvalues --    0.06178   0.07011   0.07299   0.07745   0.08317
  Beta virt. eigenvalues --    0.08827   0.09144   0.09634   0.10332   0.10616
  Beta virt. eigenvalues --    0.11142   0.11637   0.11943   0.12159   0.12550

 Mulliken charges and spin densities:
               1          2
     1  C   -0.579089   0.008805
     2  N    0.053779   0.073029
     3  C    0.510386  -0.876911
     4  C   -0.379415  -0.049992
     5  C   -0.450362   0.186505
     6  C    0.284658  -0.250679
     7  N   -0.202176   0.092703
     8  O    0.215350   0.021231
     9  C   -0.186560  -0.314132
    10  N   -0.029153   0.144044
    11  C   -0.026962  -0.023167
    12  C    1.226090  -1.732475
    13  C   -0.665049   0.583695
    14  S    0.311801  -0.269415
    15  C   -0.634726  -0.068741
    16  N   -0.376214   0.000549
    17  H   -0.285570   0.463922
    18  H    0.121802   0.013664
    19  H    0.291311  -0.124686
    20  H   -0.061449   0.190637
    21  H   -0.158782   0.290307
    22  H   -0.224029   0.362472
    23  H    0.119610   0.051085
    24  H    0.089580   0.055517
    25  H    0.184612  -0.016663
    26  H    0.082272   0.103234
    27  H   -0.187491   0.454916
    28  H   -0.670575   0.890371
    29  H   -0.146799   0.306061
    30  H   -0.606896   0.914630
    31  H    0.746913  -0.833409
    32  H    0.036911   0.130017
    33  H    0.149666   0.041072
    34  H    0.143489   0.012813
    35  H    0.079363   0.155319
    36  H    0.223706   0.013674
 Sum of Mulliken charges =  -1.00000   1.00000

 Dipole moment (field-independent basis, Debye):
    X=             -2.1926    Y=             -0.0390    Z=              6.6964  Tot=              7.0463
 Quadrupole moment (field-independent basis, Debye-Ang):
   XX=           -173.4160   YY=           -146.9798   ZZ=           -154.4142
   XY=             11.2934   XZ=              4.3371   YZ=              6.7962

 Summary of Natural Population Analysis:

                                       Natural Population
                Natural  -----------------------------------------------
    Atom  No    Charge         Core      Valence    Rydberg      Total
 -----------------------------------------------------------------------
      C    1   -0.18091      0.99964     2.17225    0.00903     3.18091
      N    2   -0.27779      0.99973     2.76509    0.01297     3.77779
      C    3   -0.17917      0.99965     2.17063    0.00890     3.17917
      C    4   -0.07537      0.99961     2.06337    0.01238     3.07537
      C    5   -0.22529      0.99957     2.21744    0.00828     3.22529
      C    6    0.17741      0.99964     1.80305    0.01990     2.82259
      N    7   -0.09616      0.99965     2.58500    0.01150     3.59616
      O    8   -0.16351      0.99985     3.15577    0.00789     4.16351
      C    9    0.31695      0.99958     1.66162    0.02185     2.68305
      N   10   -0.27761      0.99967     2.76961    0.00833     3.77761
      C   11   -0.04435      0.99955     2.03021    0.01460     3.04435
      C   12   -0.19407      0.99959     2.18276    0.01172     3.19407
      C   13   -0.25163      0.99958     2.24032    0.01173     3.25163
      S   14    0.07617      4.99963     2.90628    0.01792     7.92383
      C   15   -0.34849      0.99962     2.34380    0.00507     3.34849
      N   16   -0.42129      0.99977     2.91149    0.01004     3.92129
      H   17    0.09500      0.00000     0.40383    0.00117     0.40500
      H   18    0.08572      0.00000     0.41251    0.00177     0.41428
      H   19    0.09654      0.00000     0.40227    0.00119     0.40346
      H   20    0.08324      0.00000     0.41532    0.00143     0.41676
      H   21    0.09271      0.00000     0.40629    0.00100     0.40729
      H   22    0.09710      0.00000     0.40171    0.00119     0.40290
      H   23    0.09875      0.00000     0.40013    0.00112     0.40125
      H   24    0.09168      0.00000     0.40740    0.00091     0.40832
      H   25    0.10862      0.00000     0.39045    0.00093     0.39138
      H   26    0.11141      0.00000     0.38739    0.00121     0.38859
      H   27    0.11036      0.00000     0.38751    0.00214     0.38964
      H   28    0.10486      0.00000     0.39055    0.00458     0.39514
      H   29    0.11059      0.00000     0.38744    0.00198     0.38941
      H   30    0.10619      0.00000     0.39122    0.00259     0.39381
      H   31    0.10273      0.00000     0.39420    0.00308     0.39727
      H   32    0.09942      0.00000     0.39928    0.00130     0.40058
      H   33    0.10947      0.00000     0.38895    0.00158     0.39053
      H   34    0.10311      0.00000     0.39616    0.00074     0.39689
      H   35    0.17457      0.00000     0.32353    0.00190     0.32543
      H   36    0.18306      0.00000     0.31394    0.00300     0.31694
 =======================================================================
   * Total *   -0.00000     19.99432    45.77876    0.22692    66.00000

 Normal termination of Gaussian 16 at Fri Dec 11 01:25:25 2020.
