 Gaussian 16, Revision A.03,

 -----------------------------------------------------------
 # opt freq B3LYP/6-31G(d) empiricaldispersion=gd3bj scf=xqc
 -----------------------------------------------------------

 ------------------------------
 CID_66090554_JID_3460_neutraal
 ------------------------------
 Symbolic Z-matrix:
 Charge =  0 Multiplicity = 1

 SCF Done:  E(RB3LYP) =  -598.922069572     A.U. after   13 cycles
 SCF Done:  E(RB3LYP) =  -598.926007950     A.U. after   11 cycles
 SCF Done:  E(RB3LYP) =  -598.921455520     A.U. after   11 cycles
 SCF Done:  E(RB3LYP) =  -598.925726323     A.U. after   11 cycles
 SCF Done:  E(RB3LYP) =  -598.926799507     A.U. after    8 cycles
 SCF Done:  E(RB3LYP) =  -598.926509734     A.U. after   11 cycles
 SCF Done:  E(RB3LYP) =  -598.927293634     A.U. after   11 cycles
 SCF Done:  E(RB3LYP) =  -598.927391829     A.U. after   10 cycles
 SCF Done:  E(RB3LYP) =  -598.927437117     A.U. after   10 cycles
 SCF Done:  E(RB3LYP) =  -598.927564317     A.U. after   10 cycles
 SCF Done:  E(RB3LYP) =  -598.927651237     A.U. after    9 cycles
 SCF Done:  E(RB3LYP) =  -598.927665504     A.U. after    9 cycles
 SCF Done:  E(RB3LYP) =  -598.927672305     A.U. after    9 cycles
 SCF Done:  E(RB3LYP) =  -598.927674553     A.U. after    8 cycles
 SCF Done:  E(RB3LYP) =  -598.927674943     A.U. after    7 cycles
 SCF Done:  E(RB3LYP) =  -598.927675103     A.U. after    7 cycles
 Optimization completed.
    -- Stationary point found.
 Normal termination of Gaussian 16 at Wed Dec  9 23:25:35 2020.

 --------------------------------------------------------------------
 #N Geom=AllCheck Guess=TCheck SCRF=Check GenChk RB3LYP/6-31G(d) Freq
 --------------------------------------------------------------------

 Structure from the checkpoint file:  "JID_3460.chk"
 ------------------------------
 CID_66090554_JID_3460_neutraal
 ------------------------------
 Charge =  0 Multiplicity = 1

 SCF Done:  E(RB3LYP) =  -598.927675103     A.U. after    1 cycles

  Exact polarizability: 122.733  -1.277 118.484  -2.782   0.521 103.062
 Approx polarizability: 159.130  -0.870 161.739  -3.160  -0.463 158.139

                      1                      2                      3
                      A                      A                      A
 Frequencies --     47.2371                51.7811                74.1522
 Red. masses --      3.2727                 2.1716                 3.2124
 Frc consts  --      0.0043                 0.0034                 0.0104
 IR Inten    --      0.6014                 1.2120                 0.8592

                      4                      5                      6
                      A                      A                      A
 Frequencies --    104.4730               127.7659               153.9063
 Red. masses --      2.9016                 2.5554                 3.6482
 Frc consts  --      0.0187                 0.0246                 0.0509
 IR Inten    --      0.7552                 0.9272                 1.2547

                      7                      8                      9
                      A                      A                      A
 Frequencies --    185.0613               197.9346               222.1155
 Red. masses --      2.9076                 3.7475                 3.2074
 Frc consts  --      0.0587                 0.0865                 0.0932
 IR Inten    --      1.5997                 6.6583                 1.7368

                     10                     11                     12
                      A                      A                      A
 Frequencies --    236.8093               241.9029               277.9125
 Red. masses --      3.7056                 1.3180                 1.4990
 Frc consts  --      0.1224                 0.0454                 0.0682
 IR Inten    --      0.6184                 7.8247                36.9036

                     13                     14                     15
                      A                      A                      A
 Frequencies --    287.1075               324.8880               366.2319
 Red. masses --      2.2617                 1.3855                 2.0074
 Frc consts  --      0.1098                 0.0862                 0.1586
 IR Inten    --     20.8367                86.0987                23.8952

                     16                     17                     18
                      A                      A                      A
 Frequencies --    385.1183               419.3499               472.2766
 Red. masses --      2.5088                 1.7493                 1.8133
 Frc consts  --      0.2192                 0.1812                 0.2383
 IR Inten    --      5.4757                10.8060                20.7072

                     19                     20                     21
                      A                      A                      A
 Frequencies --    485.2349               518.6184               651.3429
 Red. masses --      2.5106                 2.2281                 2.3514
 Frc consts  --      0.3483                 0.3531                 0.5878
 IR Inten    --      6.0362                 7.8637                 3.4419

                     22                     23                     24
                      A                      A                      A
 Frequencies --    688.4337               741.5374               789.8267
 Red. masses --      5.2730                 3.8497                 1.6822
 Frc consts  --      1.4724                 1.2472                 0.6183
 IR Inten    --      3.6710                 6.9475                 2.2240

                     25                     26                     27
                      A                      A                      A
 Frequencies --    807.0880               819.2797               840.1337
 Red. masses --      2.3645                 1.4436                 1.8156
 Frc consts  --      0.9075                 0.5709                 0.7551
 IR Inten    --     10.4260                 0.1316                 1.3738

                     28                     29                     30
                      A                      A                      A
 Frequencies --    874.9822               895.3469               912.5835
 Red. masses --      2.2612                 1.8394                 1.9039
 Frc consts  --      1.0200                 0.8688                 0.9342
 IR Inten    --     45.5219                31.1188                92.3315

                     31                     32                     33
                      A                      A                      A
 Frequencies --    934.6256               942.1123               975.3356
 Red. masses --      2.2573                 3.3521                 1.9896
 Frc consts  --      1.1617                 1.7530                 1.1151
 IR Inten    --     26.2570                44.0849                23.2945

                     34                     35                     36
                      A                      A                      A
 Frequencies --    996.2413              1011.9595              1021.4336
 Red. masses --      2.2063                 2.1785                 1.6771
 Frc consts  --      1.2901                 1.3144                 1.0309
 IR Inten    --      4.9810                34.6164                 9.0367

                     37                     38                     39
                      A                      A                      A
 Frequencies --   1057.9253              1064.8626              1082.7844
 Red. masses --      1.5429                 2.6046                 2.2374
 Frc consts  --      1.0174                 1.7401                 1.5456
 IR Inten    --      3.9285                 2.5603                51.3093

                     40                     41                     42
                      A                      A                      A
 Frequencies --   1086.8945              1097.6559              1105.4873
 Red. masses --      1.9780                 1.9520                 3.3765
 Frc consts  --      1.3767                 1.3857                 2.4312
 IR Inten    --     13.1211                 3.8548                96.2777

                     43                     44                     45
                      A                      A                      A
 Frequencies --   1137.8816              1158.6991              1168.1552
 Red. masses --      2.0050                 1.9660                 2.1816
 Frc consts  --      1.5295                 1.5552                 1.7540
 IR Inten    --      8.0169                27.9841                11.4630

                     46                     47                     48
                      A                      A                      A
 Frequencies --   1199.1459              1234.4987              1244.9462
 Red. masses --      1.2867                 1.2340                 1.2081
 Frc consts  --      1.0901                 1.1080                 1.1032
 IR Inten    --      3.1212                 1.6122                 2.5579

                     49                     50                     51
                      A                      A                      A
 Frequencies --   1257.5474              1262.2120              1282.9869
 Red. masses --      1.2386                 1.4728                 1.1429
 Frc consts  --      1.1541                 1.3825                 1.1084
 IR Inten    --      5.4749                 4.0035                 3.3992

                     52                     53                     54
                      A                      A                      A
 Frequencies --   1302.0231              1310.9280              1331.6118
 Red. masses --      1.2289                 1.2229                 1.2876
 Frc consts  --      1.2275                 1.2383                 1.3452
 IR Inten    --      3.8890                 6.7187                 6.9275

                     55                     56                     57
                      A                      A                      A
 Frequencies --   1346.9416              1352.7465              1372.5974
 Red. masses --      1.4625                 1.2936                 1.2835
 Frc consts  --      1.5633                 1.3947                 1.4248
 IR Inten    --      4.0826                 6.7663                 3.7026

                     58                     59                     60
                      A                      A                      A
 Frequencies --   1381.6895              1398.8430              1410.8751
 Red. masses --      1.3853                 1.2503                 1.4338
 Frc consts  --      1.5582                 1.4415                 1.6815
 IR Inten    --      3.8299                 4.8772                 5.5505

                     61                     62                     63
                      A                      A                      A
 Frequencies --   1414.5212              1422.8912              1425.4706
 Red. masses --      1.3467                 1.3278                 1.3764
 Frc consts  --      1.5876                 1.5839                 1.6478
 IR Inten    --      3.9743                 9.2761                 2.1901

                     64                     65                     66
                      A                      A                      A
 Frequencies --   1438.6716              1443.1168              1449.8553
 Red. masses --      1.3344                 1.2411                 1.3256
 Frc consts  --      1.6273                 1.5229                 1.6417
 IR Inten    --     12.5018                 4.5644                19.6045

                     67                     68                     69
                      A                      A                      A
 Frequencies --   1503.0410              1525.9702              1527.1222
 Red. masses --      1.0873                 1.0849                 1.0520
 Frc consts  --      1.4473                 1.4884                 1.4455
 IR Inten    --      7.3308                 3.1376                 3.1584

                     70                     71                     72
                      A                      A                      A
 Frequencies --   1530.5221              1532.3232              1541.6041
 Red. masses --      1.0849                 1.0547                 1.0713
 Frc consts  --      1.4973                 1.4591                 1.5001
 IR Inten    --      2.1896                 3.8527                 6.6006

                     73                     74                     75
                      A                      A                      A
 Frequencies --   1542.1881              1557.7889              1694.6256
 Red. masses --      1.0893                 1.0972                 1.0913
 Frc consts  --      1.5264                 1.5688                 1.8464
 IR Inten    --      5.2893                 0.7197                16.8853

                     76                     77                     78
                      A                      A                      A
 Frequencies --   2994.6893              3002.1780              3005.9899
 Red. masses --      1.0732                 1.0758                 1.0752
 Frc consts  --      5.6705                 5.7126                 5.7242
 IR Inten    --     30.2755                76.1836                57.8484

                     79                     80                     81
                      A                      A                      A
 Frequencies --   3015.2709              3021.3388              3023.5033
 Red. masses --      1.0799                 1.0709                 1.0777
 Frc consts  --      5.7848                 5.7594                 5.8047
 IR Inten    --     35.6553                96.0340                 1.5136

                     82                     83                     84
                      A                      A                      A
 Frequencies --   3035.2236              3043.4865              3061.9135
 Red. masses --      1.0738                 1.0397                 1.0803
 Frc consts  --      5.8283                 5.6740                 5.9676
 IR Inten    --     42.2095                43.9189                33.5198

                     85                     86                     87
                      A                      A                      A
 Frequencies --   3074.5451              3078.5356              3087.2627
 Red. masses --      1.0874                 1.0660                 1.0938
 Frc consts  --      6.0560                 5.9527                 6.1426
 IR Inten    --     42.8636                43.6379                 2.4101

                     88                     89                     90
                      A                      A                      A
 Frequencies --   3093.3801              3106.7653              3115.5681
 Red. masses --      1.0964                 1.1013                 1.1005
 Frc consts  --      6.1815                 6.2629                 6.2936
 IR Inten    --     10.6700                49.1157                60.4111

                     91                     92                     93
                      A                      A                      A
 Frequencies --   3118.3706              3124.9500              3197.6255
 Red. masses --      1.1056                 1.0897                 1.0898
 Frc consts  --      6.3343                 6.2696                 6.5653
 IR Inten    --     48.4590                36.3328                16.7742

                     94                     95                     96
                      A                      A                      A
 Frequencies --   3480.8617              3579.8122              3737.3909
 Red. masses --      1.0483                 1.0940                 1.0660
 Frc consts  --      7.4837                 8.2605                 8.7733
 IR Inten    --     37.3192                24.0202                10.3016

 - Thermochemistry -
 -------------------
 Temperature   298.150 Kelvin.  Pressure   1.00000 Atm.
 Atom     1 has atomic number  6 and mass  12.00000

 Molecular mass:   187.15723 amu.
 Principal axes and moments of inertia in atomic units:
                           1         2         3
     Eigenvalues --  2187.952202569.136873649.17987
           X            0.99998   0.00501  -0.00233
           Y           -0.00498   0.99987   0.01546
           Z            0.00241  -0.01545   0.99988
 This molecule is an asymmetric top.
 Rotational symmetry number  1.
 Warning -- assumption of classical behavior for rotation
           may cause significant error
 Rotational temperatures (Kelvin)      0.03959     0.03371     0.02374
 Rotational constants (GHZ):           0.82485     0.70247     0.49456
 Zero-point vibrational energy     821119.5 (Joules/Mol)
                                  196.25226 (Kcal/Mol)
 Warning -- explicit consideration of  20 degrees of freedom as
           vibrations may cause significant error
 Vibrational temperatures:     67.96    74.50   106.69   150.31   183.83
          (Kelvin)            221.44   266.26   284.78   319.57   340.72
                              348.04   399.85   413.08   467.44   526.93
                              554.10   603.35   679.50   698.14   746.18
                              937.14   990.50  1066.91  1136.38  1161.22
                             1178.76  1208.77  1258.90  1288.20  1313.00
                             1344.72  1355.49  1403.29  1433.37  1455.98
                             1469.62  1522.12  1532.10  1557.89  1563.80
                             1579.28  1590.55  1637.16  1667.11  1680.71
                             1725.30  1776.17  1791.20  1809.33  1816.04
                             1845.93  1873.32  1886.13  1915.89  1937.95
                             1946.30  1974.86  1987.94  2012.62  2029.93
                             2035.18  2047.22  2050.93  2069.93  2076.32
                             2086.02  2162.54  2195.53  2197.19  2202.08
                             2204.67  2218.02  2218.86  2241.31  2438.19
                             4308.69  4319.46  4324.95  4338.30  4347.03
                             4350.15  4367.01  4378.90  4405.41  4423.58
                             4429.33  4441.88  4450.68  4469.94  4482.61
                             4486.64  4496.11  4600.67  5008.18  5150.55
                             5377.27

 Zero-point correction=                           0.312748 (Hartree/Particle)
 Thermal correction to Energy=                    0.327201
 Thermal correction to Enthalpy=                  0.328145
 Thermal correction to Gibbs Free Energy=         0.271631
 Sum of electronic and zero-point Energies=           -598.614927
 Sum of electronic and thermal Energies=              -598.600475
 Sum of electronic and thermal Enthalpies=            -598.599530
 Sum of electronic and thermal Free Energies=         -598.656044

                     E (Thermal)             CV                S
                      KCal/Mol        Cal/Mol-Kelvin    Cal/Mol-Kelvin
 Total                  205.321             54.805            118.944
 Electronic               0.000              0.000              0.000
 Translational            0.889              2.981             41.586
 Rotational               0.889              2.981             31.395
 Vibrational            203.544             48.843             45.962
 Vibration     1          0.595              1.979              4.930
 Vibration     2          0.596              1.977              4.748
 Vibration     3          0.599              1.966              4.040
 Vibration     4          0.605              1.946              3.369
 Vibration     5          0.611              1.925              2.979
 Vibration     6          0.619              1.898              2.623
 Vibration     7          0.631              1.860              2.277
 Vibration     8          0.637              1.843              2.152
 Vibration     9          0.648              1.807              1.942
 Vibration    10          0.656              1.784              1.827
 Vibration    11          0.658              1.776              1.789
 Vibration    12          0.679              1.714              1.546
 Vibration    13          0.684              1.698              1.491
 Vibration    14          0.709              1.626              1.285
 Vibration    15          0.739              1.542              1.096
 Vibration    16          0.754              1.502              1.019
 Vibration    17          0.782              1.428              0.894
 Vibration    18          0.829              1.312              0.731
 Vibration    19          0.841              1.283              0.696
 Vibration    20          0.874              1.209              0.613

                           ! Non-Optimized Parameters !
 Normal termination of Gaussian 16 at Wed Dec  9 23:36:00 2020.

 ----------------------------------------------------------------------
 # B3LYP/6-311++G(d,p) empiricaldispersion=gd3bj scf=xqc pop=npa geom=c
 heck
 ----------------------------------------------------------------------

 --------------------------------------
 CID_66090554_JID_3460_Energie_neutraal
 --------------------------------------
 Structure from the checkpoint file:  "JID_3460.chk"
 Charge =  0 Multiplicity = 1

 SCF Done:  E(RB3LYP) =  -599.115003903     A.U. after   14 cycles
 Normal termination of Gaussian 16 at Wed Dec  9 23:40:11 2020.

 ----------------------------------------------------------------------
 # B3LYP/6-311++G(d,p) empiricaldispersion=gd3bj scf=xqc pop=npa geom=c
 heck
 ----------------------------------------------------------------------

 ------------------------------------
 CID_66090554_JID_3460_Energie_kation
 ------------------------------------
 Structure from the checkpoint file:  "JID_3460.chk"
 Charge =  1 Multiplicity = 2

 SCF Done:  E(UB3LYP) =  -598.811652275     A.U. after   23 cycles
 Normal termination of Gaussian 16 at Wed Dec  9 23:49:43 2020.
 Gaussian 16:  ES64L-G16RevA.03 25-Dec-2016

 ----------------------------------------------------------------------
 # B3LYP/6-311++G(d,p) empiricaldispersion=gd3bj scf=xqc pop=npa geom=c
 heck
 ----------------------------------------------------------------------

 -----------------------------------
 CID_66090554_JID_3460_Energie_anion
 -----------------------------------
 Structure from the checkpoint file:  "JID_3460.chk"
 Charge = -1 Multiplicity = 2

                         Standard orientation:
 ---------------------------------------------------------------------
 Center     Atomic      Atomic             Coordinates (Angstroms)
 Number     Number       Type             X           Y           Z
 ---------------------------------------------------------------------
      1          6           0       -3.258359   -1.215502   -0.785338
      2          6           0       -2.593731   -0.826996    0.537367
      3          6           0       -1.053451   -0.770369    0.521837
      4          6           0       -0.489982    0.125796   -0.625891
      5          6           0       -0.980994    1.593041   -0.605878
      6          6           0       -0.312839    2.614574    0.320486
      7          8           0        0.994982    3.000821   -0.095813
      8          6           0        1.029452   -0.017783   -0.902576
      9          6           0        1.429029   -1.462404   -1.309007
     10          6           0        2.119626   -2.051856   -0.055257
     11          8           0        2.132245   -1.020797    0.935179
     12          6           0        2.007311    0.230346    0.258267
     13          7           0       -0.613350   -0.510867    1.895131
     14          1           0       -3.149124   -0.439858   -1.551557
     15          1           0       -4.331491   -1.385712   -0.644690
     16          1           0       -2.826732   -2.140894   -1.187365
     17          1           0       -2.993673    0.137705    0.881390
     18          1           0       -2.863242   -1.549767    1.314673
     19          1           0       -0.714274   -1.791037    0.296001
     20          1           0       -0.949442   -0.289837   -1.534149
     21          1           0       -0.898944    1.993781   -1.628955
     22          1           0       -2.055470    1.598971   -0.384542
     23          1           0       -0.962900    3.500473    0.399478
     24          1           0       -0.187706    2.219512    1.331327
     25          1           0        0.916943    3.356781   -0.994616
     26          1           0        1.266653    0.674434   -1.717970
     27          1           0        2.123518   -1.443282   -2.154479
     28          1           0        0.560917   -2.053085   -1.617102
     29          1           0        1.586247   -2.907686    0.369787
     30          1           0        3.149827   -2.365377   -0.277157
     31          1           0        2.984354    0.547243   -0.138768
     32          1           0        1.687677    0.970428    0.986895
     33          1           0        0.392364   -0.649370    1.966817
     34          1           0       -0.836251    0.439367    2.180083
 ---------------------------------------------------------------------

 SCF Done:  E(UB3LYP) =  -599.104650998     A.U. after   27 cycles

 The electronic state is 2-A.
 Alpha  occ. eigenvalues --  -19.02518 -19.01595 -14.18146 -10.11752 -10.11315
 Alpha  occ. eigenvalues --  -10.10596 -10.09399 -10.07130 -10.06847 -10.06831
 Alpha  occ. eigenvalues --  -10.06419 -10.06224 -10.06116  -0.94173  -0.91760
 Alpha  occ. eigenvalues --   -0.78370  -0.70684  -0.66994  -0.65659  -0.63550
 Alpha  occ. eigenvalues --   -0.59196  -0.54910  -0.51198  -0.49630  -0.48583
 Alpha  occ. eigenvalues --   -0.44756  -0.41030  -0.39739  -0.38927  -0.37462
 Alpha  occ. eigenvalues --   -0.36212  -0.35865  -0.34647  -0.33667  -0.33158
 Alpha  occ. eigenvalues --   -0.31165  -0.30959  -0.29891  -0.28775  -0.27063
 Alpha  occ. eigenvalues --   -0.25827  -0.24967  -0.24822  -0.24494  -0.23976
 Alpha  occ. eigenvalues --   -0.23297  -0.21999  -0.21659  -0.19886  -0.17224
 Alpha  occ. eigenvalues --   -0.15983  -0.13132   0.04343
 Alpha virt. eigenvalues --    0.06805   0.06916   0.08010   0.08892   0.09203
 Alpha virt. eigenvalues --    0.09680   0.10145   0.10263   0.11372   0.11811
 Alpha virt. eigenvalues --    0.12268   0.12848   0.13297   0.13509   0.14039

  Beta  occ. eigenvalues --  -19.02518 -19.01552 -14.18144 -10.11742 -10.11298
  Beta  occ. eigenvalues --  -10.10586 -10.09391 -10.07116 -10.06844 -10.06809
  Beta  occ. eigenvalues --  -10.06411 -10.06187 -10.06088  -0.94167  -0.91668
  Beta  occ. eigenvalues --   -0.78361  -0.70651  -0.66967  -0.65609  -0.63515
  Beta  occ. eigenvalues --   -0.59151  -0.54860  -0.51122  -0.49582  -0.48542
  Beta  occ. eigenvalues --   -0.44715  -0.41016  -0.39683  -0.38846  -0.37430
  Beta  occ. eigenvalues --   -0.36184  -0.35838  -0.34616  -0.33643  -0.33117
  Beta  occ. eigenvalues --   -0.31138  -0.30920  -0.29866  -0.28741  -0.27021
  Beta  occ. eigenvalues --   -0.25794  -0.24938  -0.24770  -0.24460  -0.23943
  Beta  occ. eigenvalues --   -0.23259  -0.21974  -0.21636  -0.19854  -0.17181
  Beta  occ. eigenvalues --   -0.15962  -0.13122
  Beta virt. eigenvalues --    0.06701   0.07403   0.07852   0.08459   0.09270
  Beta virt. eigenvalues --    0.09725   0.10015   0.10398   0.10728   0.11619
  Beta virt. eigenvalues --    0.12081   0.12644   0.13139   0.13599   0.13849

 Mulliken charges and spin densities:
               1          2
     1  C    0.411532  -1.051543
     2  C   -0.380459   0.171424
     3  C   -0.160518  -0.302738
     4  C   -0.341747   1.119425
     5  C    0.649503  -1.228605
     6  C    1.027626  -1.474035
     7  O   -0.240785   0.052135
     8  C   -1.298004   1.256059
     9  C    1.018744  -1.647640
    10  C   -0.300784   0.073457
    11  O   -0.091828  -0.005821
    12  C   -0.078424  -0.662493
    13  N   -0.360960   0.056668
    14  H   -0.374703   0.537877
    15  H   -0.093256   0.230661
    16  H   -0.188144   0.320429
    17  H    0.067767   0.053481
    18  H    0.094939   0.083379
    19  H    0.452226  -0.236857
    20  H    0.505651  -0.280808
    21  H   -0.889802   1.089554
    22  H    0.299760  -0.184703
    23  H   -0.523066   0.680776
    24  H    0.243469  -0.091399
    25  H   -0.039795   0.292254
    26  H   -0.456386   0.719672
    27  H   -0.415219   0.593311
    28  H   -0.145148   0.274301
    29  H   -0.032021   0.190466
    30  H   -0.012538   0.167416
    31  H   -0.020872   0.186433
    32  H    0.266158  -0.066710
    33  H    0.248276   0.031989
    34  H    0.158810   0.052183
 Sum of Mulliken charges =  -1.00000   1.00000

 Dipole moment (field-independent basis, Debye):
    X=              0.0576    Y=             -3.4147    Z=              5.0427  Tot=              6.0903
 Quadrupole moment (field-independent basis, Debye-Ang):
   XX=           -130.8196   YY=           -137.1608   ZZ=           -128.2819
   XY=             -1.9045   XZ=             -1.1541   YZ=              9.7200

 Summary of Natural Population Analysis:

                                       Natural Population
                Natural  -----------------------------------------------
    Atom  No    Charge         Core      Valence    Rydberg      Total
 -----------------------------------------------------------------------
      C    1   -0.28847      0.99966     2.28406    0.00475     3.28847
      C    2   -0.19063      0.99962     2.18149    0.00953     3.19063
      C    3   -0.01313      0.99956     2.00025    0.01331     3.01313
      C    4   -0.11505      0.99954     2.10080    0.01471     3.11505
      C    5   -0.20822      0.99959     2.19641    0.01222     3.20822
      C    6   -0.00931      0.99958     1.99672    0.01301     3.00931
      O    7   -0.37342      0.99990     3.36643    0.00708     4.37342
      C    8   -0.12289      0.99957     2.10866    0.01465     3.12289
      C    9   -0.20579      0.99963     2.19794    0.00823     3.20579
      C   10   -0.01151      0.99960     2.00002    0.01188     3.01151
      O   11   -0.31076      0.99989     3.30307    0.00779     4.31076
      C   12   -0.01285      0.99957     2.00007    0.01322     3.01285
      N   13   -0.43116      0.99976     2.92265    0.00875     3.93116
      H   14    0.09963      0.00000     0.39924    0.00113     0.40037
      H   15    0.09758      0.00000     0.40168    0.00074     0.40242
      H   16    0.09669      0.00000     0.40220    0.00111     0.40331
      H   17    0.09076      0.00000     0.40809    0.00115     0.40924
      H   18    0.10055      0.00000     0.39829    0.00116     0.39945
      H   19    0.08904      0.00000     0.40879    0.00216     0.41096
      H   20    0.10324      0.00000     0.39418    0.00258     0.39676
      H   21    0.10372      0.00000     0.39239    0.00389     0.39628
      H   22    0.10194      0.00000     0.39657    0.00149     0.39806
      H   23    0.07903      0.00000     0.41964    0.00133     0.42097
      H   24    0.07853      0.00000     0.41982    0.00165     0.42147
      H   25    0.23259      0.00000     0.25988    0.00753     0.26741
      H   26    0.11041      0.00000     0.38737    0.00222     0.38959
      H   27    0.10382      0.00000     0.39475    0.00143     0.39618
      H   28    0.10258      0.00000     0.39606    0.00137     0.39742
      H   29    0.08626      0.00000     0.41259    0.00115     0.41374
      H   30    0.07951      0.00000     0.41925    0.00124     0.42049
      H   31    0.08290      0.00000     0.41593    0.00118     0.41710
      H   32    0.09893      0.00000     0.39933    0.00174     0.40107
      H   33    0.18874      0.00000     0.30890    0.00237     0.31126
      H   34    0.16670      0.00000     0.33123    0.00207     0.33330
 =======================================================================
   * Total *   -0.00000     12.99549    38.82472    0.17980    52.00000

 Normal termination of Gaussian 16 at Thu Dec 10 00:00:58 2020.
