 Gaussian 16, Revision A.03,

 -----------------------------------------------------------
 # opt freq B3LYP/6-31G(d) empiricaldispersion=gd3bj scf=xqc
 -----------------------------------------------------------

 -----------------------------
 CID_3482948_JID_5008_neutraal
 -----------------------------
 Symbolic Z-matrix:
 Charge =  0 Multiplicity = 1

 SCF Done:  E(RB3LYP) =  -1062.51105257     A.U. after   15 cycles
 SCF Done:  E(RB3LYP) =  -1062.51730090     A.U. after   13 cycles
 SCF Done:  E(RB3LYP) =  -1062.51517117     A.U. after   13 cycles
 SCF Done:  E(RB3LYP) =  -1062.51800849     A.U. after   12 cycles
 SCF Done:  E(RB3LYP) =  -1062.51847541     A.U. after   12 cycles
 SCF Done:  E(RB3LYP) =  -1062.51865921     A.U. after   11 cycles
 SCF Done:  E(RB3LYP) =  -1062.51873898     A.U. after   11 cycles
 SCF Done:  E(RB3LYP) =  -1062.51879562     A.U. after   10 cycles
 SCF Done:  E(RB3LYP) =  -1062.51885002     A.U. after   11 cycles
 SCF Done:  E(RB3LYP) =  -1062.51889597     A.U. after   11 cycles
 SCF Done:  E(RB3LYP) =  -1062.51898525     A.U. after   12 cycles
 SCF Done:  E(RB3LYP) =  -1062.51899645     A.U. after   10 cycles
 SCF Done:  E(RB3LYP) =  -1062.51900188     A.U. after   10 cycles
 SCF Done:  E(RB3LYP) =  -1062.51900400     A.U. after    9 cycles
 SCF Done:  E(RB3LYP) =  -1062.51900417     A.U. after    8 cycles
 SCF Done:  E(RB3LYP) =  -1062.51900423     A.U. after    8 cycles
 Optimization completed.
    -- Stationary point found.
 Normal termination of Gaussian 16 at Thu Dec 10 14:48:22 2020.

 --------------------------------------------------------------------
 #N Geom=AllCheck Guess=TCheck SCRF=Check GenChk RB3LYP/6-31G(d) Freq
 --------------------------------------------------------------------

 Structure from the checkpoint file:  "JID_5008.chk"
 -----------------------------
 CID_3482948_JID_5008_neutraal
 -----------------------------
 Charge =  0 Multiplicity = 1

 SCF Done:  E(RB3LYP) =  -1062.51900423     A.U. after    1 cycles

  Exact polarizability: 180.396  12.748 135.424  -0.757  -7.408  81.319
 Approx polarizability: 232.113  33.188 241.892  -4.602  -9.602 132.226

                      1                      2                      3
                      A                      A                      A
 Frequencies --     33.2533                54.5560                70.8886
 Red. masses --      3.8476                 5.7585                 4.3550
 Frc consts  --      0.0025                 0.0101                 0.0129
 IR Inten    --      0.2063                 0.9805                 1.7990

                      4                      5                      6
                      A                      A                      A
 Frequencies --     77.8585               101.0406               161.4945
 Red. masses --      9.2794                 3.4053                 8.6023
 Frc consts  --      0.0331                 0.0205                 0.1322
 IR Inten    --      0.8388                 1.0271                 7.0745

                      7                      8                      9
                      A                      A                      A
 Frequencies --    200.7827               237.5743               270.8918
 Red. masses --      4.1611                 5.0723                 6.7289
 Frc consts  --      0.0988                 0.1687                 0.2909
 IR Inten    --      3.0689                 7.3932                 2.9588

                     10                     11                     12
                      A                      A                      A
 Frequencies --    296.5741               344.9008               371.6647
 Red. masses --      6.1514                 7.5617                 2.5397
 Frc consts  --      0.3188                 0.5300                 0.2067
 IR Inten    --     15.8550                 6.4320                 1.9454

                     13                     14                     15
                      A                      A                      A
 Frequencies --    398.4264               442.3139               495.6358
 Red. masses --      3.9014                 4.3286                 5.5985
 Frc consts  --      0.3649                 0.4989                 0.8103
 IR Inten    --      4.1864                 3.8153                 1.5472

                     16                     17                     18
                      A                      A                      A
 Frequencies --    508.2763               559.0747               570.3462
 Red. masses --      4.7015                 2.9108                 2.9433
 Frc consts  --      0.7156                 0.5360                 0.5641
 IR Inten    --     22.4855                33.9159                52.5497

                     19                     20                     21
                      A                      A                      A
 Frequencies --    606.5646               627.3787               638.8104
 Red. masses --      1.2840                 3.0256                 3.6997
 Frc consts  --      0.2783                 0.7016                 0.8895
 IR Inten    --     89.5861                13.5328                28.1935

                     22                     23                     24
                      A                      A                      A
 Frequencies --    657.3723               677.4570               680.9321
 Red. masses --      1.8078                 2.0488                 2.2764
 Frc consts  --      0.4603                 0.5540                 0.6219
 IR Inten    --    136.6802                35.3780                88.1572

                     25                     26                     27
                      A                      A                      A
 Frequencies --    716.3046               758.8826               770.9374
 Red. masses --      2.6818                 3.2708                 3.9159
 Frc consts  --      0.8107                 1.1098                 1.3713
 IR Inten    --      9.9101                 8.4698                12.9039

                     28                     29                     30
                      A                      A                      A
 Frequencies --    837.3016               864.6996               901.1597
 Red. masses --      2.6168                 4.2519                 3.4450
 Frc consts  --      1.0809                 1.8731                 1.6483
 IR Inten    --     13.6443                13.8623                28.6608

                     31                     32                     33
                      A                      A                      A
 Frequencies --    925.1337               965.6963               991.5473
 Red. masses --      2.4935                 2.5302                 1.7675
 Frc consts  --      1.2574                 1.3902                 1.0238
 IR Inten    --      2.6939                12.7874                 7.8007

                     34                     35                     36
                      A                      A                      A
 Frequencies --   1005.5798              1025.6933              1034.8977
 Red. masses --      1.4178                 2.7083                 2.9642
 Frc consts  --      0.8447                 1.6787                 1.8705
 IR Inten    --      2.7287                 1.4517                49.8009

                     37                     38                     39
                      A                      A                      A
 Frequencies --   1065.4643              1108.2728              1122.1128
 Red. masses --      2.5612                 2.7374                 2.4889
 Frc consts  --      1.7131                 1.9810                 1.8464
 IR Inten    --     18.6720                48.6826                32.8253

                     40                     41                     42
                      A                      A                      A
 Frequencies --   1153.7276              1193.0766              1219.9697
 Red. masses --      2.2730                 1.4245                 2.2516
 Frc consts  --      1.7826                 1.1947                 1.9744
 IR Inten    --     43.4013                70.1315               134.5399

                     43                     44                     45
                      A                      A                      A
 Frequencies --   1241.0145              1249.2352              1270.8547
 Red. masses --      1.2060                 1.1435                 1.4305
 Frc consts  --      1.0944                 1.0515                 1.3612
 IR Inten    --     11.5716                 2.2941                 4.1523

                     46                     47                     48
                      A                      A                      A
 Frequencies --   1320.5810              1338.3913              1341.6169
 Red. masses --      1.4295                 1.5053                 1.7837
 Frc consts  --      1.4688                 1.5887                 1.8916
 IR Inten    --     26.0486                86.2647               234.4135

                     49                     50                     51
                      A                      A                      A
 Frequencies --   1366.9025              1390.1901              1397.5604
 Red. masses --      1.5553                 1.6349                 1.6444
 Frc consts  --      1.7122                 1.8616                 1.8923
 IR Inten    --      6.1691                 6.6201                 3.4120

                     52                     53                     54
                      A                      A                      A
 Frequencies --   1412.0661              1432.9980              1447.8018
 Red. masses --      5.2141                 1.6265                 4.1594
 Frc consts  --      6.1255                 1.9679                 5.1369
 IR Inten    --     25.2359                 1.3155                47.6573

                     55                     56                     57
                      A                      A                      A
 Frequencies --   1513.8699              1514.8711              1561.4774
 Red. masses --      1.0787                 1.0873                 1.3787
 Frc consts  --      1.4566                 1.4702                 1.9806
 IR Inten    --      4.9585                 6.0227               228.5107

                     58                     59                     60
                      A                      A                      A
 Frequencies --   1681.1657              1753.4116              1802.3801
 Red. masses --      1.3021                 6.3251                10.0687
 Frc consts  --      2.1683                11.4573                19.2716
 IR Inten    --    246.6747                 6.8583               442.0352

                     61                     62                     63
                      A                      A                      A
 Frequencies --   1866.6547              3015.7128              3036.1734
 Red. masses --     11.7479                 1.0725                 1.0746
 Frc consts  --     24.1177                 5.7469                 5.8366
 IR Inten    --     30.3861                17.0940                16.0938

                     64                     65                     66
                      A                      A                      A
 Frequencies --   3047.1089              3068.4777              3095.5539
 Red. masses --      1.0701                 1.1011                 1.0894
 Frc consts  --      5.8540                 6.1082                 6.1507
 IR Inten    --     15.7263                10.0191                10.5196

                     67                     68                     69
                      A                      A                      A
 Frequencies --   3125.4338              3168.2146              3189.4770
 Red. masses --      1.0872                 1.0847                 1.0969
 Frc consts  --      6.2573                 6.4150                 6.5746
 IR Inten    --     11.1730                 5.8958                36.1907

                     70                     71                     72
                      A                      A                      A
 Frequencies --   3477.6350              3540.5077              3668.1357
 Red. masses --      1.0577                 1.0764                 1.0927
 Frc consts  --      7.5365                 7.9494                 8.6625
 IR Inten    --    162.6850                48.6191                96.2413

 - Thermochemistry -
 -------------------
 Temperature   298.150 Kelvin.  Pressure   1.00000 Atm.
 Atom     1 has atomic number  6 and mass  12.00000

 Molecular mass:   225.05720 amu.
 Principal axes and moments of inertia in atomic units:
                           1         2         3
     Eigenvalues --  1425.678725620.237606614.96935
           X            0.99998  -0.00536   0.00260
           Y            0.00543   0.99962  -0.02712
           Z           -0.00246   0.02714   0.99963
 This molecule is an asymmetric top.
 Rotational symmetry number  1.
 Warning -- assumption of classical behavior for rotation
           may cause significant error
 Rotational temperatures (Kelvin)      0.06075     0.01541     0.01309
 Rotational constants (GHZ):           1.26588     0.32111     0.27283
 Zero-point vibrational energy     538798.0 (Joules/Mol)
                                  128.77582 (Kcal/Mol)
 Warning -- explicit consideration of  19 degrees of freedom as
           vibrations may cause significant error
 Vibrational temperatures:     47.84    78.49   101.99   112.02   145.37
          (Kelvin)            232.35   288.88   341.82   389.75   426.70
                              496.24   534.74   573.25   636.39   713.11
                              731.30   804.38   820.60   872.71   902.66
                              919.11   945.81   974.71   979.71  1030.60
                             1091.86  1109.21  1204.69  1244.11  1296.57
                             1331.06  1389.42  1426.62  1446.81  1475.74
                             1488.99  1532.97  1594.56  1614.47  1659.96
                             1716.57  1755.26  1785.54  1797.37  1828.48
                             1900.02  1925.65  1930.29  1966.67  2000.17
                             2010.78  2031.65  2061.76  2083.06  2178.12
                             2179.56  2246.62  2418.82  2522.77  2593.22
                             2685.70  4338.94  4368.38  4384.11  4414.86
                             4453.81  4496.80  4558.35  4588.95  5003.54
                             5094.00  5277.63

 Zero-point correction=                           0.205217 (Hartree/Particle)
 Thermal correction to Energy=                    0.218486
 Thermal correction to Enthalpy=                  0.219430
 Thermal correction to Gibbs Free Energy=         0.163902
 Sum of electronic and zero-point Energies=          -1062.313787
 Sum of electronic and thermal Energies=             -1062.300518
 Sum of electronic and thermal Enthalpies=           -1062.299574
 Sum of electronic and thermal Free Energies=        -1062.355103

                     E (Thermal)             CV                S
                      KCal/Mol        Cal/Mol-Kelvin    Cal/Mol-Kelvin
 Total                  137.102             50.515            116.870
 Electronic               0.000              0.000              0.000
 Translational            0.889              2.981             42.136
 Rotational               0.889              2.981             32.339
 Vibrational            135.324             44.554             42.395
 Vibration     1          0.594              1.983              5.625
 Vibration     2          0.596              1.976              4.645
 Vibration     3          0.598              1.968              4.129
 Vibration     4          0.599              1.964              3.944
 Vibration     5          0.604              1.948              3.434
 Vibration     6          0.622              1.890              2.532
 Vibration     7          0.638              1.839              2.126
 Vibration     8          0.656              1.783              1.821
 Vibration     9          0.675              1.727              1.591
 Vibration    10          0.690              1.680              1.436
 Vibration    11          0.723              1.586              1.189
 Vibration    12          0.743              1.530              1.073
 Vibration    13          0.765              1.473              0.968
 Vibration    14          0.802              1.378              0.819
 Vibration    15          0.851              1.260              0.669
 Vibration    16          0.863              1.232              0.638
 Vibration    17          0.915              1.120              0.526
 Vibration    18          0.926              1.095              0.504
 Vibration    19          0.965              1.018              0.439

 Optimization completed.
    -- Stationary point found.
 Normal termination of Gaussian 16 at Thu Dec 10 14:56:33 2020.

 ----------------------------------------------------------------------
 # B3LYP/6-311++G(d,p) empiricaldispersion=gd3bj scf=xqc pop=npa geom=c
 heck
 ----------------------------------------------------------------------

 -------------------------------------
 CID_3482948_JID_5008_Energie_neutraal
 -------------------------------------
 Structure from the checkpoint file:  "JID_5008.chk"
 Charge =  0 Multiplicity = 1

 SCF Done:  E(RB3LYP) =  -1062.74011277     A.U. after   15 cycles
 Normal termination of Gaussian 16 at Thu Dec 10 14:59:39 2020.

 ----------------------------------------------------------------------
 # B3LYP/6-311++G(d,p) empiricaldispersion=gd3bj scf=xqc pop=npa geom=c
 heck
 ----------------------------------------------------------------------

 -----------------------------------
 CID_3482948_JID_5008_Energie_kation
 -----------------------------------
 Structure from the checkpoint file:  "JID_5008.chk"
 Charge =  1 Multiplicity = 2

 SCF Done:  E(UB3LYP) =  -1062.43901902     A.U. after   27 cycles
 Normal termination of Gaussian 16 at Thu Dec 10 15:10:03 2020.
 Gaussian 16:  ES64L-G16RevA.03 25-Dec-2016

 ----------------------------------------------------------------------
 # B3LYP/6-311++G(d,p) empiricaldispersion=gd3bj scf=xqc pop=npa geom=c
 heck
 ----------------------------------------------------------------------

 ----------------------------------
 CID_3482948_JID_5008_Energie_anion
 ----------------------------------
 Structure from the checkpoint file:  "JID_5008.chk"
 Charge = -1 Multiplicity = 2

                         Standard orientation:
 ---------------------------------------------------------------------
 Center     Atomic      Atomic             Coordinates (Angstroms)
 Number     Number       Type             X           Y           Z
 ---------------------------------------------------------------------
      1          6           0       -2.893513   -1.439577    0.385817
      2          6           0       -3.926810   -0.641757   -0.357753
      3          6           0       -3.776185    0.627622   -0.736461
      4          6           0       -2.522223    1.421124   -0.495981
      5          6           0       -1.702376    0.894501    0.708898
      6          6           0       -1.636334   -0.646950    0.778201
      7          6           0       -0.390602   -0.982690   -0.036312
      8          8           0       -0.084563   -2.048273   -0.537814
      9          7           0        0.410052    0.154227    0.001422
     10          6           0       -0.257333    1.299398    0.480456
     11          8           0        0.259401    2.392052    0.535887
     12          7           0        1.657278    0.297150   -0.614535
     13          6           0        2.793003   -0.332870   -0.096461
     14         16           0        4.278646    0.411285   -0.214974
     15          7           0        2.571959   -1.555418    0.437012
     16          1           0       -3.354313   -1.859869    1.288754
     17          1           0       -2.582797   -2.306868   -0.212170
     18          1           0       -4.853515   -1.163975   -0.586988
     19          1           0       -4.573082    1.127039   -1.282936
     20          1           0       -1.902485    1.394433   -1.405273
     21          1           0       -2.746723    2.479189   -0.326964
     22          1           0       -2.083745    1.335816    1.631891
     23          1           0       -1.359811   -0.923581    1.804502
     24          1           0        1.821600    1.284135   -0.798978
     25          1           0        1.771472   -2.092451    0.107177
     26          1           0        3.405564   -2.069186    0.686262
 ---------------------------------------------------------------------

 SCF Done:  E(UB3LYP) =  -1062.74842961     A.U. after   29 cycles

 The electronic state is 2-A.
 Alpha  occ. eigenvalues --  -88.69105 -18.98787 -18.98436 -14.28101 -14.27475
 Alpha  occ. eigenvalues --  -14.23706 -10.18647 -10.15573 -10.14918 -10.08419
 Alpha  occ. eigenvalues --  -10.07902 -10.07891 -10.07216 -10.07073 -10.07014
 Alpha  occ. eigenvalues --   -7.77908  -5.74312  -5.73748  -5.73436  -0.97009
 Alpha  occ. eigenvalues --   -0.93081  -0.90215  -0.84197  -0.77710  -0.72926
 Alpha  occ. eigenvalues --   -0.66578  -0.65552  -0.62104  -0.56214  -0.54448
 Alpha  occ. eigenvalues --   -0.52288  -0.49548  -0.47950  -0.44488  -0.41372
 Alpha  occ. eigenvalues --   -0.40381  -0.39079  -0.38291  -0.36316  -0.34871
 Alpha  occ. eigenvalues --   -0.33855  -0.32363  -0.32231  -0.30718  -0.29817
 Alpha  occ. eigenvalues --   -0.29509  -0.28035  -0.27532  -0.27057  -0.25452
 Alpha  occ. eigenvalues --   -0.24178  -0.21617  -0.21213  -0.17255  -0.15947
 Alpha  occ. eigenvalues --   -0.15136  -0.14662  -0.12747  -0.11361   0.03885
 Alpha virt. eigenvalues --    0.06642   0.07298   0.08106   0.08463   0.08807
 Alpha virt. eigenvalues --    0.10274   0.10464   0.10914   0.11333   0.11606
 Alpha virt. eigenvalues --    0.12567   0.12712   0.13274   0.13960   0.14245

  Beta  occ. eigenvalues --  -88.69104 -18.98534 -18.98177 -14.28200 -14.27472
  Beta  occ. eigenvalues --  -14.23679 -10.18592 -10.15315 -10.14557 -10.08404
  Beta  occ. eigenvalues --  -10.07910 -10.07868 -10.07205 -10.07057 -10.06989
  Beta  occ. eigenvalues --   -7.77907  -5.74313  -5.73740  -5.73435  -0.96751
  Beta  occ. eigenvalues --   -0.92580  -0.89971  -0.84103  -0.77546  -0.72881
  Beta  occ. eigenvalues --   -0.66503  -0.65449  -0.62044  -0.55759  -0.54351
  Beta  occ. eigenvalues --   -0.52218  -0.49398  -0.47815  -0.44331  -0.41233
  Beta  occ. eigenvalues --   -0.40244  -0.38831  -0.38223  -0.36028  -0.34579
  Beta  occ. eigenvalues --   -0.33512  -0.32142  -0.31992  -0.30485  -0.29722
  Beta  occ. eigenvalues --   -0.29226  -0.27738  -0.27013  -0.26318  -0.25200
  Beta  occ. eigenvalues --   -0.24118  -0.21145  -0.20814  -0.17069  -0.15558
  Beta  occ. eigenvalues --   -0.15077  -0.14463  -0.12642  -0.11302
  Beta virt. eigenvalues --    0.06613   0.07623   0.08088   0.08570   0.08889
  Beta virt. eigenvalues --    0.10201   0.10328   0.10620   0.11156   0.11666
  Beta virt. eigenvalues --    0.11741   0.12610   0.13123   0.13608   0.14224

 Mulliken charges and spin densities:
               1          2
     1  C    0.289912  -0.935518
     2  C    0.022400  -0.122920
     3  C   -0.176641   0.137139
     4  C   -0.442439  -0.113737
     5  C    0.204923   0.199470
     6  C    0.562058  -0.170202
     7  C   -0.398246  -0.132662
     8  O   -0.412592   0.111591
     9  N    0.348114  -0.024996
    10  C   -0.089692  -0.100957
    11  O   -0.376186   0.085277
    12  N   -0.010494   0.008286
    13  C    0.116137   0.011966
    14  S   -0.636107  -0.048996
    15  N   -0.260628  -0.009847
    16  H   -0.287336   0.439155
    17  H    0.193804   0.007211
    18  H   -0.078526   0.239366
    19  H   -0.062800   0.231477
    20  H    0.088940   0.094378
    21  H    0.119120   0.033254
    22  H   -0.013309   0.276732
    23  H   -0.397820   0.664651
    24  H    0.226001   0.025695
    25  H    0.229931   0.059461
    26  H    0.241480   0.034727
 Sum of Mulliken charges =  -1.00000   1.00000

 Dipole moment (field-independent basis, Debye):
    X=             -1.4488    Y=             -0.6505    Z=             -1.6913  Tot=              2.3200
 Quadrupole moment (field-independent basis, Debye-Ang):
   XX=           -157.1888   YY=           -123.2505   ZZ=           -117.7018
   XY=            -11.5449   XZ=              6.7549   YZ=             -2.3546

 Summary of Natural Population Analysis:

                                       Natural Population
                Natural  -----------------------------------------------
    Atom  No    Charge         Core      Valence    Rydberg      Total
 -----------------------------------------------------------------------
      C    1   -0.20847      0.99959     2.19887    0.01000     3.20847
      C    2   -0.08560      0.99952     2.07699    0.00910     3.08560
      C    3   -0.09803      0.99953     2.08893    0.00958     3.09803
      C    4   -0.19929      0.99960     2.19135    0.00834     3.19929
      C    5   -0.14038      0.99956     2.12884    0.01198     3.14038
      C    6   -0.14774      0.99956     2.13602    0.01216     3.14774
      C    7    0.40396      0.99962     1.57284    0.02357     2.59604
      O    8   -0.30248      0.99986     3.29691    0.00570     4.30248
      N    9   -0.19053      0.99956     2.67917    0.01180     3.69053
      C   10    0.39019      0.99964     1.58607    0.02410     2.60981
      O   11   -0.28553      0.99987     3.28007    0.00559     4.28553
      N   12   -0.22438      0.99963     2.71026    0.01449     3.72438
      C   13    0.15105      0.99971     1.82845    0.02079     2.84895
      S   14   -0.14142      4.99955     3.12795    0.01392     8.14142
      N   15   -0.39296      0.99966     2.88381    0.00950     3.89296
      H   16    0.10616      0.00000     0.39194    0.00191     0.39384
      H   17    0.11577      0.00000     0.38290    0.00133     0.38423
      H   18    0.09403      0.00000     0.40513    0.00084     0.40597
      H   19    0.09484      0.00000     0.40421    0.00095     0.40516
      H   20    0.10403      0.00000     0.39456    0.00142     0.39597
      H   21    0.10536      0.00000     0.39349    0.00116     0.39464
      H   22    0.11133      0.00000     0.38762    0.00105     0.38867
      H   23    0.12620      0.00000     0.36805    0.00574     0.37380
      H   24    0.20597      0.00000     0.29105    0.00298     0.29403
      H   25    0.21340      0.00000     0.28445    0.00215     0.28660
      H   26    0.19452      0.00000     0.30380    0.00168     0.30548
 =======================================================================
   * Total *    0.00000     18.99447    39.79373    0.21180    59.00000

 Normal termination of Gaussian 16 at Thu Dec 10 15:19:20 2020.
