 Gaussian 16, Revision A.03,

 -----------------------------------------------------------
 # opt freq B3LYP/6-31G(d) empiricaldispersion=gd3bj scf=xqc
 -----------------------------------------------------------

 -------------------------------
 CID_131272532_JID_3207_neutraal
 -------------------------------
 Symbolic Z-matrix:
 Charge =  0 Multiplicity = 1

 SCF Done:  E(RB3LYP) =  -605.038817781     A.U. after   15 cycles
 SCF Done:  E(RB3LYP) =  -605.045334986     A.U. after   13 cycles
 SCF Done:  E(RB3LYP) =  -605.046247874     A.U. after   12 cycles
 SCF Done:  E(RB3LYP) =  -605.046683392     A.U. after   13 cycles
 SCF Done:  E(RB3LYP) =  -605.046939539     A.U. after   12 cycles
 SCF Done:  E(RB3LYP) =  -605.047092957     A.U. after   12 cycles
 SCF Done:  E(RB3LYP) =  -605.047192445     A.U. after   12 cycles
 SCF Done:  E(RB3LYP) =  -605.047237428     A.U. after   11 cycles
 SCF Done:  E(RB3LYP) =  -605.047246233     A.U. after   10 cycles
 SCF Done:  E(RB3LYP) =  -605.047248440     A.U. after    8 cycles
 SCF Done:  E(RB3LYP) =  -605.047248723     A.U. after    8 cycles
 Optimization completed.
    -- Stationary point found.
 Normal termination of Gaussian 16 at Wed Dec  9 22:27:40 2020.

 --------------------------------------------------------------------
 #N Geom=AllCheck Guess=TCheck SCRF=Check GenChk RB3LYP/6-31G(d) Freq
 --------------------------------------------------------------------

 Structure from the checkpoint file:  "JID_3207.chk"
 -------------------------------
 CID_131272532_JID_3207_neutraal
 -------------------------------
 Charge =  0 Multiplicity = 1

 SCF Done:  E(RB3LYP) =  -605.047248723     A.U. after    1 cycles

  Exact polarizability: 120.003   5.139 114.852 -10.151  -3.252  68.311
 Approx polarizability: 173.410   3.279 189.424 -22.932  -2.303 107.421

                      1                      2                      3
                      A                      A                      A
 Frequencies --     39.4362                81.6703               139.6183
 Red. masses --      5.5016                 4.8174                 4.8977
 Frc consts  --      0.0050                 0.0189                 0.0563
 IR Inten    --      8.6172                 0.9632                 1.1522

                      4                      5                      6
                      A                      A                      A
 Frequencies --    145.7172               174.5484               265.7999
 Red. masses --     10.1430                 3.5535                 4.2499
 Frc consts  --      0.1269                 0.0638                 0.1769
 IR Inten    --      8.1913                 0.4577                13.3638

                      7                      8                      9
                      A                      A                      A
 Frequencies --    301.5787               312.2770               382.2463
 Red. masses --      3.3443                 3.2833                 2.9187
 Frc consts  --      0.1792                 0.1886                 0.2513
 IR Inten    --      7.1844                 5.3235                 2.3588

                     10                     11                     12
                      A                      A                      A
 Frequencies --    419.4349               436.4716               482.0051
 Red. masses --      6.2469                 2.8825                 4.5392
 Frc consts  --      0.6475                 0.3235                 0.6213
 IR Inten    --     10.3328                 0.7533                 2.0695

                     13                     14                     15
                      A                      A                      A
 Frequencies --    545.8782               570.4033               590.6204
 Red. masses --      6.2720                 4.1594                 4.8397
 Frc consts  --      1.1012                 0.7973                 0.9947
 IR Inten    --      0.5486                 7.9992                 2.7966

                     16                     17                     18
                      A                      A                      A
 Frequencies --    594.4252               654.4792               722.2776
 Red. masses --      1.9764                 4.1097                 5.5930
 Frc consts  --      0.4115                 1.0372                 1.7191
 IR Inten    --      4.4900                 5.1664                 5.7353

                     19                     20                     21
                      A                      A                      A
 Frequencies --    783.8716               790.0420               842.2429
 Red. masses --      1.2701                 1.7386                 2.0547
 Frc consts  --      0.4598                 0.6393                 0.8587
 IR Inten    --     32.6269               195.7041                11.2916

                     22                     23                     24
                      A                      A                      A
 Frequencies --    869.1089               889.2868               914.9631
 Red. masses --      1.3358                 2.7058                 5.1357
 Frc consts  --      0.5945                 1.2608                 2.5331
 IR Inten    --      0.6503                 4.2224                18.9184

                     25                     26                     27
                      A                      A                      A
 Frequencies --    941.6180               953.6845               981.1302
 Red. masses --      3.0080                 9.1471                 2.7977
 Frc consts  --      1.5714                 4.9017                 1.5867
 IR Inten    --      6.7391                23.2207                 2.9491

                     28                     29                     30
                      A                      A                      A
 Frequencies --    997.6307              1005.7309              1058.8249
 Red. masses --      4.0139                 2.1288                 2.7112
 Frc consts  --      2.3537                 1.2687                 1.7909
 IR Inten    --     10.0089                 5.6022                 5.2678

                     31                     32                     33
                      A                      A                      A
 Frequencies --   1079.3826              1111.1310              1140.4514
 Red. masses --      2.3941                 1.7825                 4.7228
 Frc consts  --      1.6434                 1.2966                 3.6192
 IR Inten    --     14.8673                 4.0602                49.4810

                     34                     35                     36
                      A                      A                      A
 Frequencies --   1160.3479              1175.7733              1187.0569
 Red. masses --      3.9768                 1.7778                 2.1617
 Frc consts  --      3.1547                 1.4480                 1.7947
 IR Inten    --     13.6042                11.6915                13.2553

                     37                     38                     39
                      A                      A                      A
 Frequencies --   1229.2446              1305.6329              1314.4033
 Red. masses --      1.3114                 1.5499                 1.2431
 Frc consts  --      1.1675                 1.5566                 1.2654
 IR Inten    --      4.2004                32.0818                 3.1070

                     40                     41                     42
                      A                      A                      A
 Frequencies --   1335.7079              1358.6461              1375.8854
 Red. masses --      1.5497                 1.3032                 1.2324
 Frc consts  --      1.6290                 1.4173                 1.3746
 IR Inten    --     15.2009                 2.9774                 6.6333

                     43                     44                     45
                      A                      A                      A
 Frequencies --   1399.6938              1409.4660              1411.6342
 Red. masses --      1.3940                 1.4317                 1.3238
 Frc consts  --      1.6091                 1.6757                 1.5542
 IR Inten    --      7.5058                25.7615                 5.4333

                     46                     47                     48
                      A                      A                      A
 Frequencies --   1452.6406              1495.6759              1501.5394
 Red. masses --      7.2287                 1.2278                 1.0886
 Frc consts  --      8.9873                 1.6183                 1.4461
 IR Inten    --     28.7271                22.0663                 4.0631

                     49                     50                     51
                      A                      A                      A
 Frequencies --   1513.2153              1516.8323              1532.7020
 Red. masses --      1.2001                 1.1244                 2.8807
 Frc consts  --      1.6191                 1.5242                 3.9872
 IR Inten    --     13.2126                11.4151               131.7401

                     52                     53                     54
                      A                      A                      A
 Frequencies --   1626.3339              2365.9444              3030.7066
 Red. masses --      5.7307                12.6708                 1.0815
 Frc consts  --      8.9306                41.7891                 5.8528
 IR Inten    --    113.9112                 7.5823                 6.0288

                     55                     56                     57
                      A                      A                      A
 Frequencies --   3044.6048              3064.0799              3075.9145
 Red. masses --      1.0713                 1.0605                 1.0609
 Frc consts  --      5.8512                 5.8660                 5.9138
 IR Inten    --     46.7907                21.3078                30.0409

                     58                     59                     60
                      A                      A                      A
 Frequencies --   3118.0284              3125.1537              3150.2753
 Red. masses --      1.1071                 1.1055                 1.0958
 Frc consts  --      6.3414                 6.3616                 6.4072
 IR Inten    --     22.9145                23.8415                 6.7453

                     61                     62                     63
                      A                      A                      A
 Frequencies --   3284.0268              3332.8967              3473.8911
 Red. masses --      1.0966                 1.1016                 1.0740
 Frc consts  --      6.9678                 7.2100                 7.6361
 IR Inten    --      0.7354                 3.7969                 1.4188

 - Thermochemistry -
 -------------------
 Temperature   298.150 Kelvin.  Pressure   1.00000 Atm.
 Atom     1 has atomic number  6 and mass  12.00000

 Molecular mass:   178.08546 amu.
 Principal axes and moments of inertia in atomic units:
                           1         2         3
     Eigenvalues --  1630.746632303.298333446.48036
           X            0.99722   0.07440  -0.00351
           Y           -0.07444   0.99713  -0.01377
           Z            0.00248   0.01400   0.99990
 This molecule is an asymmetric top.
 Rotational symmetry number  1.
 Warning -- assumption of classical behavior for rotation
           may cause significant error
 Rotational temperatures (Kelvin)      0.05311     0.03760     0.02513
 Rotational constants (GHZ):           1.10670     0.78355     0.52365
 Zero-point vibrational energy     487992.3 (Joules/Mol)
                                  116.63296 (Kcal/Mol)
 Warning -- explicit consideration of  16 degrees of freedom as
           vibrations may cause significant error
 Vibrational temperatures:     56.74   117.51   200.88   209.65   251.14
          (Kelvin)            382.43   433.90   449.30   549.97   603.47
                              627.99   693.50   785.40   820.68   849.77
                              855.25   941.65  1039.20  1127.82  1136.69
                             1211.80  1250.45  1279.49  1316.43  1354.78
                             1372.14  1411.63  1435.37  1447.02  1523.41
                             1552.99  1598.67  1640.86  1669.48  1691.68
                             1707.91  1768.61  1878.51  1891.13  1921.79
                             1954.79  1979.59  2013.85  2027.91  2031.03
                             2090.03  2151.94  2160.38  2177.18  2182.38
                             2205.22  2339.93  3404.07  4360.51  4380.51
                             4408.53  4425.55  4486.15  4496.40  4532.54
                             4724.98  4795.29  4998.15

 Zero-point correction=                           0.185866 (Hartree/Particle)
 Thermal correction to Energy=                    0.196471
 Thermal correction to Enthalpy=                  0.197415
 Thermal correction to Gibbs Free Energy=         0.148879
 Sum of electronic and zero-point Energies=           -604.861382
 Sum of electronic and thermal Energies=              -604.850778
 Sum of electronic and thermal Enthalpies=            -604.849834
 Sum of electronic and thermal Free Energies=         -604.898370

                     E (Thermal)             CV                S
                      KCal/Mol        Cal/Mol-Kelvin    Cal/Mol-Kelvin
 Total                  123.287             41.261            102.152
 Electronic               0.000              0.000              0.000
 Translational            0.889              2.981             41.438
 Rotational               0.889              2.981             30.938
 Vibrational            121.510             35.300             29.776
 Vibration     1          0.594              1.981              5.287
 Vibration     2          0.600              1.962              3.850
 Vibration     3          0.615              1.914              2.809
 Vibration     4          0.617              1.907              2.727
 Vibration     5          0.627              1.874              2.386
 Vibration     6          0.672              1.736              1.623
 Vibration     7          0.694              1.671              1.408
 Vibration     8          0.701              1.650              1.350
 Vibration     9          0.752              1.508              1.030
 Vibration    10          0.782              1.428              0.894
 Vibration    11          0.797              1.391              0.838
 Vibration    12          0.838              1.290              0.705
 Vibration    13          0.901              1.149              0.553
 Vibration    14          0.927              1.095              0.503
 Vibration    15          0.948              1.052              0.466
 Vibration    16          0.952              1.044              0.459

 Optimization completed.
    -- Stationary point found.
 Normal termination of Gaussian 16 at Wed Dec  9 22:34:03 2020.

 ----------------------------------------------------------------------
 # B3LYP/6-311++G(d,p) empiricaldispersion=gd3bj scf=xqc pop=npa geom=c
 heck
 ----------------------------------------------------------------------

 ---------------------------------------
 CID_131272532_JID_3207_Energie_neutraal
 ---------------------------------------
 Structure from the checkpoint file:  "JID_3207.chk"
 Charge =  0 Multiplicity = 1

 SCF Done:  E(RB3LYP) =  -605.213684201     A.U. after   15 cycles
 Normal termination of Gaussian 16 at Wed Dec  9 22:36:47 2020.

 ----------------------------------------------------------------------
 # B3LYP/6-311++G(d,p) empiricaldispersion=gd3bj scf=xqc pop=npa geom=c
 heck
 ----------------------------------------------------------------------

 -------------------------------------
 CID_131272532_JID_3207_Energie_kation
 -------------------------------------
 Structure from the checkpoint file:  "JID_3207.chk"
 Charge =  1 Multiplicity = 2

 SCF Done:  E(UB3LYP) =  -604.917075583     A.U. after   21 cycles
 Normal termination of Gaussian 16 at Wed Dec  9 22:42:09 2020.
 Gaussian 16:  ES64L-G16RevA.03 25-Dec-2016

 ----------------------------------------------------------------------
 # B3LYP/6-311++G(d,p) empiricaldispersion=gd3bj scf=xqc pop=npa geom=c
 heck
 ----------------------------------------------------------------------

 ------------------------------------
 CID_131272532_JID_3207_Energie_anion
 ------------------------------------
 Structure from the checkpoint file:  "JID_3207.chk"
 Charge = -1 Multiplicity = 2

                         Standard orientation:
 ---------------------------------------------------------------------
 Center     Atomic      Atomic             Coordinates (Angstroms)
 Number     Number       Type             X           Y           Z
 ---------------------------------------------------------------------
      1          6           0       -1.588099   -1.918922   -0.200334
      2          6           0       -0.952362   -1.397232    1.096666
      3          7           0       -0.276923   -0.101132    0.881239
      4          6           0       -1.251098    0.870993    0.353440
      5          6           0       -1.870501    0.366232   -0.982734
      6          7           0       -2.486779   -0.943980   -0.833893
      7          6           0       -0.744873    2.240837    0.227809
      8          7           0       -0.419163    3.344702    0.079403
      9          6           0        0.993255   -0.179574    0.304994
     10          7           0        1.536716   -1.363783    0.066167
     11          8           0        2.837001   -1.098555   -0.385699
     12          6           0        3.015997    0.232295   -0.424449
     13          6           0        1.904427    0.886632   -0.004975
     14          1           0       -2.152191   -2.837630   -0.007960
     15          1           0       -0.791334   -2.162012   -0.910287
     16          1           0       -1.723101   -1.232926    1.861363
     17          1           0       -0.216529   -2.100044    1.490463
     18          1           0       -2.057411    0.914295    1.099121
     19          1           0       -1.068087    0.303142   -1.727474
     20          1           0       -2.614723    1.081409   -1.347224
     21          1           0       -3.338149   -0.854125   -0.280025
     22          1           0        3.986751    0.569497   -0.759267
     23          1           0        1.761337    1.948622    0.093965
 ---------------------------------------------------------------------

 SCF Done:  E(UB3LYP) =  -605.204296498     A.U. after   33 cycles
 SCF Done:  E(UB3LYP) =  -605.204296498     a.u. after    1 cycles

 The electronic state is 2-A.
 Alpha  occ. eigenvalues --  -19.11999 -14.26007 -14.25633 -14.23104 -14.20594
 Alpha  occ. eigenvalues --  -10.15810 -10.15793 -10.15364 -10.12860 -10.11440
 Alpha  occ. eigenvalues --  -10.10497 -10.09602 -10.09402  -1.05485  -0.88936
 Alpha  occ. eigenvalues --   -0.82623  -0.81462  -0.76401  -0.70938  -0.69570
 Alpha  occ. eigenvalues --   -0.61743  -0.57580  -0.53960  -0.52828  -0.48926
 Alpha  occ. eigenvalues --   -0.46933  -0.41351  -0.40227  -0.39699  -0.38487
 Alpha  occ. eigenvalues --   -0.37566  -0.36818  -0.35628  -0.33058  -0.32143
 Alpha  occ. eigenvalues --   -0.30827  -0.29067  -0.28518  -0.27056  -0.26413
 Alpha  occ. eigenvalues --   -0.25376  -0.24909  -0.24192  -0.21995  -0.18295
 Alpha  occ. eigenvalues --   -0.16560  -0.11920   0.04332
 Alpha virt. eigenvalues --    0.05647   0.06703   0.08145   0.08606   0.09111
 Alpha virt. eigenvalues --    0.09687   0.10537   0.10896   0.11350   0.11504
 Alpha virt. eigenvalues --    0.12090   0.13324   0.13687   0.13950   0.14793

  Beta  occ. eigenvalues --  -19.11997 -14.26002 -14.25637 -14.23096 -14.20548
  Beta  occ. eigenvalues --  -10.15786 -10.15773 -10.15344 -10.12855 -10.11422
  Beta  occ. eigenvalues --  -10.10464 -10.09588 -10.09399  -1.05478  -0.88915
  Beta  occ. eigenvalues --   -0.82603  -0.81394  -0.76378  -0.70920  -0.69516
  Beta  occ. eigenvalues --   -0.61687  -0.57522  -0.53927  -0.52764  -0.48860
  Beta  occ. eigenvalues --   -0.46899  -0.41312  -0.40161  -0.39631  -0.38447
  Beta  occ. eigenvalues --   -0.37522  -0.36774  -0.35587  -0.33017  -0.32110
  Beta  occ. eigenvalues --   -0.30810  -0.29022  -0.28478  -0.27012  -0.26367
  Beta  occ. eigenvalues --   -0.25338  -0.24878  -0.24153  -0.21984  -0.18278
  Beta  occ. eigenvalues --   -0.16525  -0.11874
  Beta virt. eigenvalues --    0.06645   0.06764   0.07700   0.08773   0.09103
  Beta virt. eigenvalues --    0.09310   0.10222   0.10601   0.11084   0.11671
  Beta virt. eigenvalues --    0.11896   0.12449   0.13500   0.13716   0.14298

 Mulliken charges and spin densities:
               1          2
     1  C    0.395696  -0.794196
     2  C    0.084159  -0.211400
     3  N    0.320764  -0.043167
     4  C   -1.038400   1.477586
     5  C    1.191296  -1.853015
     6  N   -0.260942   0.168933
     7  C    1.490332  -1.862262
     8  N   -0.304994   0.038381
     9  C    0.639187  -1.093000
    10  N   -0.694324   0.170295
    11  O    0.275530  -0.034358
    12  C    0.260388  -0.552937
    13  C   -0.403455   0.562045
    14  H   -0.406865   0.592404
    15  H    0.186507  -0.010975
    16  H   -0.634328   0.834109
    17  H    0.043553   0.152249
    18  H   -0.945639   1.213563
    19  H    0.131075   0.056681
    20  H   -0.345666   0.561522
    21  H   -0.220034   0.490684
    22  H   -0.821971   1.025898
    23  H    0.058133   0.110959
 Sum of Mulliken charges =  -1.00000   1.00000

 Dipole moment (field-independent basis, Debye):
    X=              5.5155    Y=             -0.7368    Z=             -1.7272  Tot=              5.8264
 Quadrupole moment (field-independent basis, Debye-Ang):
   XX=           -153.9663   YY=           -121.5082   ZZ=           -106.3358
   XY=             -3.6425   XZ=             10.7914   YZ=              0.5926

 Summary of Natural Population Analysis:

                                       Natural Population
                Natural  -----------------------------------------------
    Atom  No    Charge         Core      Valence    Rydberg      Total
 -----------------------------------------------------------------------
      C    1   -0.09991      0.99961     2.08860    0.01169     3.09991
      C    2   -0.09750      0.99960     2.08554    0.01236     3.09750
      N    3   -0.25306      0.99966     2.73971    0.01369     3.75306
      C    4   -0.07332      0.99948     2.05728    0.01656     3.07332
      C    5   -0.08520      0.99960     2.07316    0.01243     3.08520
      N    6   -0.33306      0.99976     2.81955    0.01376     3.83306
      C    7    0.16451      0.99964     1.81873    0.01712     2.83549
      N    8   -0.17742      0.99979     2.66748    0.01015     3.67742
      C    9    0.17656      0.99956     1.80796    0.01592     2.82344
      N   10   -0.11299      0.99967     2.60218    0.01114     3.61299
      O   11   -0.16553      0.99987     3.15633    0.00934     4.16553
      C   12    0.08944      0.99955     1.89630    0.01471     2.91056
      C   13   -0.18165      0.99951     2.17410    0.00804     3.18165
      H   14    0.10107      0.00000     0.39786    0.00108     0.39893
      H   15    0.09773      0.00000     0.40068    0.00159     0.40227
      H   16    0.10284      0.00000     0.39414    0.00302     0.39716
      H   17    0.11052      0.00000     0.38795    0.00153     0.38948
      H   18    0.12948      0.00000     0.36339    0.00713     0.37052
      H   19    0.09402      0.00000     0.40453    0.00145     0.40598
      H   20    0.10548      0.00000     0.39317    0.00135     0.39452
      H   21    0.18175      0.00000     0.30542    0.01284     0.31825
      H   22    0.10112      0.00000     0.39696    0.00192     0.39888
      H   23    0.12512      0.00000     0.37379    0.00109     0.37488
 =======================================================================
   * Total *   -0.00000     12.99531    33.80480    0.19989    47.00000

 Normal termination of Gaussian 16 at Wed Dec  9 22:50:37 2020.
