 Gaussian 16, Revision A.03,

 -----------------------------------------------------------
 # opt freq B3LYP/6-31G(d) empiricaldispersion=gd3bj scf=xqc
 -----------------------------------------------------------

 -------------------------------
 CID_130633098_JID_2225_neutraal
 -------------------------------
 Symbolic Z-matrix:
 Charge =  0 Multiplicity = 1

 SCF Done:  E(RB3LYP) =  -565.734559768     A.U. after   15 cycles
 SCF Done:  E(RB3LYP) =  -565.737839012     A.U. after   13 cycles
 SCF Done:  E(RB3LYP) =  -565.733444809     A.U. after   15 cycles
 SCF Done:  E(RB3LYP) =  -565.738584341     A.U. after   12 cycles
 SCF Done:  E(RB3LYP) =  -565.738594557     A.U. after   12 cycles
 SCF Done:  E(RB3LYP) =  -565.738483279     A.U. after   13 cycles
 SCF Done:  E(RB3LYP) =  -565.738462563     A.U. after   12 cycles
 SCF Done:  E(RB3LYP) =  -565.738199988     A.U. after   12 cycles
 SCF Done:  E(RB3LYP) =  -565.738661501     A.U. after    8 cycles
 SCF Done:  E(RB3LYP) =  -565.738902772     A.U. after   12 cycles
 SCF Done:  E(RB3LYP) =  -565.744059997     A.U. after   10 cycles
 SCF Done:  E(RB3LYP) =  -565.744060310     A.U. after    9 cycles
 SCF Done:  E(RB3LYP) =  -565.744060353     A.U. after    9 cycles
 SCF Done:  E(RB3LYP) =  -565.744060415     A.U. after    8 cycles
 Optimization completed.
    -- Stationary point found.
 Normal termination of Gaussian 16 at Wed Dec  9 17:23:56 2020.

 --------------------------------------------------------------------
 #N Geom=AllCheck Guess=TCheck SCRF=Check GenChk RB3LYP/6-31G(d) Freq
 --------------------------------------------------------------------

 Structure from the checkpoint file:  "JID_2225.chk"
 -------------------------------
 CID_130633098_JID_2225_neutraal
 -------------------------------
 Charge =  0 Multiplicity = 1

 SCF Done:  E(RB3LYP) =  -565.744060415     A.U. after    1 cycles

  Exact polarizability: 117.777 -13.380  85.949  -1.754   4.011  74.311
 Approx polarizability: 161.751 -21.340 144.963   1.224  10.064 129.200

                      1                      2                      3
                      A                      A                      A
 Frequencies --     37.1397                52.6141                64.2240
 Red. masses --      4.2088                 6.8681                 4.7719
 Frc consts  --      0.0034                 0.0112                 0.0116
 IR Inten    --      3.0802                 1.8965                 0.6831

                      4                      5                      6
                      A                      A                      A
 Frequencies --    124.9773               152.6986               175.0670
 Red. masses --      1.2501                 3.7285                 4.2359
 Frc consts  --      0.0115                 0.0512                 0.0765
 IR Inten    --      0.1040                 2.2106                 2.6776

                      7                      8                      9
                      A                      A                      A
 Frequencies --    210.5941               254.2815               268.5221
 Red. masses --      3.9103                 3.8168                 4.5919
 Frc consts  --      0.1022                 0.1454                 0.1951
 IR Inten    --      1.2903                 6.9966                 3.8924

                     10                     11                     12
                      A                      A                      A
 Frequencies --    323.9866               352.7294               423.3875
 Red. masses --      2.7923                 6.8314                 3.0829
 Frc consts  --      0.1727                 0.5008                 0.3256
 IR Inten    --      2.1297                 3.4809                 1.1730

                     13                     14                     15
                      A                      A                      A
 Frequencies --    542.4361               598.7754               625.0812
 Red. masses --      4.4855                 1.1763                 7.8264
 Frc consts  --      0.7776                 0.2485                 1.8017
 IR Inten    --     17.7043                98.4111                 5.6210

                     16                     17                     18
                      A                      A                      A
 Frequencies --    646.0935               671.0573               672.8224
 Red. masses --      1.2318                 2.4973                 1.9361
 Frc consts  --      0.3030                 0.6626                 0.5164
 IR Inten    --     41.5035                 5.4700                22.8303

                     19                     20                     21
                      A                      A                      A
 Frequencies --    693.6332               722.8087               746.7992
 Red. masses --      4.3748                 5.2661                 6.5043
 Frc consts  --      1.2401                 1.6210                 2.1373
 IR Inten    --     16.1102                 5.3190                55.8573

                     22                     23                     24
                      A                      A                      A
 Frequencies --    775.9782               798.2291               888.8798
 Red. masses --      4.6383                 6.0344                 1.3798
 Frc consts  --      1.6455                 2.2654                 0.6423
 IR Inten    --     11.0409                20.9387                 7.0238

                     25                     26                     27
                      A                      A                      A
 Frequencies --    972.4110               997.7086              1041.0587
 Red. masses --      2.1419                 6.8732                 2.1522
 Frc consts  --      1.1933                 4.0310                 1.3743
 IR Inten    --     18.8123                 1.2267                11.6718

                     28                     29                     30
                      A                      A                      A
 Frequencies --   1118.5160              1157.5414              1193.7177
 Red. masses --      3.0411                 1.3259                 1.7386
 Frc consts  --      2.2416                 1.0467                 1.4597
 IR Inten    --     20.2239                 5.1868                20.8670

                     31                     32                     33
                      A                      A                      A
 Frequencies --   1232.0262              1270.9651              1318.2052
 Red. masses --      3.0515                 1.4965                 3.6706
 Frc consts  --      2.7290                 1.4242                 3.7580
 IR Inten    --     15.2447                84.7630                50.5908

                     34                     35                     36
                      A                      A                      A
 Frequencies --   1323.6684              1352.5117              1389.2631
 Red. masses --      4.7912                 1.8562                 1.8903
 Frc consts  --      4.9460                 2.0006                 2.1496
 IR Inten    --     15.5054               157.8592                29.4963

                     37                     38                     39
                      A                      A                      A
 Frequencies --   1444.2714              1476.6615              1493.1162
 Red. masses --      2.6379                 1.6477                 1.6402
 Frc consts  --      3.2419                 2.1169                 2.1545
 IR Inten    --     17.6206                 3.8403                42.7570

                     40                     41                     42
                      A                      A                      A
 Frequencies --   1505.1917              1518.4442              1520.2695
 Red. masses --      1.3263                 1.1439                 1.3382
 Frc consts  --      1.7704                 1.5539                 1.8223
 IR Inten    --     24.5602                11.9967                 9.5565

                     43                     44                     45
                      A                      A                      A
 Frequencies --   1539.1404              1571.0768              1772.4746
 Red. masses --      1.5638                 4.6787                 8.8149
 Frc consts  --      2.1827                 6.8041                16.3165
 IR Inten    --     37.4971                15.8989               422.7280

                     46                     47                     48
                      A                      A                      A
 Frequencies --   2223.8306              3078.0748              3085.3344
 Red. masses --      5.9518                 1.0369                 1.0597
 Frc consts  --     17.3421                 5.7880                 5.9435
 IR Inten    --     40.3145                19.2687                11.7172

                     49                     50                     51
                      A                      A                      A
 Frequencies --   3132.0588              3153.6484              3189.3777
 Red. masses --      1.1049                 1.1006                 1.1054
 Frc consts  --      6.3860                 6.4494                 6.6252
 IR Inten    --      2.6392                 7.6123                 1.8532

                     52                     53                     54
                      A                      A                      A
 Frequencies --   3278.8899              3488.2167              3598.3418
 Red. masses --      1.0971                 1.1607                 1.0762
 Frc consts  --      6.9496                 8.3213                 8.2104
 IR Inten    --      7.5553                55.4503                44.2872

 - Thermochemistry -
 -------------------
 Temperature   298.150 Kelvin.  Pressure   1.00000 Atm.
 Atom     1 has atomic number  6 and mass  12.00000

 Molecular mass:   164.06981 amu.
 Principal axes and moments of inertia in atomic units:
                           1         2         3
     Eigenvalues --   931.331973235.384843461.59669
           X            0.99991  -0.00829  -0.01078
           Y            0.00801   0.99963  -0.02602
           Z            0.01099   0.02593   0.99960
 This molecule is an asymmetric top.
 Rotational symmetry number  1.
 Warning -- assumption of classical behavior for rotation
           may cause significant error
 Rotational temperatures (Kelvin)      0.09300     0.02677     0.02502
 Rotational constants (GHZ):           1.93781     0.55781     0.52136
 Zero-point vibrational energy     402297.1 (Joules/Mol)
                                   96.15132 (Kcal/Mol)
 Warning -- explicit consideration of  14 degrees of freedom as
           vibrations may cause significant error
 Vibrational temperatures:     53.44    75.70    92.40   179.81   219.70
          (Kelvin)            251.88   303.00   365.85   386.34   466.14
                              507.50   609.16   780.44   861.50   899.35
                              929.58   965.50   968.04   997.98  1039.96
                             1074.48  1116.46  1148.47  1278.90  1399.08
                             1435.48  1497.85  1609.30  1665.44  1717.49
                             1772.61  1828.64  1896.60  1904.46  1945.96
                             1998.84  2077.98  2124.59  2148.26  2165.64
                             2184.70  2187.33  2214.48  2260.43  2550.20
                             3199.60  4428.66  4439.11  4506.33  4537.40
                             4588.80  4717.59  5018.77  5177.21

 Zero-point correction=                           0.153227 (Hartree/Particle)
 Thermal correction to Energy=                    0.164703
 Thermal correction to Enthalpy=                  0.165647
 Thermal correction to Gibbs Free Energy=         0.114492
 Sum of electronic and zero-point Energies=           -565.590834
 Sum of electronic and thermal Energies=              -565.579357
 Sum of electronic and thermal Enthalpies=            -565.578413
 Sum of electronic and thermal Free Energies=         -565.629569

                     E (Thermal)             CV                S
                      KCal/Mol        Cal/Mol-Kelvin    Cal/Mol-Kelvin
 Total                  103.353             40.932            107.665
 Electronic               0.000              0.000              0.000
 Translational            0.889              2.981             41.194
 Rotational               0.889              2.981             30.723
 Vibrational            101.575             34.970             35.748
 Vibration     1          0.594              1.982              5.406
 Vibration     2          0.596              1.977              4.717
 Vibration     3          0.597              1.971              4.323
 Vibration     4          0.610              1.928              3.022
 Vibration     5          0.619              1.900              2.638
 Vibration     6          0.627              1.873              2.380
 Vibration     7          0.643              1.825              2.039
 Vibration     8          0.665              1.756              1.701
 Vibration     9          0.673              1.731              1.606
 Vibration    10          0.709              1.627              1.290
 Vibration    11          0.729              1.570              1.154
 Vibration    12          0.786              1.419              0.881
 Vibration    13          0.898              1.156              0.560
 Vibration    14          0.957              1.034              0.452

 Optimization completed.
    -- Stationary point found.
 Normal termination of Gaussian 16 at Wed Dec  9 17:28:46 2020.

 ----------------------------------------------------------------------
 # B3LYP/6-311++G(d,p) empiricaldispersion=gd3bj scf=xqc pop=npa geom=c
 heck
 ----------------------------------------------------------------------

 ---------------------------------------
 CID_130633098_JID_2225_Energie_neutraal
 ---------------------------------------
 Structure from the checkpoint file:  "JID_2225.chk"
 Charge =  0 Multiplicity = 1

 SCF Done:  E(RB3LYP) =  -565.907382142     A.U. after   16 cycles
 Normal termination of Gaussian 16 at Wed Dec  9 17:31:06 2020.

 ----------------------------------------------------------------------
 # B3LYP/6-311++G(d,p) empiricaldispersion=gd3bj scf=xqc pop=npa geom=c
 heck
 ----------------------------------------------------------------------

 -------------------------------------
 CID_130633098_JID_2225_Energie_kation
 -------------------------------------
 Structure from the checkpoint file:  "JID_2225.chk"
 Charge =  1 Multiplicity = 2

 SCF Done:  E(UB3LYP) =  -565.564497446     A.U. after   33 cycles
 SCF Done:  E(UB3LYP) =  -565.564497446     a.u. after    1 cycles
 Normal termination of Gaussian 16 at Wed Dec  9 17:37:20 2020.
 Gaussian 16:  ES64L-G16RevA.03 25-Dec-2016

 ----------------------------------------------------------------------
 # B3LYP/6-311++G(d,p) empiricaldispersion=gd3bj scf=xqc pop=npa geom=c
 heck
 ----------------------------------------------------------------------

 ------------------------------------
 CID_130633098_JID_2225_Energie_anion
 ------------------------------------
 Structure from the checkpoint file:  "JID_2225.chk"
 Charge = -1 Multiplicity = 2

                         Standard orientation:
 ---------------------------------------------------------------------
 Center     Atomic      Atomic             Coordinates (Angstroms)
 Number     Number       Type             X           Y           Z
 ---------------------------------------------------------------------
      1          6           0       -0.540442   -1.712579    0.702788
      2          7           0       -1.479695   -0.711369    0.228969
      3          6           0       -1.250878    0.447300   -0.438841
      4          7           0       -2.393721    1.099719   -0.615868
      5          6           0       -3.305441    0.279682   -0.023554
      6          7           0       -2.805390   -0.826693    0.509180
      7          6           0        0.094767    0.926846   -0.890958
      8          7           0        1.011404    1.152077    0.218826
      9          6           0        2.212491    0.539576    0.450851
     10          8           0        2.916174    0.798918    1.416983
     11          6           0        2.612847   -0.466751   -0.530861
     12          6           0        3.009037   -1.317255   -1.292429
     13          1           0       -0.125569   -1.427641    1.674628
     14          1           0       -1.080804   -2.654268    0.798983
     15          1           0        0.275168   -1.825406   -0.013721
     16          1           0       -4.363358    0.499557    0.015025
     17          1           0        0.567059    0.206507   -1.564602
     18          1           0       -0.065368    1.852352   -1.452054
     19          1           0        0.761134    1.844580    0.914915
     20          1           0        3.379877   -2.064076   -1.958771
 ---------------------------------------------------------------------

 SCF Done:  E(UB3LYP) =  -565.906166226     A.U. after   33 cycles
 SCF Done:  E(UB3LYP) =  -565.906166226     a.u. after    1 cycles

 The electronic state is 2-A.
 Alpha  occ. eigenvalues --  -18.93881 -14.29212 -14.23398 -14.20826 -14.20131
 Alpha  occ. eigenvalues --  -10.13456 -10.12877 -10.11587 -10.11272 -10.10220
 Alpha  occ. eigenvalues --  -10.03177 -10.02743  -0.97493  -0.89649  -0.80553
 Alpha  occ. eigenvalues --   -0.79912  -0.73817  -0.63381  -0.62112  -0.59774
 Alpha  occ. eigenvalues --   -0.52344  -0.51279  -0.47830  -0.42315  -0.41392
 Alpha  occ. eigenvalues --   -0.38735  -0.36933  -0.36078  -0.35134  -0.33631
 Alpha  occ. eigenvalues --   -0.30714  -0.30557  -0.29194  -0.27892  -0.27372
 Alpha  occ. eigenvalues --   -0.23002  -0.18877  -0.18083  -0.16844  -0.15600
 Alpha  occ. eigenvalues --   -0.15381  -0.13328  -0.11980   0.05358
 Alpha virt. eigenvalues --    0.07988   0.08457   0.09304   0.09452   0.09919
 Alpha virt. eigenvalues --    0.10988   0.12328   0.12842   0.13377   0.13984
 Alpha virt. eigenvalues --    0.14453   0.15370   0.15499   0.16442   0.17014

  Beta  occ. eigenvalues --  -18.93574 -14.29166 -14.23369 -14.20760 -14.20116
  Beta  occ. eigenvalues --  -10.13423 -10.12578 -10.11594 -10.11274 -10.10205
  Beta  occ. eigenvalues --  -10.03126 -10.02474  -0.97436  -0.89100  -0.80404
  Beta  occ. eigenvalues --   -0.79780  -0.73736  -0.63211  -0.61712  -0.59703
  Beta  occ. eigenvalues --   -0.52301  -0.50576  -0.47769  -0.42239  -0.41037
  Beta  occ. eigenvalues --   -0.38527  -0.36715  -0.35879  -0.35022  -0.33507
  Beta  occ. eigenvalues --   -0.30638  -0.30506  -0.29133  -0.27503  -0.25944
  Beta  occ. eigenvalues --   -0.22889  -0.18709  -0.18048  -0.16639  -0.15283
  Beta  occ. eigenvalues --   -0.14104  -0.12316  -0.11676
  Beta virt. eigenvalues --    0.07852   0.08739   0.09402   0.09616   0.10035
  Beta virt. eigenvalues --    0.10983   0.11439   0.12457   0.13011   0.13470
  Beta virt. eigenvalues --    0.14221   0.14446   0.15308   0.15861   0.16440

 Mulliken charges and spin densities:
               1          2
     1  C    0.525557  -0.875618
     2  N   -0.164250   0.208441
     3  C   -0.268129   0.466348
     4  N   -0.123471   0.020509
     5  C   -0.082626   0.160749
     6  N   -0.068112  -0.089560
     7  C   -0.057303  -0.888559
     8  N   -0.186142   0.089637
     9  C    0.134009   0.063165
    10  O   -0.406203   0.106565
    11  C    2.711793  -1.267518
    12  C   -2.800080   1.251706
    13  H   -0.042742   0.257422
    14  H   -0.037822   0.203808
    15  H   -0.252458   0.457597
    16  H    0.006730   0.144018
    17  H    0.129805   0.073815
    18  H    0.111490   0.059279
    19  H    0.272166   0.034449
    20  H   -0.402212   0.523748
 Sum of Mulliken charges =  -1.00000   1.00000

 Dipole moment (field-independent basis, Debye):
    X=             -5.7049    Y=              2.4125    Z=             -1.3306  Tot=              6.3353
 Quadrupole moment (field-independent basis, Debye-Ang):
   XX=           -123.6342   YY=            -95.6133   ZZ=            -89.9178
   XY=              2.7858   XZ=             -6.0083   YZ=             -1.8477

 Summary of Natural Population Analysis:

                                       Natural Population
                Natural  -----------------------------------------------
    Atom  No    Charge         Core      Valence    Rydberg      Total
 -----------------------------------------------------------------------
      C    1   -0.18074      0.99963     2.17293    0.00818     3.18074
      N    2   -0.10445      0.99961     2.59284    0.01200     3.60445
      C    3    0.19787      0.99959     1.78623    0.01631     2.80213
      N    4   -0.27117      0.99970     2.76130    0.01017     3.77117
      C    5    0.07879      0.99971     1.90212    0.01938     2.92121
      N    6   -0.15896      0.99973     2.64802    0.01120     3.65896
      C    7   -0.11404      0.99957     2.10450    0.00997     3.11404
      N    8   -0.31196      0.99968     2.80362    0.00867     3.81196
      C    9    0.33740      0.99958     1.63938    0.02365     2.66260
      O   10   -0.28601      0.99988     3.28075    0.00538     4.28601
      C   11   -0.05993      0.99931     2.05163    0.00899     3.05993
      C   12   -0.05791      0.99929     2.05304    0.00557     3.05791
      H   13    0.10518      0.00000     0.39326    0.00156     0.39482
      H   14    0.10441      0.00000     0.39428    0.00131     0.39559
      H   15    0.11541      0.00000     0.38291    0.00168     0.38459
      H   16    0.08841      0.00000     0.41076    0.00083     0.41159
      H   17    0.12097      0.00000     0.37774    0.00129     0.37903
      H   18    0.10296      0.00000     0.39563    0.00141     0.39704
      H   19    0.19017      0.00000     0.30785    0.00198     0.30983
      H   20    0.10359      0.00000     0.39515    0.00126     0.39641
 =======================================================================
   * Total *    0.00000     11.99529    30.85394    0.15077    43.00000

 Normal termination of Gaussian 16 at Wed Dec  9 17:44:32 2020.
