 Gaussian 16, Revision A.03,

 -----------------------------------------------------------
 # opt freq B3LYP/6-31G(d) empiricaldispersion=gd3bj scf=xqc
 -----------------------------------------------------------

 -----------------------------
 CID_58418351_JID_730_neutraal
 -----------------------------
 Symbolic Z-matrix:
 Charge =  0 Multiplicity = 1

 SCF Done:  E(RB3LYP) =  -747.013381855     A.U. after   18 cycles
 SCF Done:  E(RB3LYP) =  -747.049340953     A.U. after   16 cycles
 SCF Done:  E(RB3LYP) =  -747.051682901     A.U. after   18 cycles
 SCF Done:  E(RB3LYP) =  -747.051739311     A.U. after   15 cycles
 SCF Done:  E(RB3LYP) =  -747.051040603     A.U. after   16 cycles
 SCF Done:  E(RB3LYP) =  -747.051869974     A.U. after   14 cycles
 SCF Done:  E(RB3LYP) =  -747.052825597     A.U. after   14 cycles
 SCF Done:  E(RB3LYP) =  -747.053006446     A.U. after   14 cycles
 SCF Done:  E(RB3LYP) =  -747.053076831     A.U. after   14 cycles
 SCF Done:  E(RB3LYP) =  -747.053115729     A.U. after   14 cycles
 SCF Done:  E(RB3LYP) =  -747.053678812     A.U. after   15 cycles
 SCF Done:  E(RB3LYP) =  -747.053734978     A.U. after   15 cycles
 SCF Done:  E(RB3LYP) =  -747.053742057     A.U. after   12 cycles
 SCF Done:  E(RB3LYP) =  -747.053743058     A.U. after   12 cycles
 SCF Done:  E(RB3LYP) =  -747.053743641     A.U. after   10 cycles
 SCF Done:  E(RB3LYP) =  -747.053743655     A.U. after    9 cycles
 Optimization completed.
    -- Stationary point found.

 1\1\GINC-NODE201\FOpt\RB3LYP\6-31G(d)\C9H10S1\VSC10255\08-Dec-2020\0\\
 # opt freq B3LYP/6-31G(d) empiricaldispersion=gd3bj scf=xqc\\CID_58418
 351_JID_730_neutraal\\0,1\C,-0.2005159733,0.3427866266,0.7489653025\C,
 0.7693745387,-0.0125441276,1.8785328199\C,1.9852841854,0.9189547067,1.
 9550957581\C,1.6643645882,2.3360292631,2.3869998369\C,0.5697581306,2.6
 893363936,3.0396730851\C,-0.485061837,3.0433889611,3.6499561239\C,-1.5
 622491122,3.3967356593,4.2705321993\C,-2.6221196361,3.7453674371,4.880
 563178\C,-3.7218678266,4.1066415369,5.5131335263\S,2.9510161574,3.5040

 Normal termination of Gaussian 16 at Tue Dec  8 13:08:55 2020.

 --------------------------------------------------------------------
 #N Geom=AllCheck Guess=TCheck SCRF=Check GenChk RB3LYP/6-31G(d) Freq
 --------------------------------------------------------------------

 Structure from the checkpoint file:  "JID_730.chk"
 -----------------------------
 CID_58418351_JID_730_neutraal
 -----------------------------
 Charge =  0 Multiplicity = 1

 SCF Done:  E(RB3LYP) =  -747.053743655     A.U. after    1 cycles

  Exact polarizability: 313.133  24.646  94.923   3.947  -5.601  60.261
 Approx polarizability: 672.137  69.811 128.762  11.479  -9.268  85.840

                      1                      2                      3
                      A                      A                      A
 Frequencies --     31.6705                48.9236                73.6058
 Red. masses --      3.0660                 4.1253                 4.9490
 Frc consts  --      0.0018                 0.0058                 0.0158
 IR Inten    --      0.0513                 0.0155                 0.4028

                      4                      5                      6
                      A                      A                      A
 Frequencies --    125.2768               149.0358               185.8140
 Red. masses --      2.7772                 2.5982                 2.5492
 Frc consts  --      0.0257                 0.0340                 0.0519
 IR Inten    --      0.4525                 1.3234                 0.6408

                      7                      8                      9
                      A                      A                      A
 Frequencies --    228.8208               242.0806               284.3944
 Red. masses --      2.3278                 2.9907                 1.0802
 Frc consts  --      0.0718                 0.1033                 0.0515
 IR Inten    --      0.8046                 0.4539                22.1318

                     10                     11                     12
                      A                      A                      A
 Frequencies --    307.9600               340.2143               410.6971
 Red. masses --      2.0756                 3.5997                 2.9060
 Frc consts  --      0.1160                 0.2455                 0.2888
 IR Inten    --      1.0713                 0.3885                 0.9780

                     13                     14                     15
                      A                      A                      A
 Frequencies --    431.8629               444.9439               461.7196
 Red. masses --      2.8000                 1.2512                 7.2060
 Frc consts  --      0.3077                 0.1459                 0.9051
 IR Inten    --      6.0754                 0.1191                 7.4049

                     16                     17                     18
                      A                      A                      A
 Frequencies --    552.2673               563.7065               618.3977
 Red. masses --      5.0747                 5.3519                 9.1014
 Frc consts  --      0.9119                 1.0020                 2.0507
 IR Inten    --      1.9948                 0.7488                 2.3024

                     19                     20                     21
                      A                      A                      A
 Frequencies --    679.3638               769.2644               832.1425
 Red. masses --      9.7098                 1.6468                 1.4326
 Frc consts  --      2.6404                 0.5742                 0.5845
 IR Inten    --      0.2662                34.5543                55.2506

                     22                     23                     24
                      A                      A                      A
 Frequencies --    832.4845               859.5484               885.1927
 Red. masses --      2.2625                 2.3658                 1.4145
 Frc consts  --      0.9238                 1.0298                 0.6530
 IR Inten    --     64.9088                12.8636                 2.3283

                     25                     26                     27
                      A                      A                      A
 Frequencies --    935.4805              1027.7482              1031.8125
 Red. masses --      1.4052                 1.4657                 2.3104
 Frc consts  --      0.7245                 0.9122                 1.4492
 IR Inten    --      2.0528                 0.1648                28.7712

                     28                     29                     30
                      A                      A                      A
 Frequencies --   1077.8824              1102.5354              1141.0090
 Red. masses --      1.9508                 1.7294                 1.8232
 Frc consts  --      1.3354                 1.2386                 1.3985
 IR Inten    --      9.1679                10.2563                 9.0770

                     31                     32                     33
                      A                      A                      A
 Frequencies --   1266.6555              1295.8535              1327.0496
 Red. masses --      1.2596                 1.9085                 1.6980
 Frc consts  --      1.1907                 1.8882                 1.7619
 IR Inten    --      0.8515                 0.5867                 5.1617

                     34                     35                     36
                      A                      A                      A
 Frequencies --   1387.1903              1403.1491              1444.2993
 Red. masses --      1.3566                 1.4290                 1.2550
 Frc consts  --      1.5380                 1.6576                 1.5425
 IR Inten    --     32.1725                 7.8312                 7.5602

                     37                     38                     39
                      A                      A                      A
 Frequencies --   1478.1947              1500.2574              1517.4925
 Red. masses --      1.3116                 1.1035                 1.0689
 Frc consts  --      1.6885                 1.4633                 1.4502
 IR Inten    --      8.1757                 0.3190                 2.5601

                     40                     41                     42
                      A                      A                      A
 Frequencies --   1530.2623              1538.6185              1724.6177
 Red. masses --      1.0460                 1.0585                 8.9894
 Frc consts  --      1.4432                 1.4765                15.7531
 IR Inten    --      2.8217                 2.6802                96.8773

                     43                     44                     45
                      A                      A                      A
 Frequencies --   2127.5178              2209.1537              2696.4398
 Red. masses --     11.4838                11.9225                 1.0385
 Frc consts  --     30.6256                34.2822                 4.4486
 IR Inten    --     24.8557               290.6431                11.1393

                     46                     47                     48
                      A                      A                      A
 Frequencies --   3025.0800              3049.2064              3051.3394
 Red. masses --      1.0600                 1.0723                 1.0389
 Frc consts  --      5.7154                 5.8739                 5.6989
 IR Inten    --     32.8185                16.5991                23.6640

                     49                     50                     51
                      A                      A                      A
 Frequencies --   3059.9541              3088.0135              3116.0847
 Red. masses --      1.0898                 1.1009                 1.1014
 Frc consts  --      6.0121                 6.1852                 6.3009
 IR Inten    --     32.4417                21.8320                32.6464

                     52                     53                     54
                      A                      A                      A
 Frequencies --   3135.0207              3144.3227              3216.9129
 Red. masses --      1.1016                 1.0556                 1.1159
 Frc consts  --      6.3789                 6.1492                 6.8040
 IR Inten    --     40.9699                 2.2802                 3.1210

 - Thermochemistry -
 -------------------
 Temperature   298.150 Kelvin.  Pressure   1.00000 Atm.
 Atom     1 has atomic number  6 and mass  12.00000

 Molecular mass:   150.05032 amu.
 Principal axes and moments of inertia in atomic units:
                           1         2         3
     Eigenvalues --  1205.073173580.609544569.35606
           X            0.99965  -0.02624   0.00223
           Y            0.02622   0.99963   0.00710
           Z           -0.00241  -0.00704   0.99997
 This molecule is an asymmetric top.
 Rotational symmetry number  1.
 Warning -- assumption of classical behavior for rotation
           may cause significant error
 Rotational temperatures (Kelvin)      0.07187     0.02419     0.01896
 Rotational constants (GHZ):           1.49762     0.50403     0.39497
 Zero-point vibrational energy     412762.7 (Joules/Mol)
                                   98.65266 (Kcal/Mol)
 Warning -- explicit consideration of  18 degrees of freedom as
           vibrations may cause significant error
 Vibrational temperatures:     45.57    70.39   105.90   180.25   214.43
          (Kelvin)            267.34   329.22   348.30   409.18   443.09
                              489.49   590.90   621.35   640.17   664.31
                              794.59   811.05   889.74   977.45  1106.80
                             1197.27  1197.76  1236.70  1273.59  1345.95
                             1478.70  1484.55  1550.83  1586.30  1641.66
                             1822.43  1864.44  1909.33  1995.86  2018.82
                             2078.02  2126.79  2158.54  2183.33  2201.71
                             2213.73  2481.34  3061.02  3178.48  3879.58
                             4352.42  4387.13  4390.20  4402.59  4442.96
                             4483.35  4510.60  4523.98  4628.42

 Zero-point correction=                           0.157213 (Hartree/Particle)
 Thermal correction to Energy=                    0.169052
 Thermal correction to Enthalpy=                  0.169996
 Thermal correction to Gibbs Free Energy=         0.118020
 Sum of electronic and zero-point Energies=           -746.896531
 Sum of electronic and thermal Energies=              -746.884692
 Sum of electronic and thermal Enthalpies=            -746.883748
 Sum of electronic and thermal Free Energies=         -746.935724

                     E (Thermal)             CV                S
                      KCal/Mol        Cal/Mol-Kelvin    Cal/Mol-Kelvin
 Total                  106.082             41.882            109.392
 Electronic               0.000              0.000              0.000
 Translational            0.889              2.981             40.928
 Rotational               0.889              2.981             31.356
 Vibrational            104.304             35.921             37.108
 Vibration     1          0.594              1.983              5.722
 Vibration     2          0.595              1.978              4.860
 Vibration     3          0.599              1.966              4.055
 Vibration     4          0.610              1.928              3.017
 Vibration     5          0.618              1.904              2.685
 Vibration     6          0.632              1.859              2.269
 Vibration     7          0.651              1.797              1.888
 Vibration     8          0.658              1.776              1.788
 Vibration     9          0.683              1.703              1.507
 Vibration    10          0.698              1.659              1.373
 Vibration    11          0.720              1.595              1.211
 Vibration    12          0.775              1.447              0.924
 Vibration    13          0.793              1.401              0.853
 Vibration    14          0.804              1.372              0.811
 Vibration    15          0.819              1.335              0.761
 Vibration    16          0.908              1.135              0.539
 Vibration    17          0.919              1.110              0.516
 Vibration    18          0.978              0.993              0.419

 Optimization completed.
    -- Stationary point found.

 1\1\GINC-NODE201\Freq\RB3LYP\6-31G(d)\C9H10S1\VSC10255\08-Dec-2020\0\\
 #N Geom=AllCheck Guess=TCheck SCRF=Check GenChk RB3LYP/6-31G(d) Freq\\
 CID_58418351_JID_730_neutraal\\0,1\C,-0.2005159733,0.3427866266,0.7489
 653025\C,0.7693745387,-0.0125441276,1.8785328199\C,1.9852841854,0.9189
 547067,1.9550957581\C,1.6643645882,2.3360292631,2.3869998369\C,0.56975
 81306,2.6893363936,3.0396730851\C,-0.485061837,3.0433889611,3.64995612
 39\C,-1.5622491122,3.3967356593,4.2705321993\C,-2.6221196361,3.7453674
 371,4.880563178\C,-3.7218678266,4.1066415369,5.5131335263\S,2.95101615

 Normal termination of Gaussian 16 at Tue Dec  8 13:12:12 2020.

 ----------------------------------------------------------------------
 # B3LYP/6-311++G(d,p) empiricaldispersion=gd3bj scf=xqc pop=npa geom=c
 heck
 ----------------------------------------------------------------------

 -------------------------------------
 CID_58418351_JID_730_Energie_neutraal
 -------------------------------------
 Structure from the checkpoint file:  "JID_730.chk"
 Charge =  0 Multiplicity = 1

 SCF Done:  E(RB3LYP) =  -747.180283884     A.U. after   17 cycles
 Normal termination of Gaussian 16 at Tue Dec  8 13:17:08 2020.

 ----------------------------------------------------------------------
 # B3LYP/6-311++G(d,p) empiricaldispersion=gd3bj scf=xqc pop=npa geom=c
 heck
 ----------------------------------------------------------------------

 -----------------------------------
 CID_58418351_JID_730_Energie_kation
 -----------------------------------
 Structure from the checkpoint file:  "JID_730.chk"
 Charge =  1 Multiplicity = 2

 SCF Done:  E(UB3LYP) =  -746.904295421     A.U. after   23 cycles
 Normal termination of Gaussian 16 at Tue Dec  8 13:23:30 2020.
 Gaussian 16:  ES64L-G16RevA.03 25-Dec-2016

 ----------------------------------
 CID_58418351_JID_730_Energie_anion
 ----------------------------------
 Structure from the checkpoint file:  "JID_730.chk"
 Charge = -1 Multiplicity = 2

                         Standard orientation:
 ---------------------------------------------------------------------
 Center     Atomic      Atomic             Coordinates (Angstroms)
 Number     Number       Type             X           Y           Z
 ---------------------------------------------------------------------
      1          6           0        1.370814   -2.493189   -0.888926
      2          6           0        1.647898   -2.011269    0.537204
      3          6           0        2.258199   -0.605677    0.599123
      4          6           0        1.318318    0.506040    0.176822
      5          6           0        0.000133    0.402261    0.152498
      6          6           0       -1.264657    0.308806    0.107608
      7          6           0       -2.552201    0.205943    0.063435
      8          6           0       -3.819058    0.105388    0.019062
      9          6           0       -5.133208    0.000556   -0.027094
     10         16           0        2.166111    2.020999   -0.242084
     11          1           0        0.652170   -1.842046   -1.395543
     12          1           0        0.959339   -3.508193   -0.885178
     13          1           0        2.291916   -2.506632   -1.484233
     14          1           0        0.721130   -2.025558    1.123073
     15          1           0        2.342176   -2.702014    1.031437
     16          1           0        2.594475   -0.386252    1.622744
     17          1           0        3.157704   -0.561733   -0.030734
     18          1           0       -5.761428    0.840205   -0.317278
     19          1           0       -5.639047   -0.929665    0.223321
     20          1           0        1.066359    2.772746   -0.452659
 ---------------------------------------------------------------------

 SCF Done:  E(UB3LYP) =  -747.208943670     A.U. after   22 cycles

 The electronic state is 2-A.
 Alpha  occ. eigenvalues --  -88.72428 -10.05720 -10.05655 -10.05069 -10.04877
 Alpha  occ. eigenvalues --  -10.02577 -10.02206 -10.01887 -10.01018 -10.00649
 Alpha  occ. eigenvalues --   -7.81094  -5.77469  -5.77080  -5.76537  -0.70218
 Alpha  occ. eigenvalues --   -0.65445  -0.63980  -0.60196  -0.57780  -0.54712
 Alpha  occ. eigenvalues --   -0.49997  -0.47312  -0.41846  -0.34830  -0.34490
 Alpha  occ. eigenvalues --   -0.33516  -0.31913  -0.28671  -0.28494  -0.27453
 Alpha  occ. eigenvalues --   -0.24488  -0.23314  -0.22395  -0.22351  -0.21045
 Alpha  occ. eigenvalues --   -0.17669  -0.17448  -0.13136  -0.07335  -0.06195
 Alpha  occ. eigenvalues --    0.02961
 Alpha virt. eigenvalues --    0.08033   0.09711   0.09919   0.10400   0.10518
 Alpha virt. eigenvalues --    0.11543   0.12163   0.12702   0.13518   0.13824
 Alpha virt. eigenvalues --    0.14058   0.15138   0.15851   0.16385   0.16794

  Beta  occ. eigenvalues --  -88.72421 -10.05762 -10.05649 -10.04877 -10.04497
  Beta  occ. eigenvalues --  -10.02541 -10.02027 -10.01883 -10.00814 -10.00238
  Beta  occ. eigenvalues --   -7.81088  -5.77476  -5.77090  -5.76492  -0.69786
  Beta  occ. eigenvalues --   -0.65204  -0.63326  -0.59598  -0.57684  -0.54250
  Beta  occ. eigenvalues --   -0.49407  -0.46953  -0.41394  -0.34685  -0.34380
  Beta  occ. eigenvalues --   -0.33232  -0.31562  -0.28406  -0.28363  -0.27313
  Beta  occ. eigenvalues --   -0.24163  -0.23143  -0.22339  -0.22241  -0.19627
  Beta  occ. eigenvalues --   -0.17380  -0.16154  -0.11873  -0.07203  -0.03769
  Beta virt. eigenvalues --    0.07980   0.09108   0.09706   0.10026   0.10429
  Beta virt. eigenvalues --    0.10561   0.11505   0.12135   0.12702   0.13470
  Beta virt. eigenvalues --    0.13836   0.14032   0.15163   0.15823   0.16478

 Mulliken charges and spin densities:
               1          2
     1  C   -0.614578  -0.000580
     2  C   -0.006741  -0.006201
     3  C   -0.064622  -0.032626
     4  C    0.083703   0.290228
     5  C   -0.395371  -0.048498
     6  C    0.330200   0.187862
     7  C    0.046353   0.235599
     8  C    0.094611  -0.183262
     9  C   -0.773628   0.461129
    10  S   -0.720741   0.052455
    11  H    0.166724   0.001147
    12  H    0.110830   0.000048
    13  H    0.103393  -0.000538
    14  H    0.098182   0.001556
    15  H    0.108365   0.003791
    16  H    0.099054   0.068643
    17  H    0.072701   0.006536
    18  H    0.081585  -0.018243
    19  H    0.083872  -0.018330
    20  H    0.096108  -0.000718
 Sum of Mulliken charges =  -1.00000   1.00000

 Dipole moment (field-independent basis, Debye):
    X=              6.5254    Y=             -1.8704    Z=             -0.1446  Tot=              6.7897
 Quadrupole moment (field-independent basis, Debye-Ang):
   XX=           -127.7377   YY=            -78.3568   ZZ=            -79.5444
   XY=             -4.6369   XZ=              0.5659   YZ=             -2.0513

 Summary of Natural Population Analysis:

                                       Natural Population
                Natural  -----------------------------------------------
    Atom  No    Charge         Core      Valence    Rydberg      Total
 -----------------------------------------------------------------------
      C    1   -0.28727      0.99967     2.28305    0.00454     3.28727
      C    2   -0.18709      0.99965     2.18052    0.00692     3.18709
      C    3   -0.20250      0.99960     2.19430    0.00861     3.20250
      C    4    0.00151      0.99938     1.98889    0.01023     2.99849
      C    5   -0.08766      0.99940     2.07478    0.01347     3.08766
      C    6    0.06312      0.99925     1.92416    0.01347     2.93688
      C    7   -0.04527      0.99924     2.03516    0.01088     3.04527
      C    8    0.01839      0.99927     1.97358    0.00876     2.98161
      C    9   -0.17115      0.99945     2.16071    0.01099     3.17115
      S   10   -0.01232      4.99956     2.99562    0.01713     8.01232
      H   11    0.11006      0.00000     0.38902    0.00091     0.38994
      H   12    0.09158      0.00000     0.40750    0.00091     0.40842
      H   13    0.08848      0.00000     0.41047    0.00105     0.41152
      H   14    0.10231      0.00000     0.39632    0.00137     0.39769
      H   15    0.08601      0.00000     0.41267    0.00132     0.41399
      H   16    0.10328      0.00000     0.39466    0.00207     0.39672
      H   17    0.09406      0.00000     0.40437    0.00157     0.40594
      H   18    0.08652      0.00000     0.41030    0.00318     0.41348
      H   19    0.08656      0.00000     0.41031    0.00313     0.41344
      H   20    0.06321      0.00000     0.43375    0.00304     0.43679
 =======================================================================
   * Total *    0.00183     13.99447    25.88014    0.12356    39.99817

 Normal termination of Gaussian 16 at Tue Dec  8 13:28:18 2020.
