 Gaussian 16, Revision A.03,

 -----------------------------------------------------------
 # opt freq B3LYP/6-31G(d) empiricaldispersion=gd3bj scf=xqc
 -----------------------------------------------------------

 ------------------------------
 CID_79962164_JID_7991_neutraal
 ------------------------------
 Symbolic Z-matrix:
 Charge =  0 Multiplicity = 1

 SCF Done:  E(RB3LYP) =  -815.566951290     A.U. after   28 cycles
 SCF Done:  E(RB3LYP) =  -815.599031318     A.U. after   17 cycles
 SCF Done:  E(RB3LYP) =  -815.611669785     A.U. after   17 cycles
 SCF Done:  E(RB3LYP) =  -815.617324417     A.U. after   18 cycles
 SCF Done:  E(RB3LYP) =  -815.626528400     A.U. after   21 cycles
 SCF Done:  E(RB3LYP) =  -815.641122855     A.U. after   18 cycles
 SCF Done:  E(RB3LYP) =  -815.654156703     A.U. after   17 cycles
 SCF Done:  E(RB3LYP) =  -815.645435764     A.U. after   17 cycles
 SCF Done:  E(RB3LYP) =  -815.662361177     A.U. after   16 cycles
 SCF Done:  E(RB3LYP) =  -815.666539192     A.U. after   15 cycles
 SCF Done:  E(RB3LYP) =  -815.669244218     A.U. after   10 cycles
 SCF Done:  E(RB3LYP) =  -815.669245093     A.U. after    8 cycles
 SCF Done:  E(RB3LYP) =  -815.669245637     A.U. after    8 cycles
 SCF Done:  E(RB3LYP) =  -815.669245728     A.U. after    8 cycles
 SCF Done:  E(RB3LYP) =  -815.669245749     A.U. after    8 cycles
 SCF Done:  E(RB3LYP) =  -815.669245752     A.U. after    7 cycles
 Optimization completed.
    -- Stationary point found.
 Normal termination of Gaussian 16 at Sun Dec 13 20:28:51 2020.

 --------------------------------------------------------------------
 #N Geom=AllCheck Guess=TCheck SCRF=Check GenChk RB3LYP/6-31G(d) Freq
 --------------------------------------------------------------------

 Structure from the checkpoint file:  "JID_7991.chk"
 ------------------------------
 CID_79962164_JID_7991_neutraal
 ------------------------------
 Charge =  0 Multiplicity = 1

 SCF Done:  E(RB3LYP) =  -815.669245752     A.U. after    1 cycles

  Exact polarizability: 232.877  -7.444 202.698  -6.286   2.269  89.823
 Approx polarizability: 374.215 -12.434 352.451   2.628   3.536 154.897

                      1                      2                      3
                      A                      A                      A
 Frequencies --     40.9510                50.2007                70.7524
 Red. masses --      5.7775                 5.2593                 4.0258
 Frc consts  --      0.0057                 0.0078                 0.0119
 IR Inten    --      3.1201                 2.4568                 2.5537

                      4                      5                      6
                      A                      A                      A
 Frequencies --     99.1620               117.9768               119.1166
 Red. masses --      3.0971                 3.2381                 1.6799
 Frc consts  --      0.0179                 0.0266                 0.0140
 IR Inten    --      0.8319                 6.6641                 3.2144

                      7                      8                      9
                      A                      A                      A
 Frequencies --    160.3559               185.2930               198.8242
 Red. masses --      2.6285                 3.6697                 4.8520
 Frc consts  --      0.0398                 0.0742                 0.1130
 IR Inten    --      7.6065                19.7086                 5.6206

                     10                     11                     12
                      A                      A                      A
 Frequencies --    219.9189               250.1868               252.0472
 Red. masses --      6.0539                 4.1899                 5.8561
 Frc consts  --      0.1725                 0.1545                 0.2192
 IR Inten    --      0.0595                 0.4272                 0.8171

                     13                     14                     15
                      A                      A                      A
 Frequencies --    308.1293               322.5876               374.0652
 Red. masses --      6.0410                 3.1840                 5.4249
 Frc consts  --      0.3379                 0.1952                 0.4472
 IR Inten    --      0.7705                 3.3944                 0.5021

                     16                     17                     18
                      A                      A                      A
 Frequencies --    378.2447               415.9844               427.8353
 Red. masses --      6.5910                 1.2619                 1.1129
 Frc consts  --      0.5556                 0.1287                 0.1200
 IR Inten    --     11.5055               163.2143               131.3523

                     19                     20                     21
                      A                      A                      A
 Frequencies --    439.4197               466.4350               491.3248
 Red. masses --      4.6676                 3.3439                 5.0015
 Frc consts  --      0.5310                 0.4286                 0.7114
 IR Inten    --      8.2639                 4.6635                16.7690

                     22                     23                     24
                      A                      A                      A
 Frequencies --    511.0708               574.0797               594.2388
 Red. masses --      3.6961                 5.4720                 5.0746
 Frc consts  --      0.5688                 1.0625                 1.0558
 IR Inten    --     33.2304                18.6786                19.6546

                     25                     26                     27
                      A                      A                      A
 Frequencies --    614.2416               648.7849               661.7420
 Red. masses --      5.6014                 3.6197                 5.9399
 Frc consts  --      1.2452                 0.8977                 1.5325
 IR Inten    --      2.5280                 4.7392                50.5318

                     28                     29                     30
                      A                      A                      A
 Frequencies --    716.7269               722.3819               743.9793
 Red. masses --      3.6300                 4.6646                 5.5042
 Frc consts  --      1.0987                 1.4342                 1.7950
 IR Inten    --      8.4410                10.1696                24.7956

                     31                     32                     33
                      A                      A                      A
 Frequencies --    768.1602               783.2340               803.5962
 Red. masses --      2.0806                 5.6671                 1.6474
 Frc consts  --      0.7233                 2.0483                 0.6268
 IR Inten    --     12.3606                13.1949                20.8947

                     34                     35                     36
                      A                      A                      A
 Frequencies --    806.4911               840.9241               958.3132
 Red. masses --      3.1475                 1.4570                 1.4893
 Frc consts  --      1.2062                 0.6070                 0.8058
 IR Inten    --     11.0974                33.9690                 2.0434

                     37                     38                     39
                      A                      A                      A
 Frequencies --    977.5528               999.3950              1008.9086
 Red. masses --      2.4174                 2.8697                 1.9030
 Frc consts  --      1.3610                 1.6887                 1.1413
 IR Inten    --     21.5238                41.2292                 5.2527

                     40                     41                     42
                      A                      A                      A
 Frequencies --   1012.3979              1065.4075              1137.6258
 Red. masses --      6.2115                 4.5713                 1.8861
 Frc consts  --      3.7510                 3.0572                 1.4382
 IR Inten    --     18.2818                38.9392                13.1747

                     43                     44                     45
                      A                      A                      A
 Frequencies --   1146.0550              1151.6182              1189.1031
 Red. masses --      1.5138                 2.6923                 2.1941
 Frc consts  --      1.1715                 2.1037                 1.8279
 IR Inten    --      1.5587               204.2601                53.8242

                     46                     47                     48
                      A                      A                      A
 Frequencies --   1201.8378              1223.0757              1226.7862
 Red. masses --      1.4218                 1.5853                 1.3620
 Frc consts  --      1.2100                 1.3973                 1.2077
 IR Inten    --     71.5987               153.6221                90.6129

                     49                     50                     51
                      A                      A                      A
 Frequencies --   1240.7957              1261.2042              1316.3042
 Red. masses --      1.7570                 1.7724                 5.6516
 Frc consts  --      1.5938                 1.6611                 5.7694
 IR Inten    --     56.1416                27.0108                73.8657

                     52                     53                     54
                      A                      A                      A
 Frequencies --   1333.6367              1373.6961              1390.9615
 Red. masses --      2.9245                 1.8350                 2.1789
 Frc consts  --      3.0646                 2.0402                 2.4838
 IR Inten    --     62.2939                59.7433               110.1194

                     55                     56                     57
                      A                      A                      A
 Frequencies --   1416.8503              1447.9247              1460.6684
 Red. masses --      4.9967                 1.2227                 8.0740
 Frc consts  --      5.9100                 1.5103                10.1495
 IR Inten    --    193.9731                 3.6057               156.7227

                     58                     59                     60
                      A                      A                      A
 Frequencies --   1499.4328              1509.9286              1519.3030
 Red. masses --      1.4102                 1.0959                 1.7007
 Frc consts  --      1.8681                 1.4721                 2.3129
 IR Inten    --     48.6358                24.0023                43.9586

                     61                     62                     63
                      A                      A                      A
 Frequencies --   1536.3481              1559.6222              1629.8062
 Red. masses --      1.0712                 3.5903                 6.3312
 Frc consts  --      1.4897                 5.1453                 9.9085
 IR Inten    --     15.6660                24.6309               153.5832

                     64                     65                     66
                      A                      A                      A
 Frequencies --   1654.5629              1663.7727              1687.1230
 Red. masses --      1.3472                 4.2811                 7.7838
 Frc consts  --      2.1730                 6.9822                13.0538
 IR Inten    --     89.4336               503.1411                75.3503

                     67                     68                     69
                      A                      A                      A
 Frequencies --   1835.0028              3054.6490              3057.1698
 Red. masses --     12.0505                 1.0395                 1.0549
 Frc consts  --     23.9071                 5.7148                 5.8088
 IR Inten    --    662.2088                18.0385                38.0629

                     70                     71                     72
                      A                      A                      A
 Frequencies --   3095.5686              3119.0891              3182.6533
 Red. masses --      1.1079                 1.1047                 1.0896
 Frc consts  --      6.2548                 6.3321                 6.5029
 IR Inten    --      9.3109                16.7555                 8.3714

                     73                     74                     75
                      A                      A                      A
 Frequencies --   3192.2863              3194.7058              3248.1630
 Red. masses --      1.0990                 1.0974                 1.0928
 Frc consts  --      6.5984                 6.5992                 6.7928
 IR Inten    --      0.6056                25.0889                 0.2932

                     76                     77                     78
                      A                      A                      A
 Frequencies --   3412.0614              3678.8151              3743.9191
 Red. masses --      1.0572                 1.0873                 1.0659
 Frc consts  --      7.2517                 8.6699                 8.8026
 IR Inten    --     79.9330                62.0892                81.5786

 - Thermochemistry -
 -------------------
 Temperature   298.150 Kelvin.  Pressure   1.00000 Atm.
 Atom     1 has atomic number  6 and mass  12.00000

 Molecular mass:   233.08004 amu.
 Principal axes and moments of inertia in atomic units:
                           1         2         3
     Eigenvalues --  2735.358425034.694567081.45502
           X            0.99969   0.02320  -0.00897
           Y           -0.02317   0.99973   0.00323
           Z            0.00904  -0.00302   0.99995
 This molecule is an asymmetric top.
 Rotational symmetry number  1.
 Warning -- assumption of classical behavior for rotation
           may cause significant error
 Rotational temperatures (Kelvin)      0.03166     0.01720     0.01223
 Rotational constants (GHZ):           0.65978     0.35846     0.25485
 Zero-point vibrational energy     561004.1 (Joules/Mol)
                                  134.08320 (Kcal/Mol)
 Warning -- explicit consideration of  25 degrees of freedom as
           vibrations may cause significant error
 Vibrational temperatures:     58.92    72.23   101.80   142.67   169.74
          (Kelvin)            171.38   230.72   266.60   286.06   316.41
                              359.96   362.64   443.33   464.13   538.20
                              544.21   598.51   615.56   632.23   671.10
                              706.91   735.32   825.97   854.98   883.76
                              933.46   952.10  1031.21  1039.35  1070.42
                             1105.21  1126.90  1156.20  1160.36  1209.90
                             1378.80  1406.48  1437.91  1451.59  1456.61
                             1532.88  1636.79  1648.92  1656.92  1710.85
                             1729.18  1759.73  1765.07  1785.23  1814.59
                             1893.87  1918.81  1976.44  2001.28  2038.53
                             2083.24  2101.58  2157.35  2172.45  2185.94
                             2210.46  2243.95  2344.93  2380.55  2393.80
                             2427.39  2640.16  4394.96  4398.59  4453.83
                             4487.67  4579.13  4592.99  4596.47  4673.38
                             4909.20  5292.99  5386.66

 Zero-point correction=                           0.213675 (Hartree/Particle)
 Thermal correction to Energy=                    0.229329
 Thermal correction to Enthalpy=                  0.230273
 Thermal correction to Gibbs Free Energy=         0.170410
 Sum of electronic and zero-point Energies=           -815.455571
 Sum of electronic and thermal Energies=              -815.439917
 Sum of electronic and thermal Enthalpies=            -815.438973
 Sum of electronic and thermal Free Energies=         -815.498835

                     E (Thermal)             CV                S
                      KCal/Mol        Cal/Mol-Kelvin    Cal/Mol-Kelvin
 Total                  143.906             58.994            125.991
 Electronic               0.000              0.000              0.000
 Translational            0.889              2.981             42.240
 Rotational               0.889              2.981             32.944
 Vibrational            142.128             53.033             50.806
 Vibration     1          0.594              1.981              5.213
 Vibration     2          0.595              1.978              4.809
 Vibration     3          0.598              1.968              4.132
 Vibration     4          0.604              1.950              3.471
 Vibration     5          0.608              1.934              3.133
 Vibration     6          0.609              1.933              3.115
 Vibration     7          0.622              1.891              2.546
 Vibration     8          0.631              1.860              2.274
 Vibration     9          0.637              1.842              2.144
 Vibration    10          0.647              1.811              1.960
 Vibration    11          0.663              1.762              1.729
 Vibration    12          0.664              1.759              1.716
 Vibration    13          0.698              1.658              1.372
 Vibration    14          0.708              1.630              1.297
 Vibration    15          0.745              1.525              1.063
 Vibration    16          0.749              1.517              1.046
 Vibration    17          0.779              1.436              0.906
 Vibration    18          0.789              1.410              0.866
 Vibration    19          0.799              1.384              0.828
 Vibration    20          0.824              1.325              0.748
 Vibration    21          0.847              1.269              0.680
 Vibration    22          0.866              1.225              0.631
 Vibration    23          0.930              1.087              0.496
 Vibration    24          0.952              1.044              0.460
 Vibration    25          0.974              1.002              0.426

 Optimization completed.
    -- Stationary point found.
 Normal termination of Gaussian 16 at Sun Dec 13 20:39:27 2020.

 ----------------------------------------------------------------------
 # B3LYP/6-311++G(d,p) empiricaldispersion=gd3bj scf=xqc pop=npa geom=c
 heck
 ----------------------------------------------------------------------

 --------------------------------------
 CID_79962164_JID_7991_Energie_neutraal
 --------------------------------------
 Structure from the checkpoint file:  "JID_7991.chk"
 Charge =  0 Multiplicity = 1

 SCF Done:  E(RB3LYP) =  -815.915106845     A.U. after   18 cycles
 Normal termination of Gaussian 16 at Sun Dec 13 20:45:01 2020.

 ----------------------------------------------------------------------
 # B3LYP/6-311++G(d,p) empiricaldispersion=gd3bj scf=xqc pop=npa geom=c
 heck
 ----------------------------------------------------------------------

 ------------------------------------
 CID_79962164_JID_7991_Energie_kation
 ------------------------------------
 Structure from the checkpoint file:  "JID_7991.chk"
 Charge =  1 Multiplicity = 2

 SCF Done:  E(UB3LYP) =  -815.679187735     A.U. after   21 cycles
 Normal termination of Gaussian 16 at Sun Dec 13 20:54:24 2020.
 Gaussian 16:  ES64L-G16RevA.03 25-Dec-2016

 ----------------------------------------------------------------------
 # B3LYP/6-311++G(d,p) empiricaldispersion=gd3bj scf=xqc pop=npa geom=c
 heck
 ----------------------------------------------------------------------

 -----------------------------------
 CID_79962164_JID_7991_Energie_anion
 -----------------------------------
 Structure from the checkpoint file:  "JID_7991.chk"
 Charge = -1 Multiplicity = 2

                         Standard orientation:
 ---------------------------------------------------------------------
 Center     Atomic      Atomic             Coordinates (Angstroms)
 Number     Number       Type             X           Y           Z
 ---------------------------------------------------------------------
      1          6           0       -2.596341   -2.331830   -0.087792
      2          7           0       -1.718843   -1.161394   -0.119954
      3          6           0       -2.392331    0.161739   -0.529791
      4          8           0       -3.119521    0.066167   -1.514612
      5          7           0       -2.137497    1.066115    0.373697
      6          6           0       -1.999710    2.388661    0.223820
      7          6           0       -0.431735   -1.273849    0.079035
      8          6           0        0.196889   -2.577579    0.531643
      9          8           0        1.601633   -2.326623    0.648636
     10          6           0        1.823527   -1.038096    0.276985
     11          6           0        0.639908   -0.336618   -0.065066
     12          6           0        0.745857    0.999469   -0.513202
     13          6           0        2.003871    1.574893   -0.576200
     14          6           0        3.158766    0.852390   -0.210706
     15          6           0        3.084663   -0.476667    0.223461
     16          8           0        4.394664    1.406075   -0.270882
     17          7           0       -2.517392    3.100367    1.237243
     18          1           0       -2.795764   -2.631517    0.947458
     19          1           0       -2.157849   -3.174544   -0.631209
     20          1           0       -3.521436   -2.038141   -0.581983
     21          1           0        0.046146   -3.390945   -0.188451
     22          1           0       -0.188688   -2.901085    1.505762
     23          1           0       -0.127307    1.596989   -0.755182
     24          1           0        2.103786    2.604612   -0.911162
     25          1           0        3.976417   -1.029606    0.490308
     26          1           0        4.318878    2.321384   -0.584611
     27          1           0       -3.059623    2.686775    1.998429
     28          1           0       -2.392821    4.100440    1.255469
 ---------------------------------------------------------------------

 SCF Done:  E(UB3LYP) =  -815.954042059     A.U. after   22 cycles

 The electronic state is 2-A.
 Alpha  occ. eigenvalues --  -19.04261 -19.04139 -18.93972 -14.20633 -14.19665
 Alpha  occ. eigenvalues --  -14.13600 -10.13851 -10.12051 -10.10684 -10.10453
 Alpha  occ. eigenvalues --  -10.08610 -10.07762 -10.05701 -10.04291 -10.04130
 Alpha  occ. eigenvalues --  -10.03950 -10.03114  -0.96716  -0.95611  -0.89384
 Alpha  occ. eigenvalues --   -0.81676  -0.79870  -0.72526  -0.72221  -0.65948
 Alpha  occ. eigenvalues --   -0.62491  -0.60666  -0.58373  -0.52538  -0.50874
 Alpha  occ. eigenvalues --   -0.49708  -0.45985  -0.42228  -0.41310  -0.40134
 Alpha  occ. eigenvalues --   -0.38309  -0.37976  -0.35981  -0.35152  -0.34167
 Alpha  occ. eigenvalues --   -0.32803  -0.31417  -0.30764  -0.30173  -0.30037
 Alpha  occ. eigenvalues --   -0.29429  -0.27301  -0.25968  -0.25284  -0.24965
 Alpha  occ. eigenvalues --   -0.23969  -0.22653  -0.21367  -0.20819  -0.17871
 Alpha  occ. eigenvalues --   -0.16039  -0.12793  -0.11768  -0.10515  -0.09658
 Alpha  occ. eigenvalues --   -0.04057   0.01726
 Alpha virt. eigenvalues --    0.07727   0.07997   0.08770   0.10066   0.10869
 Alpha virt. eigenvalues --    0.11140   0.11819   0.12136   0.12720   0.13558
 Alpha virt. eigenvalues --    0.14125   0.14298   0.14472   0.14839   0.16063

  Beta  occ. eigenvalues --  -19.04153 -19.04102 -18.93932 -14.20196 -14.19660
  Beta  occ. eigenvalues --  -14.13565 -10.13862 -10.12108 -10.10516 -10.10090
  Beta  occ. eigenvalues --  -10.08629 -10.07156 -10.05689 -10.04435 -10.04213
  Beta  occ. eigenvalues --  -10.04078 -10.02752  -0.96598  -0.95341  -0.89209
  Beta  occ. eigenvalues --   -0.80961  -0.79808  -0.72453  -0.71956  -0.65375
  Beta  occ. eigenvalues --   -0.62226  -0.60335  -0.58235  -0.52424  -0.50433
  Beta  occ. eigenvalues --   -0.49478  -0.45650  -0.42011  -0.41076  -0.40060
  Beta  occ. eigenvalues --   -0.38070  -0.37391  -0.35874  -0.34954  -0.33931
  Beta  occ. eigenvalues --   -0.32426  -0.31251  -0.30652  -0.29905  -0.29335
  Beta  occ. eigenvalues --   -0.29132  -0.27140  -0.25823  -0.24838  -0.24636
  Beta  occ. eigenvalues --   -0.23757  -0.22103  -0.20708  -0.20344  -0.16541
  Beta  occ. eigenvalues --   -0.15753  -0.12575  -0.11111  -0.10067  -0.08859
  Beta  occ. eigenvalues --   -0.03812
  Beta virt. eigenvalues --    0.07718   0.07982   0.08390   0.08987   0.10048
  Beta virt. eigenvalues --    0.10852   0.11151   0.11838   0.12728   0.13001
  Beta virt. eigenvalues --    0.13657   0.14224   0.14394   0.14746   0.15351

 Mulliken charges and spin densities:
               1          2
     1  C   -0.330939  -0.010374
     2  N    0.158341   0.167138
     3  C   -0.068457  -0.027304
     4  O   -0.353860   0.012864
     5  N   -0.143646   0.025357
     6  C   -0.324500   0.009694
     7  C    0.371936   0.403868
     8  C   -0.137329  -0.050446
     9  O   -0.152791   0.013691
    10  C   -0.212330   0.089743
    11  C    0.909144  -0.096641
    12  C   -0.248290   0.282152
    13  C   -0.320000  -0.121421
    14  C   -0.506672   0.232481
    15  C   -0.786246  -0.071441
    16  O   -0.257213   0.022517
    17  N   -0.280269  -0.004493
    18  H    0.138306   0.014710
    19  H    0.107018   0.008880
    20  H    0.171159   0.000652
    21  H    0.142396   0.040247
    22  H    0.155913   0.040110
    23  H    0.149424  -0.004989
    24  H    0.099796   0.007651
    25  H    0.150621   0.002641
    26  H    0.249122  -0.000899
    27  H    0.048646   0.012014
    28  H    0.270718   0.001599
 Sum of Mulliken charges =  -1.00000   1.00000

 Dipole moment (field-independent basis, Debye):
    X=              2.7216    Y=             -2.3057    Z=              2.6454  Tot=              4.4409
 Quadrupole moment (field-independent basis, Debye-Ang):
   XX=           -142.5467   YY=           -105.0577   ZZ=           -112.3527
   XY=             13.0117   XZ=            -13.6028   YZ=              3.0978

 Summary of Natural Population Analysis:

                                       Natural Population
                Natural  -----------------------------------------------
    Atom  No    Charge         Core      Valence    Rydberg      Total
 -----------------------------------------------------------------------
      C    1   -0.18316      0.99965     2.17761    0.00591     3.18316
      N    2   -0.15390      0.99955     2.64308    0.01126     3.65390
      C    3    0.39172      0.99962     1.58272    0.02595     2.60828
      O    4   -0.34091      0.99987     3.33508    0.00596     4.34091
      N    5   -0.34418      0.99957     2.83055    0.01406     3.84418
      C    6    0.07124      0.99967     1.89623    0.03286     2.92876
      C    7    0.26448      0.99953     1.72428    0.01171     2.73552
      C    8   -0.02666      0.99956     2.01842    0.00868     3.02666
      O    9   -0.27101      0.99986     3.26220    0.00895     4.27101
      C   10    0.22419      0.99939     1.76406    0.01236     2.77581
      C   11   -0.12383      0.99945     2.11553    0.00885     3.12383
      C   12    0.01289      0.99955     1.97877    0.00880     2.98711
      C   13   -0.19147      0.99954     2.18310    0.00883     3.19147
      C   14    0.23952      0.99944     1.74923    0.01182     2.76048
      C   15   -0.19756      0.99948     2.18873    0.00936     3.19756
      O   16   -0.33340      0.99987     3.32755    0.00598     4.33340
      N   17   -0.40241      0.99973     2.89483    0.00785     3.90241
      H   18    0.09025      0.00000     0.40853    0.00122     0.40975
      H   19    0.08883      0.00000     0.40987    0.00131     0.41117
      H   20    0.11302      0.00000     0.38586    0.00112     0.38698
      H   21    0.09579      0.00000     0.40302    0.00119     0.40421
      H   22    0.09769      0.00000     0.40119    0.00111     0.40231
      H   23    0.11766      0.00000     0.37774    0.00460     0.38234
      H   24    0.09159      0.00000     0.40657    0.00184     0.40841
      H   25    0.10451      0.00000     0.39385    0.00164     0.39549
      H   26    0.22843      0.00000     0.26926    0.00231     0.27157
      H   27    0.15521      0.00000     0.33504    0.00975     0.34479
      H   28    0.18149      0.00000     0.31557    0.00294     0.31851
 =======================================================================
   * Total *    0.00000     16.99333    43.77847    0.22819    61.00000

 Normal termination of Gaussian 16 at Sun Dec 13 21:04:14 2020.
