 Gaussian 16, Revision A.03,

 -----------------------------------------------------------
 # opt freq B3LYP/6-31G(d) empiricaldispersion=gd3bj scf=xqc
 -----------------------------------------------------------

 -------------------------------
 CID_116569630_JID_5667_neutraal
 -------------------------------
 Symbolic Z-matrix:
 Charge =  0 Multiplicity = 1

 SCF Done:  E(RB3LYP) =  -640.474205341     A.U. after   14 cycles
 SCF Done:  E(RB3LYP) =  -640.478798640     A.U. after   12 cycles
 SCF Done:  E(RB3LYP) =  -640.477039318     A.U. after   12 cycles
 SCF Done:  E(RB3LYP) =  -640.478286471     A.U. after   11 cycles
 SCF Done:  E(RB3LYP) =  -640.479337480     A.U. after    8 cycles
 SCF Done:  E(RB3LYP) =  -640.479179048     A.U. after   13 cycles
 SCF Done:  E(RB3LYP) =  -640.479339791     A.U. after   11 cycles
 SCF Done:  E(RB3LYP) =  -640.479956162     A.U. after   11 cycles
 SCF Done:  E(RB3LYP) =  -640.479940211     A.U. after   12 cycles
 SCF Done:  E(RB3LYP) =  -640.480112732     A.U. after   10 cycles
 SCF Done:  E(RB3LYP) =  -640.480147334     A.U. after    9 cycles
 SCF Done:  E(RB3LYP) =  -640.480149548     A.U. after    9 cycles
 SCF Done:  E(RB3LYP) =  -640.480151950     A.U. after    8 cycles
 SCF Done:  E(RB3LYP) =  -640.480152199     A.U. after    7 cycles
 SCF Done:  E(RB3LYP) =  -640.480152296     A.U. after    7 cycles
 Optimization completed.
    -- Stationary point found.
 Normal termination of Gaussian 16 at Thu Dec 10 16:51:20 2020.

 --------------------------------------------------------------------
 #N Geom=AllCheck Guess=TCheck SCRF=Check GenChk RB3LYP/6-31G(d) Freq
 --------------------------------------------------------------------

 Structure from the checkpoint file:  "JID_5667.chk"
 -------------------------------
 CID_116569630_JID_5667_neutraal
 -------------------------------
 Charge =  0 Multiplicity = 1

 SCF Done:  E(RB3LYP) =  -640.480152296     A.U. after    1 cycles

  Exact polarizability: 151.534   0.046 142.841   0.023   1.941 129.069
 Approx polarizability: 195.913  -2.622 199.551   4.126   7.814 199.260

                      1                      2                      3
                      A                      A                      A
 Frequencies --     47.3539                54.2601                86.0791
 Red. masses --      3.6726                 3.1457                 2.9369
 Frc consts  --      0.0049                 0.0055                 0.0128
 IR Inten    --      1.5668                 0.2494                 0.0431

                      4                      5                      6
                      A                      A                      A
 Frequencies --    113.4037               124.9654               141.0272
 Red. masses --      2.5089                 2.4352                 2.5800
 Frc consts  --      0.0190                 0.0224                 0.0302
 IR Inten    --      0.2266                 0.3187                 1.0028

                      7                      8                      9
                      A                      A                      A
 Frequencies --    180.3313               185.6168               198.8767
 Red. masses --      2.2913                 2.4496                 1.8214
 Frc consts  --      0.0439                 0.0497                 0.0424
 IR Inten    --      1.7176                 1.4416                 1.7158

                     10                     11                     12
                      A                      A                      A
 Frequencies --    208.5571               218.9436               230.4625
 Red. masses --      1.3211                 1.6092                 2.4578
 Frc consts  --      0.0339                 0.0454                 0.0769
 IR Inten    --      0.3487                 0.1806                 1.5561

                     13                     14                     15
                      A                      A                      A
 Frequencies --    245.6953               261.7276               283.4649
 Red. masses --      1.7161                 1.8092                 1.9746
 Frc consts  --      0.0610                 0.0730                 0.0935
 IR Inten    --      0.4075                 0.5837                 0.1354

                     16                     17                     18
                      A                      A                      A
 Frequencies --    292.3876               342.9036               374.3786
 Red. masses --      2.5405                 2.8790                 2.3336
 Frc consts  --      0.1280                 0.1995                 0.1927
 IR Inten    --      2.1393                 3.1102                 1.4612

                     19                     20                     21
                      A                      A                      A
 Frequencies --    391.7580               424.2935               428.0608
 Red. masses --      2.4105                 1.8922                 2.6153
 Frc consts  --      0.2180                 0.2007                 0.2824
 IR Inten    --      1.6930                 0.4167                 0.2388

                     22                     23                     24
                      A                      A                      A
 Frequencies --    439.6687               489.6191               524.0507
 Red. masses --      2.7094                 2.9381                 2.6320
 Frc consts  --      0.3086                 0.4150                 0.4259
 IR Inten    --      1.4947                 7.8278                 7.7740

                     25                     26                     27
                      A                      A                      A
 Frequencies --    544.9862               568.0517               653.7682
 Red. masses --      2.4986                 3.5947                 2.2623
 Frc consts  --      0.4372                 0.6834                 0.5697
 IR Inten    --      9.3211                 9.5600                16.0531

                     28                     29                     30
                      A                      A                      A
 Frequencies --    740.2844               772.8061               780.2362
 Red. masses --      2.5432                 1.6364                 1.8296
 Frc consts  --      0.8212                 0.5758                 0.6562
 IR Inten    --      6.1199                15.3130                59.4035

                     31                     32                     33
                      A                      A                      A
 Frequencies --    806.8842               830.0715               863.2440
 Red. masses --      1.2160                 2.0208                 1.9860
 Frc consts  --      0.4665                 0.8204                 0.8719
 IR Inten    --     19.1972                 4.8067                 5.6455

                     34                     35                     36
                      A                      A                      A
 Frequencies --    881.0481               890.0885               909.5703
 Red. masses --      2.1379                 2.2003                 1.6227
 Frc consts  --      0.9778                 1.0271                 0.7910
 IR Inten    --      3.2012                 0.2265                16.6463

                     37                     38                     39
                      A                      A                      A
 Frequencies --    930.2092               958.6016               971.1296
 Red. masses --      1.8364                 2.1477                 2.0027
 Frc consts  --      0.9362                 1.1628                 1.1128
 IR Inten    --      4.5785                 7.0369                 2.7570

                     40                     41                     42
                      A                      A                      A
 Frequencies --    977.9911              1004.2593              1020.0371
 Red. masses --      1.5191                 1.7316                 2.0839
 Frc consts  --      0.8561                 1.0289                 1.2775
 IR Inten    --      4.0411                15.4781                 0.3531

                     43                     44                     45
                      A                      A                      A
 Frequencies --   1037.8994              1041.3977              1070.3701
 Red. masses --      1.8940                 1.8139                 1.8342
 Frc consts  --      1.2021                 1.1591                 1.2381
 IR Inten    --      2.5198                 3.0790                21.1864

                     46                     47                     48
                      A                      A                      A
 Frequencies --   1084.0482              1090.7372              1097.2681
 Red. masses --      1.8914                 1.5715                 2.5175
 Frc consts  --      1.3096                 1.1016                 1.7858
 IR Inten    --     18.7121                 5.5762                 2.8087

                     49                     50                     51
                      A                      A                      A
 Frequencies --   1116.9989              1144.9531              1161.3781
 Red. masses --      2.3554                 1.9915                 2.3316
 Frc consts  --      1.7315                 1.5382                 1.8529
 IR Inten    --      1.9202                 3.2590                14.6398

                     52                     53                     54
                      A                      A                      A
 Frequencies --   1177.8935              1189.0462              1200.9490
 Red. masses --      2.0781                 2.4716                 2.1158
 Frc consts  --      1.6987                 2.0588                 1.7979
 IR Inten    --      8.1931                 2.3345                 9.1184

                     55                     56                     57
                      A                      A                      A
 Frequencies --   1224.6152              1236.2114              1251.6943
 Red. masses --      1.6039                 1.8762                 1.4926
 Frc consts  --      1.4172                 1.6893                 1.3778
 IR Inten    --     18.4278                10.1150                10.2353

                     58                     59                     60
                      A                      A                      A
 Frequencies --   1301.5517              1308.1942              1326.9336
 Red. masses --      1.3189                 1.2417                 1.2877
 Frc consts  --      1.3164                 1.2520                 1.3358
 IR Inten    --      2.9746                 4.6901                 6.8236

                     61                     62                     63
                      A                      A                      A
 Frequencies --   1331.7059              1335.7059              1342.8689
 Red. masses --      1.1933                 1.2438                 1.2073
 Frc consts  --      1.2468                 1.3074                 1.2827
 IR Inten    --      2.1065                 0.3263                15.4040

                     64                     65                     66
                      A                      A                      A
 Frequencies --   1364.6918              1381.1838              1391.8501
 Red. masses --      1.2592                 1.3333                 1.3445
 Frc consts  --      1.3817                 1.4986                 1.5346
 IR Inten    --     18.8127                 1.2903                 5.3467

                     67                     68                     69
                      A                      A                      A
 Frequencies --   1397.3356              1401.7929              1404.2209
 Red. masses --      1.4020                 1.3782                 1.3991
 Frc consts  --      1.6129                 1.5957                 1.6254
 IR Inten    --      3.8642                 2.7527                 1.6862

                     70                     71                     72
                      A                      A                      A
 Frequencies --   1407.5257              1433.8141              1440.3428
 Red. masses --      1.4524                 1.2213                 1.3601
 Frc consts  --      1.6953                 1.4794                 1.6625
 IR Inten    --      0.2875                 4.4046                 4.5306

                     73                     74                     75
                      A                      A                      A
 Frequencies --   1443.1699              1445.6154              1495.7605
 Red. masses --      1.2869                 1.2731                 1.2825
 Frc consts  --      1.5792                 1.5675                 1.6905
 IR Inten    --      0.1490                 3.6909                 0.9139

                     76                     77                     78
                      A                      A                      A
 Frequencies --   1509.9380              1512.1370              1515.5111
 Red. masses --      1.0752                 1.0742                 1.0815
 Frc consts  --      1.4443                 1.4471                 1.4634
 IR Inten    --      5.5927                 2.3287                 2.8822

                     79                     80                     81
                      A                      A                      A
 Frequencies --   1520.5783              1523.0222              1525.1682
 Red. masses --      1.0712                 1.0803                 1.0857
 Frc consts  --      1.4593                 1.4763                 1.4880
 IR Inten    --      4.1829                 4.1187                10.6607

                     82                     83                     84
                      A                      A                      A
 Frequencies --   1528.9830              1531.0073              1531.5983
 Red. masses --      1.0624                 1.0440                 1.0591
 Frc consts  --      1.4633                 1.4418                 1.4638
 IR Inten    --      0.8079                 1.3429                 7.1932

                     85                     86                     87
                      A                      A                      A
 Frequencies --   1534.2838              1537.1839              1541.6056
 Red. masses --      1.0518                 1.0902                 1.0612
 Frc consts  --      1.4588                 1.5177                 1.4860
 IR Inten    --      5.8690                 7.0834                 4.8691

                     88                     89                     90
                      A                      A                      A
 Frequencies --   1546.4104              1754.5181              2910.5050
 Red. masses --      1.0812                11.0991                 1.0738
 Frc consts  --      1.5233                20.1304                 5.3595
 IR Inten    --      1.7496                99.8291                65.7596

                     91                     92                     93
                      A                      A                      A
 Frequencies --   2925.2219              3038.0301              3041.9212
 Red. masses --      1.0735                 1.0735                 1.0679
 Frc consts  --      5.4122                 5.8377                 5.8221
 IR Inten    --     95.1070                30.3517                38.8835

                     94                     95                     96
                      A                      A                      A
 Frequencies --   3044.1279              3048.5541              3050.7751
 Red. masses --      1.0552                 1.0549                 1.0688
 Frc consts  --      5.7609                 5.7762                 5.8608
 IR Inten    --     11.8141                20.7015                11.7074

                     97                     98                     99
                      A                      A                      A
 Frequencies --   3051.7505              3055.3876              3055.9056
 Red. masses --      1.0607                 1.0496                 1.0480
 Frc consts  --      5.8201                 5.7732                 5.7663
 IR Inten    --     14.1512                47.2319                20.5581

                    100                    101                    102
                      A                      A                      A
 Frequencies --   3059.7551              3083.4197              3095.9037
 Red. masses --      1.0571                 1.0876                 1.0990
 Frc consts  --      5.8309                 6.0923                 6.2061
 IR Inten    --     49.8330                60.9088                20.5730

                    103                    104                    105
                      A                      A                      A
 Frequencies --   3097.4653              3102.5338              3112.6411
 Red. masses --      1.0965                 1.0960                 1.0974
 Frc consts  --      6.1983                 6.2159                 6.2641
 IR Inten    --     18.3815                27.4877                17.6803

                    106                    107                    108
                      A                      A                      A
 Frequencies --   3114.5376              3115.4478              3121.6368
 Red. masses --      1.0978                 1.0943                 1.1006
 Frc consts  --      6.2741                 6.2581                 6.3190
 IR Inten    --     28.4102                31.0452                40.0690

                    109                    110                    111
                      A                      A                      A
 Frequencies --   3122.3311              3135.9824              3139.9762
 Red. masses --      1.0954                 1.1026                 1.0988
 Frc consts  --      6.2920                 6.3886                 6.3829
 IR Inten    --     45.4114                22.4738                41.6767

                    112                    113                    114
                      A                      A                      A
 Frequencies --   3142.7155              3144.2919              3511.7534
 Red. masses --      1.0876                 1.0977                 1.0749
 Frc consts  --      6.3292                 6.3938                 7.8100
 IR Inten    --     16.4092                29.3123                 0.5781

 - Thermochemistry -
 -------------------
 Temperature   298.150 Kelvin.  Pressure   1.00000 Atm.
 Atom     1 has atomic number  6 and mass  12.00000

 Molecular mass:   211.19361 amu.
 Principal axes and moments of inertia in atomic units:
                           1         2         3
     Eigenvalues --  2583.585853623.060464450.59281
           X            0.99986   0.00973  -0.01388
           Y           -0.00997   0.99979  -0.01791
           Z            0.01370   0.01804   0.99974
 This molecule is an asymmetric top.
 Rotational symmetry number  1.
 Warning -- assumption of classical behavior for rotation
           may cause significant error
 Rotational temperatures (Kelvin)      0.03352     0.02391     0.01946
 Rotational constants (GHZ):           0.69854     0.49813     0.40551
 Zero-point vibrational energy     971400.0 (Joules/Mol)
                                  232.17016 (Kcal/Mol)
 Warning -- explicit consideration of  26 degrees of freedom as
           vibrations may cause significant error
 Vibrational temperatures:     68.13    78.07   123.85   163.16   179.80
          (Kelvin)            202.91   259.46   267.06   286.14   300.07
                              315.01   331.58   353.50   376.57   407.84
                              420.68   493.36   538.65   563.65   610.46
                              615.88   632.59   704.45   753.99   784.11
                              817.30   940.63  1065.10  1111.90  1122.59
                             1160.93  1194.29  1242.02  1267.63  1280.64
                             1308.67  1338.36  1379.21  1397.24  1407.11
                             1444.91  1467.61  1493.31  1498.34  1540.02
                             1559.70  1569.33  1578.72  1607.11  1647.33
                             1670.96  1694.73  1710.77  1727.90  1761.95
                             1778.63  1800.91  1872.64  1882.20  1909.16
                             1916.03  1921.78  1932.09  1963.49  1987.22
                             2002.56  2010.45  2016.87  2020.36  2025.12
                             2062.94  2072.33  2076.40  2079.92  2152.07
                             2172.46  2175.63  2180.48  2187.77  2191.29
                             2194.38  2199.87  2202.78  2203.63  2207.49
                             2211.66  2218.03  2224.94  2524.36  4187.57
                             4208.74  4371.05  4376.65  4379.82  4386.19
                             4389.38  4390.79  4396.02  4396.77  4402.31
                             4436.35  4454.31  4456.56  4463.85  4478.40
                             4481.12  4482.43  4491.34  4492.34  4511.98
                             4517.73  4521.67  4523.93  5052.63

 Zero-point correction=                           0.369987 (Hartree/Particle)
 Thermal correction to Energy=                    0.386694
 Thermal correction to Enthalpy=                  0.387638
 Thermal correction to Gibbs Free Energy=         0.327021
 Sum of electronic and zero-point Energies=           -640.110166
 Sum of electronic and thermal Energies=              -640.093458
 Sum of electronic and thermal Enthalpies=            -640.092514
 Sum of electronic and thermal Free Energies=         -640.153131

                     E (Thermal)             CV                S
                      KCal/Mol        Cal/Mol-Kelvin    Cal/Mol-Kelvin
 Total                  242.654             64.602            127.580
 Electronic               0.000              0.000              0.000
 Translational            0.889              2.981             41.946
 Rotational               0.889              2.981             32.099
 Vibrational            240.877             58.640             53.534
 Vibration     1          0.595              1.979              4.925
 Vibration     2          0.596              1.976              4.656
 Vibration     3          0.601              1.959              3.747
 Vibration     4          0.607              1.938              3.210
 Vibration     5          0.610              1.928              3.022
 Vibration     6          0.615              1.912              2.790
 Vibration     7          0.629              1.866              2.325
 Vibration     8          0.632              1.860              2.271
 Vibration     9          0.637              1.841              2.143
 Vibration    10          0.642              1.828              2.056
 Vibration    11          0.647              1.812              1.968
 Vibration    12          0.652              1.794              1.875
 Vibration    13          0.660              1.770              1.761
 Vibration    14          0.669              1.743              1.650
 Vibration    15          0.682              1.704              1.513
 Vibration    16          0.688              1.688              1.460
 Vibration    17          0.722              1.590              1.199
 Vibration    18          0.746              1.525              1.062
 Vibration    19          0.759              1.488              0.993
 Vibration    20          0.786              1.417              0.878
 Vibration    21          0.790              1.409              0.865
 Vibration    22          0.800              1.384              0.828
 Vibration    23          0.845              1.273              0.685
 Vibration    24          0.879              1.197              0.601
 Vibration    25          0.900              1.151              0.555
 Vibration    26          0.924              1.100              0.508

 Optimization completed.
    -- Stationary point found.
 Normal termination of Gaussian 16 at Thu Dec 10 17:10:00 2020.

 ----------------------------------------------------------------------
 # B3LYP/6-311++G(d,p) empiricaldispersion=gd3bj scf=xqc pop=npa geom=c
 heck
 ----------------------------------------------------------------------

 ---------------------------------------
 CID_116569630_JID_5667_Energie_neutraal
 ---------------------------------------
 Structure from the checkpoint file:  "JID_5667.chk"
 Charge =  0 Multiplicity = 1

 SCF Done:  E(RB3LYP) =  -640.661225968     A.U. after   14 cycles
 Normal termination of Gaussian 16 at Thu Dec 10 17:19:33 2020.

 ----------------------------------------------------------------------
 # B3LYP/6-311++G(d,p) empiricaldispersion=gd3bj scf=xqc pop=npa geom=c
 heck
 ----------------------------------------------------------------------

 -------------------------------------
 CID_116569630_JID_5667_Energie_kation
 -------------------------------------
 Structure from the checkpoint file:  "JID_5667.chk"
 Charge =  1 Multiplicity = 2

 SCF Done:  E(UB3LYP) =  -640.361924798     A.U. after   23 cycles
 Normal termination of Gaussian 16 at Thu Dec 10 17:40:59 2020.
 Gaussian 16:  ES64L-G16RevA.03 25-Dec-2016

 ----------------------------------------------------------------------
 # B3LYP/6-311++G(d,p) empiricaldispersion=gd3bj scf=xqc pop=npa geom=c
 heck
 ----------------------------------------------------------------------

 ------------------------------------
 CID_116569630_JID_5667_Energie_anion
 ------------------------------------
 Structure from the checkpoint file:  "JID_5667.chk"
 Charge = -1 Multiplicity = 2

                         Standard orientation:
 ---------------------------------------------------------------------
 Center     Atomic      Atomic             Coordinates (Angstroms)
 Number     Number       Type             X           Y           Z
 ---------------------------------------------------------------------
      1          6           0        1.513342    2.987324   -0.131982
      2          6           0        0.016758    2.721861    0.061769
      3          6           0       -0.519290    1.481343   -0.678647
      4          6           0       -0.528976    0.108341    0.068208
      5          6           0       -0.851499   -1.014008   -0.948096
      6          6           0       -2.295854   -0.957934   -1.473431
      7          6           0       -3.298135   -0.889456   -0.322612
      8          7           0       -2.967460    0.260594    0.514347
      9          6           0       -1.658268    0.116274    1.139816
     10          6           0        0.777433   -0.104606    0.867336
     11          8           0        0.927622    0.550282    1.889281
     12          6           0        1.873860   -1.153262    0.579932
     13          6           0        1.486405   -2.455953    1.313881
     14          6           0        2.332899   -1.441490   -0.858397
     15          6           0        2.769823   -0.204491   -1.644814
     16          1           0        2.127288    2.179813    0.274637
     17          1           0        1.812952    3.912246    0.374090
     18          1           0        1.758153    3.095878   -1.196139
     19          1           0       -0.201747    2.646992    1.131249
     20          1           0       -0.537445    3.594692   -0.306745
     21          1           0       -1.564239    1.661575   -0.943337
     22          1           0        0.024827    1.366129   -1.624983
     23          1           0       -0.163656   -0.967205   -1.796769
     24          1           0       -0.704922   -1.989700   -0.469247
     25          1           0       -2.433756   -0.081746   -2.116176
     26          1           0       -2.491404   -1.844225   -2.089148
     27          1           0       -4.316978   -0.767752   -0.706722
     28          1           0       -3.267100   -1.844527    0.241204
     29          1           0       -3.673789    0.391362    1.233797
     30          1           0       -1.576137   -0.818808    1.728426
     31          1           0       -1.495228    0.944822    1.830356
     32          1           0        2.734405   -0.736863    1.117676
     33          1           0        0.630795   -2.952618    0.844604
     34          1           0        2.328331   -3.157043    1.293479
     35          1           0        1.235676   -2.251892    2.359097
     36          1           0        3.186632   -2.128005   -0.776035
     37          1           0        1.567306   -1.993156   -1.411346
     38          1           0        3.532177    0.361280   -1.096655
     39          1           0        3.194344   -0.486245   -2.614643
     40          1           0        1.933776    0.474934   -1.833111
 ---------------------------------------------------------------------

 SCF Done:  E(UB3LYP) =  -640.647365205     A.U. after   33 cycles
 SCF Done:  E(UB3LYP) =  -640.647365205     a.u. after    1 cycles

 The electronic state is 2-A.
 Alpha  occ. eigenvalues --  -18.99748 -14.19143 -10.14342 -10.08579 -10.08498
 Alpha  occ. eigenvalues --  -10.08291 -10.08249 -10.07228 -10.07151 -10.06372
 Alpha  occ. eigenvalues --  -10.06284 -10.06239 -10.06080 -10.05900 -10.05880
 Alpha  occ. eigenvalues --   -0.93457  -0.80936  -0.71810  -0.70358  -0.67202
 Alpha  occ. eigenvalues --   -0.65096  -0.63836  -0.57845  -0.55395  -0.53779
 Alpha  occ. eigenvalues --   -0.53109  -0.50388  -0.48760  -0.45187  -0.41967
 Alpha  occ. eigenvalues --   -0.39829  -0.36897  -0.36575  -0.35792  -0.34866
 Alpha  occ. eigenvalues --   -0.34004  -0.33623  -0.33216  -0.32435  -0.32034
 Alpha  occ. eigenvalues --   -0.30827  -0.30177  -0.29483  -0.29081  -0.28727
 Alpha  occ. eigenvalues --   -0.26921  -0.26486  -0.25596  -0.25556  -0.24278
 Alpha  occ. eigenvalues --   -0.24000  -0.23650  -0.23350  -0.22686  -0.21817
 Alpha  occ. eigenvalues --   -0.20745  -0.19758  -0.13671  -0.12440   0.04510
 Alpha virt. eigenvalues --    0.06271   0.06608   0.07417   0.07745   0.08363
 Alpha virt. eigenvalues --    0.08897   0.09125   0.09651   0.10081   0.10986
 Alpha virt. eigenvalues --    0.11074   0.11858   0.12069   0.12204   0.12586

  Beta  occ. eigenvalues --  -18.99651 -14.19117 -10.14217 -10.08573 -10.08509
  Beta  occ. eigenvalues --  -10.08261 -10.08255 -10.07208 -10.07131 -10.06363
  Beta  occ. eigenvalues --  -10.06281 -10.06212 -10.06056 -10.05896 -10.05861
  Beta  occ. eigenvalues --   -0.93260  -0.80895  -0.71751  -0.70328  -0.67176
  Beta  occ. eigenvalues --   -0.65054  -0.63790  -0.57812  -0.55285  -0.53712
  Beta  occ. eigenvalues --   -0.53038  -0.50311  -0.48717  -0.45069  -0.41911
  Beta  occ. eigenvalues --   -0.39749  -0.36847  -0.36474  -0.35741  -0.34808
  Beta  occ. eigenvalues --   -0.33949  -0.33557  -0.33172  -0.32408  -0.32004
  Beta  occ. eigenvalues --   -0.30771  -0.30112  -0.29421  -0.29003  -0.28682
  Beta  occ. eigenvalues --   -0.26794  -0.26415  -0.25561  -0.25424  -0.24236
  Beta  occ. eigenvalues --   -0.23935  -0.23622  -0.23217  -0.22658  -0.21770
  Beta  occ. eigenvalues --   -0.20632  -0.19725  -0.13594  -0.12389
  Beta virt. eigenvalues --    0.06627   0.07105   0.07376   0.07810   0.08490
  Beta virt. eigenvalues --    0.08937   0.09217   0.09525   0.09812   0.10318
  Beta virt. eigenvalues --    0.11212   0.11495   0.12026   0.12229   0.12507

 Mulliken charges and spin densities:
               1          2
     1  C   -0.283537  -0.305426
     2  C   -0.118129  -0.062088
     3  C   -0.936775   0.524095
     4  C    1.889120   0.099429
     5  C   -0.443031   0.029358
     6  C   -0.321678  -0.144887
     7  C    1.218291  -1.555453
     8  N   -0.438321   0.361152
     9  C    0.037025  -0.938644
    10  C   -0.987014  -0.452337
    11  O   -0.143504   0.045900
    12  C    0.499457  -0.097367
    13  C   -0.245518  -0.334983
    14  C   -0.193977   0.004990
    15  C    0.130208  -0.759535
    16  H    0.143230   0.025792
    17  H    0.144359  -0.022509
    18  H    0.036777   0.098096
    19  H    0.122704   0.038807
    20  H    0.053675   0.081532
    21  H    0.208787   0.006768
    22  H   -0.301785   0.423325
    23  H    0.092232   0.056916
    24  H    0.368900  -0.257455
    25  H    0.157252  -0.016968
    26  H   -0.745110   0.931428
    27  H   -0.617803   0.803884
    28  H   -0.117242   0.214443
    29  H   -0.161000   0.424473
    30  H    0.056311   0.112746
    31  H    0.148765   0.017993
    32  H    0.138438   0.073447
    33  H   -0.053578   0.205591
    34  H    0.118811   0.019852
    35  H    0.136468   0.031043
    36  H   -0.153689   0.317639
    37  H   -0.246026   0.414070
    38  H    0.153720  -0.028241
    39  H   -0.621063   0.775966
    40  H    0.274250  -0.162840
 Sum of Mulliken charges =  -1.00000   1.00000

 Dipole moment (field-independent basis, Debye):
    X=              4.1873    Y=              2.4229    Z=              3.1103  Tot=              5.7513
 Quadrupole moment (field-independent basis, Debye-Ang):
   XX=           -170.2019   YY=           -134.8699   ZZ=           -142.4567
   XY=             -3.4453   XZ=              4.1857   YZ=            -11.0162

 Summary of Natural Population Analysis:

                                       Natural Population
                Natural  -----------------------------------------------
    Atom  No    Charge         Core      Valence    Rydberg      Total
 -----------------------------------------------------------------------
      C    1   -0.28278      0.99966     2.27904    0.00408     3.28278
      C    2   -0.19444      0.99963     2.18753    0.00728     3.19444
      C    3   -0.19049      0.99958     2.18004    0.01087     3.19049
      C    4   -0.08036      0.99950     2.06698    0.01388     3.08036
      C    5   -0.19301      0.99960     2.18267    0.01075     3.19301
      C    6   -0.19086      0.99962     2.18212    0.00912     3.19086
      C    7   -0.08505      0.99962     2.07401    0.01142     3.08505
      N    8   -0.34260      0.99973     2.83072    0.01215     3.84260
      C    9   -0.08307      0.99958     2.06985    0.01364     3.08307
      C   10    0.33179      0.99957     1.64490    0.02374     2.66821
      O   11   -0.29626      0.99988     3.28983    0.00655     4.29626
      C   12   -0.15284      0.99955     2.14200    0.01129     3.15284
      C   13   -0.27484      0.99964     2.27109    0.00411     3.27484
      C   14   -0.19064      0.99962     2.18196    0.00906     3.19064
      C   15   -0.28563      0.99966     2.28044    0.00553     3.28563
      H   16    0.10121      0.00000     0.39772    0.00108     0.39879
      H   17    0.09355      0.00000     0.40570    0.00076     0.40645
      H   18    0.09152      0.00000     0.40752    0.00096     0.40848
      H   19    0.10471      0.00000     0.39394    0.00136     0.39529
      H   20    0.09176      0.00000     0.40726    0.00097     0.40824
      H   21    0.11343      0.00000     0.38456    0.00201     0.38657
      H   22    0.09363      0.00000     0.40513    0.00124     0.40637
      H   23    0.10203      0.00000     0.39590    0.00207     0.39797
      H   24    0.09626      0.00000     0.40176    0.00198     0.40374
      H   25    0.09698      0.00000     0.40163    0.00139     0.40302
      H   26    0.10156      0.00000     0.39693    0.00151     0.39844
      H   27    0.09747      0.00000     0.40046    0.00207     0.40253
      H   28    0.07490      0.00000     0.42322    0.00189     0.42510
      H   29    0.17842      0.00000     0.31821    0.00338     0.32158
      H   30    0.07994      0.00000     0.41861    0.00146     0.42006
      H   31    0.10521      0.00000     0.39357    0.00122     0.39479
      H   32    0.10278      0.00000     0.39535    0.00187     0.39722
      H   33    0.09745      0.00000     0.40149    0.00107     0.40255
      H   34    0.09710      0.00000     0.40205    0.00085     0.40290
      H   35    0.10272      0.00000     0.39640    0.00087     0.39728
      H   36    0.09549      0.00000     0.40334    0.00117     0.40451
      H   37    0.09960      0.00000     0.39885    0.00154     0.40040
      H   38    0.09430      0.00000     0.40474    0.00096     0.40570
      H   39    0.10102      0.00000     0.39776    0.00122     0.39898
      H   40    0.09804      0.00000     0.40065    0.00131     0.40196
 =======================================================================
   * Total *    0.00000     14.99445    43.81591    0.18964    59.00000

 Normal termination of Gaussian 16 at Thu Dec 10 18:10:46 2020.
