 Gaussian 16, Revision A.03,

 -----------------------------------------------------------
 # opt freq B3LYP/6-31G(d) empiricaldispersion=gd3bj scf=xqc
 -----------------------------------------------------------

 -------------------------------
 CID_149688588_JID_3098_neutraal
 -------------------------------
 Symbolic Z-matrix:
 Charge =  0 Multiplicity = 1

 SCF Done:  E(RB3LYP) =  -590.017777811     A.U. after   15 cycles
 SCF Done:  E(RB3LYP) =  -590.026635998     A.U. after   13 cycles
 SCF Done:  E(RB3LYP) =  -590.027834515     A.U. after   13 cycles
 SCF Done:  E(RB3LYP) =  -590.028273574     A.U. after   13 cycles
 SCF Done:  E(RB3LYP) =  -590.028551160     A.U. after   13 cycles
 SCF Done:  E(RB3LYP) =  -590.029525838     A.U. after   12 cycles
 SCF Done:  E(RB3LYP) =  -590.029745138     A.U. after   12 cycles
 SCF Done:  E(RB3LYP) =  -590.030130731     A.U. after   11 cycles
 SCF Done:  E(RB3LYP) =  -590.030638092     A.U. after   13 cycles
 SCF Done:  E(RB3LYP) =  -590.031455227     A.U. after   12 cycles
 SCF Done:  E(RB3LYP) =  -590.034476001     A.U. after   10 cycles
 SCF Done:  E(RB3LYP) =  -590.034490764     A.U. after   11 cycles
 SCF Done:  E(RB3LYP) =  -590.034492131     A.U. after    8 cycles
 SCF Done:  E(RB3LYP) =  -590.034492111     A.U. after    8 cycles
 SCF Done:  E(RB3LYP) =  -590.034492073     A.U. after    7 cycles
 Optimization completed.
    -- Stationary point found.

 1\1\GINC-NODE211\FOpt\RB3LYP\6-31G(d)\C8H19N5\VSC10255\09-Dec-2020\0\\
 # opt freq B3LYP/6-31G(d) empiricaldispersion=gd3bj scf=xqc\\CID_14968
 8588_JID_3098_neutraal\\0,1\C,0.9202758526,-0.0922000388,-0.0388055161
 \C,0.536668938,-0.469353421,-1.4725350954\C,0.9861920979,-1.8792348482
 ,-1.9104700141\C,0.4750155868,-2.9714709639,-0.9319522414\C,-1.0193730
 945,-2.9991812557,-0.5974831906\C,0.6112378344,-2.1700403671,-3.422195
 7343\C,1.2293879977,-1.1747499464,-4.4436643365\C,2.749747689,-1.13945
 0757,-4.6361472544\N,1.0910939752,-3.5078833007,-3.7495663403\N,-0.865

 Normal termination of Gaussian 16 at Wed Dec  9 22:34:35 2020.

 --------------------------------------------------------------------
 #N Geom=AllCheck Guess=TCheck SCRF=Check GenChk RB3LYP/6-31G(d) Freq
 --------------------------------------------------------------------

 Structure from the checkpoint file:  "JID_3098.chk"
 -------------------------------
 CID_149688588_JID_3098_neutraal
 -------------------------------
 Charge =  0 Multiplicity = 1

 SCF Done:  E(RB3LYP) =  -590.034492073     A.U. after    1 cycles

  Exact polarizability: 123.105  -7.412 117.319   5.970  -8.614 111.774
 Approx polarizability: 170.216 -25.107 179.947  27.174 -32.156 183.257

                      1                      2                      3
                      A                      A                      A
 Frequencies --     37.8793                71.6397               116.1213
 Red. masses --      3.7579                 5.6376                 1.7653
 Frc consts  --      0.0032                 0.0170                 0.0140
 IR Inten    --      0.2495                 0.0112                 0.0926

                      4                      5                      6
                      A                      A                      A
 Frequencies --    126.4338               147.8963               160.4623
 Red. masses --      2.4615                 3.7148                 2.5000
 Frc consts  --      0.0232                 0.0479                 0.0379
 IR Inten    --      0.2028                 0.6024                 0.2195

                      7                      8                      9
                      A                      A                      A
 Frequencies --    196.9626               223.5868               231.6106
 Red. masses --      2.7163                 1.7731                 1.0987
 Frc consts  --      0.0621                 0.0522                 0.0347
 IR Inten    --      1.1419                 2.0753                 0.7082

                     10                     11                     12
                      A                      A                      A
 Frequencies --    242.0078               260.5317               279.5855
 Red. masses --      1.4901                 1.2023                 1.7563
 Frc consts  --      0.0514                 0.0481                 0.0809
 IR Inten    --      2.8822                18.5823                 2.3754

                     13                     14                     15
                      A                      A                      A
 Frequencies --    290.6012               297.0529               319.5773
 Red. masses --      3.3632                 2.0802                 1.3344
 Frc consts  --      0.1673                 0.1081                 0.0803
 IR Inten    --      0.3181                 6.3100                47.6397

                     16                     17                     18
                      A                      A                      A
 Frequencies --    349.1256               354.0124               374.7006
 Red. masses --      2.6648                 4.1321                 2.2311
 Frc consts  --      0.1914                 0.3051                 0.1846
 IR Inten    --      0.8866                 3.9562                15.3568

                     19                     20                     21
                      A                      A                      A
 Frequencies --    380.7442               424.5000               453.8441
 Red. masses --      2.4640                 2.5654                 4.5357
 Frc consts  --      0.2105                 0.2724                 0.5504
 IR Inten    --      5.3745                11.7607                 3.8834

                     22                     23                     24
                      A                      A                      A
 Frequencies --    481.2389               540.4085               560.8739
 Red. masses --      3.1941                 2.9647                 2.7865
 Frc consts  --      0.4358                 0.5101                 0.5165
 IR Inten    --      0.7846                 2.4506                 7.2413

                     25                     26                     27
                      A                      A                      A
 Frequencies --    580.8631               639.0513               691.2234
 Red. masses --      9.8014                 2.8172                 3.6867
 Frc consts  --      1.9484                 0.6779                 1.0378
 IR Inten    --     21.0391                 3.0359                19.7808

                     28                     29                     30
                      A                      A                      A
 Frequencies --    782.9703               794.3083               807.2079
 Red. masses --      1.6421                 1.6006                 1.2946
 Frc consts  --      0.5931                 0.5950                 0.4970
 IR Inten    --      3.7537                 1.7959                 0.0810

                     31                     32                     33
                      A                      A                      A
 Frequencies --    845.5068               881.8978               928.4045
 Red. masses --      1.5482                 1.5902                 2.4676
 Frc consts  --      0.6521                 0.7287                 1.2531
 IR Inten    --     35.9427                86.3021                59.1397

                     34                     35                     36
                      A                      A                      A
 Frequencies --    931.9426               963.7924               978.8463
 Red. masses --      1.6792                 1.6850                 1.8414
 Frc consts  --      0.8593                 0.9222                 1.0395
 IR Inten    --     92.4958                 9.2132                31.6503

                     37                     38                     39
                      A                      A                      A
 Frequencies --   1009.9684              1036.8395              1048.6795
 Red. masses --      1.7476                 1.8231                 2.0032
 Frc consts  --      1.0503                 1.1547                 1.2980
 IR Inten    --     14.0731                 9.7871                 6.3196

                     40                     41                     42
                      A                      A                      A
 Frequencies --   1066.9445              1077.4955              1099.2919
 Red. masses --      2.5191                 2.4018                 1.8072
 Frc consts  --      1.6896                 1.6429                 1.2867
 IR Inten    --      0.5509                 5.1037                 4.3501

                     43                     44                     45
                      A                      A                      A
 Frequencies --   1121.5366              1166.2016              1184.9230
 Red. masses --      1.4792                 2.1693                 2.1898
 Frc consts  --      1.0962                 1.7383                 1.8114
 IR Inten    --      2.4275                11.1266                 3.8887

                     46                     47                     48
                      A                      A                      A
 Frequencies --   1196.3649              1222.2340              1293.7287
 Red. masses --      2.2828                 2.5789                 1.3581
 Frc consts  --      1.9251                 2.2698                 1.3393
 IR Inten    --      8.7798                 2.8720                 4.1049

                     49                     50                     51
                      A                      A                      A
 Frequencies --   1319.9065              1338.4530              1339.1189
 Red. masses --      1.7959                 1.6011                 1.5514
 Frc consts  --      1.8434                 1.6900                 1.6392
 IR Inten    --     11.8197                30.8839                28.8275

                     52                     53                     54
                      A                      A                      A
 Frequencies --   1347.4025              1383.4796              1395.1009
 Red. masses --      2.1803                 1.4006                 1.5009
 Frc consts  --      2.3322                 1.5795                 1.7212
 IR Inten    --     70.1188                 6.3343                 1.4715

                     55                     56                     57
                      A                      A                      A
 Frequencies --   1408.1796              1409.9884              1436.1079
 Red. masses --      1.5003                 1.4790                 1.2423
 Frc consts  --      1.7528                 1.7324                 1.5096
 IR Inten    --      2.5843                 0.7308                 4.9774

                     58                     59                     60
                      A                      A                      A
 Frequencies --   1437.1177              1443.7345              1510.8883
 Red. masses --      1.2284                 1.2285                 1.0651
 Frc consts  --      1.4947                 1.5086                 1.4325
 IR Inten    --      5.7999                 7.9004                 0.7823

                     61                     62                     63
                      A                      A                      A
 Frequencies --   1518.0712              1524.2349              1525.4688
 Red. masses --      1.0675                 1.0458                 1.0461
 Frc consts  --      1.4494                 1.4315                 1.4343
 IR Inten    --      1.5496                 2.0589                 7.2388

                     64                     65                     66
                      A                      A                      A
 Frequencies --   1530.5399              1536.8620              1544.8914
 Red. masses --      1.0568                 1.0576                 1.0509
 Frc consts  --      1.4586                 1.4717                 1.4777
 IR Inten    --      5.2025                 6.3284                 0.7877

                     67                     68                     69
                      A                      A                      A
 Frequencies --   1547.6044              1556.1809              1684.4128
 Red. masses --      1.0565                 1.0625                 1.0938
 Frc consts  --      1.4909                 1.5160                 1.8285
 IR Inten    --     10.1193                 3.6445                42.8351

                     70                     71                     72
                      A                      A                      A
 Frequencies --   1699.2866              2262.7455              3009.1568
 Red. masses --      1.0921                13.9252                 1.0727
 Frc consts  --      1.8580                42.0070                 5.7227
 IR Inten    --     41.1324               503.9217                42.2458

                     73                     74                     75
                      A                      A                      A
 Frequencies --   3054.9600              3058.7635              3060.6659
 Red. masses --      1.0414                 1.0418                 1.0441
 Frc consts  --      5.7266                 5.7430                 5.7626
 IR Inten    --     40.8714                36.2520                14.7013

                     76                     77                     78
                      A                      A                      A
 Frequencies --   3064.0006              3067.2156              3083.1367
 Red. masses --      1.0561                 1.0594                 1.0880
 Frc consts  --      5.8416                 5.8721                 6.0934
 IR Inten    --     40.4583                 2.0373                25.1767

                     79                     80                     81
                      A                      A                      A
 Frequencies --   3093.2360              3105.5537              3111.9565
 Red. masses --      1.1012                 1.1014                 1.0998
 Frc consts  --      6.2081                 6.2586                 6.2753
 IR Inten    --     14.1151                15.2493                51.8537

                     82                     83                     84
                      A                      A                      A
 Frequencies --   3121.7600              3125.6468              3144.4612
 Red. masses --      1.0981                 1.1006                 1.1028
 Frc consts  --      6.3053                 6.3351                 6.4243
 IR Inten    --     24.2855                41.4632                28.9883

                     85                     86                     87
                      A                      A                      A
 Frequencies --   3163.8293              3170.7397              3447.4778
 Red. masses --      1.0996                 1.0982                 1.0499
 Frc consts  --      6.4850                 6.5049                 7.3522
 IR Inten    --     16.0754                 8.2357                 4.1113

                     88                     89                     90
                      A                      A                      A
 Frequencies --   3485.8414              3534.2891              3571.2751
 Red. masses --      1.0493                 1.0909                 1.0932
 Frc consts  --      7.5124                 8.0287                 8.2146
 IR Inten    --      0.1874                 1.2036                 1.3523

 - Thermochemistry -
 -------------------
 Temperature   298.150 Kelvin.  Pressure   1.00000 Atm.
 Atom     1 has atomic number  6 and mass  12.00000

 Molecular mass:   185.16405 amu.
 Principal axes and moments of inertia in atomic units:
                           1         2         3
     Eigenvalues --  2065.783102483.007142862.63571
           X            0.99446   0.10308  -0.02068
           Y           -0.10193   0.99350   0.05067
           Z            0.02576  -0.04828   0.99850
 This molecule is an asymmetric top.
 Rotational symmetry number  1.
 Warning -- assumption of classical behavior for rotation
           may cause significant error
 Rotational temperatures (Kelvin)      0.04193     0.03488     0.03026
 Rotational constants (GHZ):           0.87364     0.72684     0.63045
 Zero-point vibrational energy     750329.9 (Joules/Mol)
                                  179.33315 (Kcal/Mol)
 Warning -- explicit consideration of  25 degrees of freedom as
           vibrations may cause significant error
 Vibrational temperatures:     54.50   103.07   167.07   181.91   212.79
          (Kelvin)            230.87   283.39   321.69   333.24   348.20
                              374.85   402.26   418.11   427.39   459.80
                              502.31   509.34   539.11   547.81   610.76
                              652.98   692.40   777.53   806.97   835.73
                              919.45   994.52  1126.52  1142.83  1161.39
                             1216.50  1268.85  1335.77  1340.86  1386.68
                             1408.34  1453.12  1491.78  1508.82  1535.10
                             1550.28  1581.64  1613.64  1677.90  1704.84
                             1721.30  1758.52  1861.39  1899.05  1925.74
                             1926.69  1938.61  1990.52  2007.24  2026.06
                             2028.66  2066.24  2067.69  2077.21  2173.83
                             2184.17  2193.03  2194.81  2202.11  2211.20
                             2222.75  2226.66  2239.00  2423.49  2444.89
                             3255.59  4329.51  4395.41  4400.88  4403.62
                             4408.41  4413.04  4435.95  4450.48  4468.20
                             4477.41  4491.52  4497.11  4524.18  4552.04
                             4561.99  4960.15  5015.35  5085.05  5138.27

 Zero-point correction=                           0.285786 (Hartree/Particle)
 Thermal correction to Energy=                    0.301131
 Thermal correction to Enthalpy=                  0.302075
 Thermal correction to Gibbs Free Energy=         0.244988
 Sum of electronic and zero-point Energies=           -589.748707
 Sum of electronic and thermal Energies=              -589.733361
 Sum of electronic and thermal Enthalpies=            -589.732417
 Sum of electronic and thermal Free Energies=         -589.789504

                     E (Thermal)             CV                S
                      KCal/Mol        Cal/Mol-Kelvin    Cal/Mol-Kelvin
 Total                  188.962             58.545            120.150
 Electronic               0.000              0.000              0.000
 Translational            0.889              2.981             41.554
 Rotational               0.889              2.981             31.063
 Vibrational            187.185             52.584             47.532
 Vibration     1          0.594              1.982              5.367
 Vibration     2          0.598              1.968              4.108
 Vibration     3          0.608              1.936              3.164
 Vibration     4          0.611              1.927              3.000
 Vibration     5          0.617              1.905              2.699
 Vibration     6          0.622              1.891              2.544
 Vibration     7          0.636              1.844              2.161
 Vibration     8          0.649              1.805              1.930
 Vibration     9          0.653              1.793              1.866
 Vibration    10          0.658              1.776              1.788
 Vibration    11          0.669              1.745              1.658
 Vibration    12          0.680              1.711              1.536
 Vibration    13          0.687              1.691              1.470
 Vibration    14          0.691              1.679              1.433
 Vibration    15          0.706              1.636              1.312
 Vibration    16          0.726              1.577              1.170
 Vibration    17          0.730              1.567              1.148
 Vibration    18          0.746              1.524              1.060
 Vibration    19          0.750              1.511              1.036
 Vibration    20          0.786              1.417              0.877
 Vibration    21          0.812              1.352              0.784
 Vibration    22          0.838              1.292              0.707
 Vibration    23          0.895              1.161              0.564
 Vibration    24          0.917              1.116              0.522
 Vibration    25          0.938              1.073              0.484

 Optimization completed.
    -- Stationary point found.

 1\1\GINC-NODE211\Freq\RB3LYP\6-31G(d)\C8H19N5\VSC10255\09-Dec-2020\0\\
 #N Geom=AllCheck Guess=TCheck SCRF=Check GenChk RB3LYP/6-31G(d) Freq\\
 CID_149688588_JID_3098_neutraal\\0,1\C,0.9202758526,-0.0922000388,-0.0
 388055161\C,0.536668938,-0.469353421,-1.4725350954\C,0.9861920979,-1.8
 792348482,-1.9104700141\C,0.4750155868,-2.9714709639,-0.9319522414\C,-
 1.0193730945,-2.9991812557,-0.5974831906\C,0.6112378344,-2.1700403671,
 -3.4221957343\C,1.2293879977,-1.1747499464,-4.4436643365\C,2.749747689
 ,-1.139450757,-4.6361472544\N,1.0910939752,-3.5078833007,-3.7495663403

 Normal termination of Gaussian 16 at Wed Dec  9 22:44:06 2020.

 ----------------------------------------------------------------------
 # B3LYP/6-311++G(d,p) empiricaldispersion=gd3bj scf=xqc pop=npa geom=c
 heck
 ----------------------------------------------------------------------

 ---------------------------------------
 CID_149688588_JID_3098_Energie_neutraal
 ---------------------------------------
 Structure from the checkpoint file:  "JID_3098.chk"
 Charge =  0 Multiplicity = 1

 SCF Done:  E(RB3LYP) =  -590.213322704     A.U. after   16 cycles
 Normal termination of Gaussian 16 at Wed Dec  9 22:48:53 2020.

 ----------------------------------------------------------------------
 # B3LYP/6-311++G(d,p) empiricaldispersion=gd3bj scf=xqc pop=npa geom=c
 heck
 ----------------------------------------------------------------------

 -------------------------------------
 CID_149688588_JID_3098_Energie_kation
 -------------------------------------
 Structure from the checkpoint file:  "JID_3098.chk"
 Charge =  1 Multiplicity = 2

 SCF Done:  E(UB3LYP) =  -589.904632696     A.U. after   26 cycles
 Normal termination of Gaussian 16 at Wed Dec  9 23:01:44 2020.
 Gaussian 16:  ES64L-G16RevA.03 25-Dec-2016

 ------------------------------------
 CID_149688588_JID_3098_Energie_anion
 ------------------------------------
 Structure from the checkpoint file:  "JID_3098.chk"
 Charge = -1 Multiplicity = 2

                         Standard orientation:
 ---------------------------------------------------------------------
 Center     Atomic      Atomic             Coordinates (Angstroms)
 Number     Number       Type             X           Y           Z
 ---------------------------------------------------------------------
      1          6           0        2.216307    0.840209    1.903243
      2          6           0        1.235043   -0.238985    1.436937
      3          6           0        0.476169    0.098325    0.136185
      4          6           0        1.452016    0.447341   -1.020400
      5          6           0        2.580497   -0.539089   -1.335554
      6          6           0       -0.564484   -1.034050   -0.244921
      7          6           0       -1.646700   -1.306981    0.836942
      8          6           0       -2.674145   -0.218229    1.166738
      9          7           0       -1.243704   -0.620120   -1.467451
     10          7           0        0.192356   -2.280278   -0.511158
     11          7           0       -0.283195    1.339769    0.476180
     12          7           0       -0.827027    1.965697   -0.436428
     13          7           0       -1.369915    2.667585   -1.155226
     14          1           0        3.049411    0.967699    1.205046
     15          1           0        2.639144    0.570064    2.876854
     16          1           0        1.707343    1.802667    2.005882
     17          1           0        1.777053   -1.180431    1.298243
     18          1           0        0.500321   -0.405529    2.231186
     19          1           0        0.860409    0.631335   -1.923779
     20          1           0        1.893221    1.416198   -0.760727
     21          1           0        2.187289   -1.509186   -1.640996
     22          1           0        3.203577   -0.134018   -2.141427
     23          1           0        3.232995   -0.696981   -0.469573
     24          1           0       -2.187452   -2.193207    0.470688
     25          1           0       -1.146941   -1.635696    1.754952
     26          1           0       -3.093132    0.222784    0.256830
     27          1           0       -3.499154   -0.652015    1.743857
     28          1           0       -2.232593    0.589308    1.752194
     29          1           0       -0.660459   -0.849387   -2.268952
     30          1           0       -2.119772   -1.126032   -1.578250
     31          1           0        0.640942   -2.614260    0.341666
     32          1           0       -0.480025   -3.003133   -0.770137
 ---------------------------------------------------------------------

 SCF Done:  E(UB3LYP) =  -590.202684920     A.U. after   33 cycles
 SCF Done:  E(UB3LYP) =  -590.202684920     a.u. after    1 cycles

 The electronic state is 2-A.
 Alpha  occ. eigenvalues --  -14.36651 -14.26168 -14.24211 -14.18856 -14.18475
 Alpha  occ. eigenvalues --  -10.13315 -10.12484 -10.06935 -10.06812 -10.06028
 Alpha  occ. eigenvalues --  -10.05985 -10.05381 -10.04863  -1.02465  -0.86969
 Alpha  occ. eigenvalues --   -0.82348  -0.73518  -0.71294  -0.65820  -0.64764
 Alpha  occ. eigenvalues --   -0.60746  -0.54112  -0.52617  -0.49625  -0.48553
 Alpha  occ. eigenvalues --   -0.41134  -0.40584  -0.39852  -0.39451  -0.37691
 Alpha  occ. eigenvalues --   -0.35394  -0.34816  -0.34252  -0.32767  -0.31977
 Alpha  occ. eigenvalues --   -0.31169  -0.30723  -0.30090  -0.28345  -0.27618
 Alpha  occ. eigenvalues --   -0.26939  -0.25939  -0.25271  -0.24664  -0.23811
 Alpha  occ. eigenvalues --   -0.22423  -0.22040  -0.18503  -0.15701  -0.14611
 Alpha  occ. eigenvalues --   -0.13347   0.04445
 Alpha virt. eigenvalues --    0.06855   0.07113   0.07701   0.08310   0.09060
 Alpha virt. eigenvalues --    0.09710   0.09990   0.10809   0.11102   0.11696
 Alpha virt. eigenvalues --    0.12276   0.12315   0.12904   0.13564   0.13897

  Beta  occ. eigenvalues --  -14.36606 -14.26084 -14.24229 -14.18822 -14.18425
  Beta  occ. eigenvalues --  -10.13314 -10.12470 -10.06927 -10.06785 -10.05989
  Beta  occ. eigenvalues --  -10.05966 -10.05362 -10.04848  -1.02364  -0.86915
  Beta  occ. eigenvalues --   -0.82296  -0.73431  -0.71250  -0.65774  -0.64725
  Beta  occ. eigenvalues --   -0.60701  -0.54052  -0.52557  -0.49562  -0.48484
  Beta  occ. eigenvalues --   -0.41075  -0.40450  -0.39765  -0.39402  -0.37635
  Beta  occ. eigenvalues --   -0.35293  -0.34703  -0.34185  -0.32713  -0.31907
  Beta  occ. eigenvalues --   -0.31138  -0.30681  -0.30066  -0.28306  -0.27570
  Beta  occ. eigenvalues --   -0.26896  -0.25897  -0.25249  -0.24622  -0.23782
  Beta  occ. eigenvalues --   -0.22377  -0.21995  -0.18418  -0.15654  -0.14575
  Beta  occ. eigenvalues --   -0.13296
  Beta virt. eigenvalues --    0.06782   0.07580   0.07848   0.08219   0.08877
  Beta virt. eigenvalues --    0.09550   0.10225   0.10363   0.11153   0.11485
  Beta virt. eigenvalues --    0.11902   0.12626   0.12645   0.13252   0.13889

 Mulliken charges and spin densities:
               1          2
     1  C    0.739932  -1.337076
     2  C   -0.630666   0.706647
     3  C    1.631606  -1.526571
     4  C   -0.461521   0.254701
     5  C    0.157985  -0.912015
     6  C   -1.345847   0.586807
     7  C    0.975130  -1.038676
     8  C    0.399157  -1.020269
     9  N   -0.692619   0.256434
    10  N   -0.113168  -0.201940
    11  N   -0.473288   0.362909
    12  N    0.528073   0.095406
    13  N   -0.078560  -0.202513
    14  H    0.044717   0.081826
    15  H   -0.242396   0.393692
    16  H    0.059671   0.117212
    17  H   -0.402860   0.547928
    18  H    0.261291  -0.108582
    19  H    0.162083  -0.036283
    20  H    0.057668   0.132509
    21  H    0.030290   0.179711
    22  H   -0.020152   0.147365
    23  H   -0.008449   0.148714
    24  H   -0.668431   0.830663
    25  H   -0.499591   0.664563
    26  H    0.154792   0.003025
    27  H   -0.196502   0.335874
    28  H    0.000534   0.141254
    29  H    0.010819   0.258270
    30  H   -0.064878   0.329801
    31  H    0.057171   0.166714
    32  H   -0.371991   0.641901
 Sum of Mulliken charges =  -1.00000   1.00000

 Dipole moment (field-independent basis, Debye):
    X=              2.2357    Y=              4.9867    Z=             -0.5202  Tot=              5.4896
 Quadrupole moment (field-independent basis, Debye-Ang):
   XX=           -128.9083   YY=           -137.0476   ZZ=           -120.4287
   XY=             -3.5725   XZ=             -4.3544   YZ=              1.3572

 Summary of Natural Population Analysis:

                                       Natural Population
                Natural  -----------------------------------------------
    Atom  No    Charge         Core      Valence    Rydberg      Total
 -----------------------------------------------------------------------
      C    1   -0.28686      0.99966     2.28134    0.00586     3.28686
      C    2   -0.19828      0.99957     2.18771    0.01099     3.19828
      C    3    0.06797      0.99947     1.91403    0.01852     2.93203
      C    4   -0.20154      0.99958     2.19212    0.00984     3.20154
      C    5   -0.28924      0.99965     2.28507    0.00452     3.28924
      C    6    0.14616      0.99953     1.83414    0.02017     2.85384
      C    7   -0.19925      0.99958     2.18827    0.01140     3.19925
      C    8   -0.29074      0.99965     2.28456    0.00653     3.29074
      N    9   -0.43075      0.99973     2.92000    0.01102     3.93075
      N   10   -0.43633      0.99975     2.92473    0.01185     3.93633
      N   11   -0.19381      0.99966     2.67932    0.01484     3.69381
      N   12    0.13072      0.99969     2.35394    0.01566     3.36928
      N   13   -0.05022      0.99982     2.53744    0.01296     3.55022
      H   14    0.09493      0.00000     0.40424    0.00083     0.40507
      H   15    0.09982      0.00000     0.39937    0.00081     0.40018
      H   16    0.10319      0.00000     0.39574    0.00107     0.39681
      H   17    0.10122      0.00000     0.39724    0.00154     0.39878
      H   18    0.10480      0.00000     0.39364    0.00156     0.39520
      H   19    0.10243      0.00000     0.39618    0.00139     0.39757
      H   20    0.09957      0.00000     0.39912    0.00131     0.40043
      H   21    0.11497      0.00000     0.38345    0.00157     0.38503
      H   22    0.09417      0.00000     0.40503    0.00080     0.40583
      H   23    0.09473      0.00000     0.40425    0.00102     0.40527
      H   24    0.09975      0.00000     0.39709    0.00316     0.40025
      H   25    0.10086      0.00000     0.39729    0.00185     0.39914
      H   26    0.10057      0.00000     0.39816    0.00127     0.39943
      H   27    0.09642      0.00000     0.40271    0.00087     0.40358
      H   28    0.10324      0.00000     0.39560    0.00116     0.39676
      H   29    0.18035      0.00000     0.31765    0.00200     0.31965
      H   30    0.18084      0.00000     0.31681    0.00236     0.31916
      H   31    0.17855      0.00000     0.31823    0.00323     0.32145
      H   32    0.18179      0.00000     0.31202    0.00620     0.31821
 =======================================================================
   * Total *   -0.00000     12.99534    37.81649    0.18817    51.00000

 Normal termination of Gaussian 16 at Wed Dec  9 23:16:46 2020.
