 Gaussian 16, Revision A.03,

 -----------------------------------------------------------
 # opt freq B3LYP/6-31G(d) empiricaldispersion=gd3bj scf=xqc
 -----------------------------------------------------------

 ------------------------------
 CID_39116545_JID_8095_neutraal
 ------------------------------
 Symbolic Z-matrix:
 Charge =  0 Multiplicity = 1

 SCF Done:  E(RB3LYP) =  -894.793272653     A.U. after   15 cycles
 SCF Done:  E(RB3LYP) =  -894.800377415     A.U. after   13 cycles
 SCF Done:  E(RB3LYP) =  -894.803585935     A.U. after   14 cycles
 SCF Done:  E(RB3LYP) =  -894.805783622     A.U. after   13 cycles
 SCF Done:  E(RB3LYP) =  -894.806207306     A.U. after   13 cycles
 SCF Done:  E(RB3LYP) =  -894.807370076     A.U. after   13 cycles
 SCF Done:  E(RB3LYP) =  -894.808114372     A.U. after   13 cycles
 SCF Done:  E(RB3LYP) =  -894.808449208     A.U. after   13 cycles
 SCF Done:  E(RB3LYP) =  -894.808731129     A.U. after   11 cycles
 SCF Done:  E(RB3LYP) =  -894.808836176     A.U. after   11 cycles
 SCF Done:  E(RB3LYP) =  -894.808929165     A.U. after    9 cycles
 SCF Done:  E(RB3LYP) =  -894.808929176     A.U. after    9 cycles
 SCF Done:  E(RB3LYP) =  -894.808929383     A.U. after   10 cycles
 SCF Done:  E(RB3LYP) =  -894.808929622     A.U. after    8 cycles
 SCF Done:  E(RB3LYP) =  -894.808929630     A.U. after    7 cycles
 Optimization completed.
    -- Stationary point found.
 Normal termination of Gaussian 16 at Fri Dec 11 18:55:37 2020.

 --------------------------------------------------------------------
 #N Geom=AllCheck Guess=TCheck SCRF=Check GenChk RB3LYP/6-31G(d) Freq
 --------------------------------------------------------------------

 Structure from the checkpoint file:  "JID_8095.chk"
 ------------------------------
 CID_39116545_JID_8095_neutraal
 ------------------------------
 Charge =  0 Multiplicity = 1

 SCF Done:  E(RB3LYP) =  -894.808929630     A.U. after    1 cycles

  Exact polarizability: 187.045  -0.840 158.848  11.825   2.360  89.536
 Approx polarizability: 272.623  -3.828 280.917  29.282   6.077 132.537

                      1                      2                      3
                      A                      A                      A
 Frequencies --     23.9307                31.6333                48.8603
 Red. masses --      8.2542                 6.2661                 4.2501
 Frc consts  --      0.0028                 0.0037                 0.0060
 IR Inten    --      1.6668                 2.2054                 1.5567

                      4                      5                      6
                      A                      A                      A
 Frequencies --     64.7194                78.1383                84.1201
 Red. masses --      3.2039                 6.9260                 5.9055
 Frc consts  --      0.0079                 0.0249                 0.0246
 IR Inten    --      3.6961                 5.8117                 1.8232

                      7                      8                      9
                      A                      A                      A
 Frequencies --    127.3601               176.4816               186.1845
 Red. masses --      1.2962                 6.4313                 2.4107
 Frc consts  --      0.0124                 0.1180                 0.0492
 IR Inten    --      1.1317                 2.9000                 1.0486

                     10                     11                     12
                      A                      A                      A
 Frequencies --    237.5077               242.6026               274.5532
 Red. masses --      7.6834                 5.6046                 7.0110
 Frc consts  --      0.2554                 0.1943                 0.3114
 IR Inten    --      9.5423                 0.3906                 0.5895

                     13                     14                     15
                      A                      A                      A
 Frequencies --    277.7728               317.8586               346.4831
 Red. masses --      3.2498                 6.2055                 5.7648
 Frc consts  --      0.1477                 0.3694                 0.4078
 IR Inten    --      3.3021                 5.8228                 1.5628

                     16                     17                     18
                      A                      A                      A
 Frequencies --    372.3673               409.1446               432.7751
 Red. masses --      7.1474                 5.4517                 3.2055
 Frc consts  --      0.5839                 0.5377                 0.3537
 IR Inten    --      0.8737                 6.6548                 1.6414

                     19                     20                     21
                      A                      A                      A
 Frequencies --    451.7259               501.6492               560.5049
 Red. masses --      4.6461                 5.4165                 4.2156
 Frc consts  --      0.5586                 0.8031                 0.7803
 IR Inten    --      9.9037                 0.6546                31.1299

                     22                     23                     24
                      A                      A                      A
 Frequencies --    588.8920               605.0547               609.6574
 Red. masses --      1.7079                 3.5342                 4.5039
 Frc consts  --      0.3490                 0.7623                 0.9863
 IR Inten    --     49.6029                12.4498                12.8899

                     25                     26                     27
                      A                      A                      A
 Frequencies --    664.2782               695.7073               709.1062
 Red. masses --      5.3919                 5.6753                 5.1855
 Frc consts  --      1.4018                 1.6184                 1.5363
 IR Inten    --      2.7249                 4.0943                 8.5469

                     28                     29                     30
                      A                      A                      A
 Frequencies --    713.0242               736.5729               758.7863
 Red. masses --      4.3178                 6.5528                 5.0786
 Frc consts  --      1.2934                 2.0946                 1.7228
 IR Inten    --     16.3966                 6.2861                 7.6399

                     31                     32                     33
                      A                      A                      A
 Frequencies --    773.1232               818.4592               828.2499
 Red. masses --      3.3406                 1.5112                 1.2724
 Frc consts  --      1.1765                 0.5964                 0.5143
 IR Inten    --     70.2159                14.2243               152.0232

                     34                     35                     36
                      A                      A                      A
 Frequencies --    835.0668               857.8335               867.9463
 Red. masses --      5.4646                 3.0659                 1.7008
 Frc consts  --      2.2452                 1.3293                 0.7549
 IR Inten    --     12.6675                 0.5652                57.9192

                     37                     38                     39
                      A                      A                      A
 Frequencies --    906.7642               919.2705               926.3381
 Red. masses --      1.5496                 1.2846                 4.0439
 Frc consts  --      0.7507                 0.6396                 2.0445
 IR Inten    --      6.2550                 0.5195                10.4298

                     40                     41                     42
                      A                      A                      A
 Frequencies --    969.0363               989.7598              1057.8287
 Red. masses --      6.3395                 3.3082                 1.7354
 Frc consts  --      3.5074                 1.9094                 1.1442
 IR Inten    --     45.0559                 4.2558                22.5483

                     43                     44                     45
                      A                      A                      A
 Frequencies --   1074.3997              1084.9492              1133.5918
 Red. masses --      4.4992                 1.4997                 1.9773
 Frc consts  --      3.0600                 1.0401                 1.4971
 IR Inten    --    123.8515                 8.9529                25.1531

                     46                     47                     48
                      A                      A                      A
 Frequencies --   1150.4503              1154.3275              1169.5061
 Red. masses --      1.5465                 2.4903                 2.1271
 Frc consts  --      1.2060                 1.9550                 1.7141
 IR Inten    --      8.2686                 6.7085                16.7379

                     49                     50                     51
                      A                      A                      A
 Frequencies --   1209.4734              1238.1676              1292.1253
 Red. masses --      1.0618                 2.1215                 1.5508
 Frc consts  --      0.9151                 1.9162                 1.5255
 IR Inten    --      2.9007               119.4292                25.3440

                     52                     53                     54
                      A                      A                      A
 Frequencies --   1295.4393              1309.9260              1338.8781
 Red. masses --      2.5853                 4.0463                 1.6794
 Frc consts  --      2.5562                 4.0907                 1.7737
 IR Inten    --     57.2237               243.7828                71.5275

                     55                     56                     57
                      A                      A                      A
 Frequencies --   1386.9312              1414.6850              1437.0943
 Red. masses --      3.7207                 2.4610                 1.3469
 Frc consts  --      4.2169                 2.9018                 1.6389
 IR Inten    --      9.3453               285.4036               117.9282

                     58                     59                     60
                      A                      A                      A
 Frequencies --   1449.0619              1449.5734              1485.1302
 Red. masses --      1.4129                 1.3562                 3.1358
 Frc consts  --      1.7480                 1.6790                 4.0750
 IR Inten    --      5.9985               108.5493                80.5621

                     61                     62                     63
                      A                      A                      A
 Frequencies --   1502.5653              1507.8563              1519.2143
 Red. masses --      2.9454                 1.1040                 1.0926
 Frc consts  --      3.9179                 1.4789                 1.4858
 IR Inten    --     22.8635                 8.8888                13.3693

                     64                     65                     66
                      A                      A                      A
 Frequencies --   1544.2123              1575.6162              1668.6982
 Red. masses --      3.1482                 1.1671                 7.0994
 Frc consts  --      4.4231                 1.7072                11.6473
 IR Inten    --    344.7473                 1.8903                 7.8272

                     67                     68                     69
                      A                      A                      A
 Frequencies --   1682.5297              1706.4010              1721.7516
 Red. masses --      7.8929                 8.0894                 7.3849
 Frc consts  --     13.1647                13.8781                12.8983
 IR Inten    --     18.0570               105.7836               409.5375

                     70                     71                     72
                      A                      A                      A
 Frequencies --   1831.8714              3049.0145              3053.6272
 Red. masses --      8.5378                 1.0623                 1.0403
 Frc consts  --     16.8806                 5.8188                 5.7151
 IR Inten    --    272.0019               121.7295                13.5490

                     73                     74                     75
                      A                      A                      A
 Frequencies --   3117.0360              3124.4649              3147.6959
 Red. masses --      1.0949                 1.1101                 1.1032
 Frc consts  --      6.2677                 6.3850                 6.4401
 IR Inten    --      8.4997                42.5639                10.0201

                     76                     77                     78
                      A                      A                      A
 Frequencies --   3197.2394              3209.8136              3235.6388
 Red. masses --      1.0894                 1.0898                 1.0940
 Frc consts  --      6.5610                 6.6156                 6.7484
 IR Inten    --      3.5603                 5.0665                 3.2995

                     79                     80                     81
                      A                      A                      A
 Frequencies --   3250.6912              3408.6578              3569.1737
 Red. masses --      1.0927                 1.0699                 1.0754
 Frc consts  --      6.8032                 7.3242                 8.0714
 IR Inten    --      0.0477               418.6603                41.1453

 - Thermochemistry -
 -------------------
 Temperature   298.150 Kelvin.  Pressure   1.00000 Atm.
 Atom     1 has atomic number  6 and mass  12.00000

 Molecular mass:   249.06372 amu.
 Principal axes and moments of inertia in atomic units:
                           1         2         3
     Eigenvalues --  2411.976967274.180288619.08807
           X            0.99996   0.00679  -0.00492
           Y           -0.00682   0.99997  -0.00471
           Z            0.00489   0.00474   0.99998
 This molecule is an asymmetric top.
 Rotational symmetry number  1.
 Warning -- assumption of classical behavior for rotation
           may cause significant error
 Rotational temperatures (Kelvin)      0.03591     0.01191     0.01005
 Rotational constants (GHZ):           0.74824     0.24810     0.20939
 Zero-point vibrational energy     578840.7 (Joules/Mol)
                                  138.34625 (Kcal/Mol)
 Warning -- explicit consideration of  24 degrees of freedom as
           vibrations may cause significant error
 Vibrational temperatures:     34.43    45.51    70.30    93.12   112.42
          (Kelvin)            121.03   183.24   253.92   267.88   341.72
                              349.05   395.02   399.65   457.33   498.51
                              535.75   588.67   622.67   649.93   721.76
                              806.44   847.28   870.54   877.16   955.75
                             1000.97  1020.25  1025.88  1059.76  1091.72
                             1112.35  1177.58  1191.67  1201.47  1234.23
                             1248.78  1304.63  1322.63  1332.79  1394.23
                             1424.04  1521.98  1545.82  1561.00  1630.99
                             1655.24  1660.82  1682.66  1740.16  1781.45
                             1859.08  1863.85  1884.69  1926.35  1995.48
                             2035.42  2067.66  2084.88  2085.61  2136.77
                             2161.86  2169.47  2185.81  2221.78  2266.96
                             2400.88  2420.78  2455.13  2477.22  2635.65
                             4386.85  4393.49  4484.72  4495.41  4528.83
                             4600.11  4618.21  4655.36  4677.02  4904.30
                             5135.24

 Zero-point correction=                           0.220469 (Hartree/Particle)
 Thermal correction to Energy=                    0.236457
 Thermal correction to Enthalpy=                  0.237401
 Thermal correction to Gibbs Free Energy=         0.174709
 Sum of electronic and zero-point Energies=           -894.588461
 Sum of electronic and thermal Energies=              -894.572472
 Sum of electronic and thermal Enthalpies=            -894.571528
 Sum of electronic and thermal Free Energies=         -894.634220

                     E (Thermal)             CV                S
                      KCal/Mol        Cal/Mol-Kelvin    Cal/Mol-Kelvin
 Total                  148.379             59.446            131.947
 Electronic               0.000              0.000              0.000
 Translational            0.889              2.981             42.438
 Rotational               0.889              2.981             33.380
 Vibrational            146.602             53.484             56.128
 Vibration     1          0.593              1.985              6.278
 Vibration     2          0.594              1.983              5.724
 Vibration     3          0.595              1.978              4.863
 Vibration     4          0.597              1.971              4.308
 Vibration     5          0.599              1.964              3.937
 Vibration     6          0.601              1.960              3.792
 Vibration     7          0.611              1.926              2.986
 Vibration     8          0.628              1.871              2.365
 Vibration     9          0.632              1.859              2.265
 Vibration    10          0.656              1.783              1.821
 Vibration    11          0.659              1.775              1.784
 Vibration    12          0.677              1.720              1.567
 Vibration    13          0.679              1.715              1.547
 Vibration    14          0.704              1.639              1.321
 Vibration    15          0.724              1.582              1.182
 Vibration    16          0.744              1.529              1.070
 Vibration    17          0.774              1.450              0.930
 Vibration    18          0.794              1.399              0.850
 Vibration    19          0.810              1.357              0.791
 Vibration    20          0.857              1.246              0.654
 Vibration    21          0.916              1.117              0.523
 Vibration    22          0.946              1.055              0.469
 Vibration    23          0.964              1.021              0.441
 Vibration    24          0.969              1.011              0.433

 Optimization completed.
    -- Stationary point found.
 Normal termination of Gaussian 16 at Fri Dec 11 19:07:06 2020.

 ----------------------------------------------------------------------
 # B3LYP/6-311++G(d,p) empiricaldispersion=gd3bj scf=xqc pop=npa geom=c
 heck
 ----------------------------------------------------------------------

 --------------------------------------
 CID_39116545_JID_8095_Energie_neutraal
 --------------------------------------
 Structure from the checkpoint file:  "JID_8095.chk"
 Charge =  0 Multiplicity = 1

 SCF Done:  E(RB3LYP) =  -895.071586775     A.U. after   16 cycles
 Normal termination of Gaussian 16 at Fri Dec 11 19:12:32 2020.

 ----------------------------------------------------------------------
 # B3LYP/6-311++G(d,p) empiricaldispersion=gd3bj scf=xqc pop=npa geom=c
 heck
 ----------------------------------------------------------------------

 ------------------------------------
 CID_39116545_JID_8095_Energie_kation
 ------------------------------------
 Structure from the checkpoint file:  "JID_8095.chk"
 Charge =  1 Multiplicity = 2

 SCF Done:  E(UB3LYP) =  -894.769738756     A.U. after   25 cycles
 Normal termination of Gaussian 16 at Fri Dec 11 19:24:39 2020.
 Gaussian 16:  ES64L-G16RevA.03 25-Dec-2016

 ----------------------------------------------------------------------
 # B3LYP/6-311++G(d,p) empiricaldispersion=gd3bj scf=xqc pop=npa geom=c
 heck
 ----------------------------------------------------------------------

 -----------------------------------
 CID_39116545_JID_8095_Energie_anion
 -----------------------------------
 Structure from the checkpoint file:  "JID_8095.chk"
 Charge = -1 Multiplicity = 2

                         Standard orientation:
 ---------------------------------------------------------------------
 Center     Atomic      Atomic             Coordinates (Angstroms)
 Number     Number       Type             X           Y           Z
 ---------------------------------------------------------------------
      1          6           0       -1.110696   -0.853207    2.193839
      2          6           0       -1.864580   -0.379827    0.974322
      3          6           0       -2.565972    0.766687    0.985095
      4          6           0       -3.338560    1.445045   -0.107509
      5          8           0       -3.405030    2.656735   -0.120965
      6          8           0       -3.951035    0.699258   -1.036674
      7          6           0       -1.864156   -1.313050   -0.206300
      8          8           0       -2.917286   -1.739946   -0.696470
      9          7           0       -0.664536   -1.747682   -0.683765
     10          6           0        0.629231   -1.200513   -0.451223
     11          6           0        0.821680    0.196602   -0.504962
     12          6           0        2.101472    0.649416   -0.266380
     13          6           0        3.165927   -0.218470   -0.021526
     14          6           0        2.993923   -1.587260    0.007973
     15          6           0        1.691323   -2.071214   -0.202169
     16          8           0        4.313967    0.503400    0.178563
     17          6           0        3.968928    1.870190   -0.087512
     18          8           0        2.544219    1.944566   -0.234376
     19          1           0       -1.252525   -0.156802    3.024251
     20          1           0       -0.038106   -0.952713    2.002700
     21          1           0       -1.477021   -1.839568    2.504870
     22          1           0       -2.512748    1.386634    1.876007
     23          1           0       -3.820202   -0.263923   -0.861023
     24          1           0       -0.759471   -2.447075   -1.412807
     25          1           0        0.008430    0.876953   -0.722524
     26          1           0        3.824328   -2.257119    0.198457
     27          1           0        1.500425   -3.138666   -0.161061
     28          1           0        4.279952    2.493814    0.754792
     29          1           0        4.448883    2.193741   -1.019827
 ---------------------------------------------------------------------

 SCF Done:  E(UB3LYP) =  -895.090380310     A.U. after   33 cycles
 SCF Done:  E(UB3LYP) =  -895.090380310     a.u. after    1 cycles

 The electronic state is 2-A.
 Alpha  occ. eigenvalues --  -19.08008 -19.07761 -18.99702 -18.95300 -18.93920
 Alpha  occ. eigenvalues --  -14.22004 -10.21058 -10.13691 -10.13413 -10.13290
 Alpha  occ. eigenvalues --  -10.12658 -10.10944 -10.08538 -10.07613 -10.06992
 Alpha  occ. eigenvalues --  -10.04479 -10.03753 -10.01788  -1.04239  -0.95142
 Alpha  occ. eigenvalues --   -0.93900  -0.90752  -0.85547  -0.81572  -0.75463
 Alpha  occ. eigenvalues --   -0.67154  -0.66483  -0.65427  -0.58834  -0.57053
 Alpha  occ. eigenvalues --   -0.53633  -0.53174  -0.50655  -0.46496  -0.44830
 Alpha  occ. eigenvalues --   -0.43916  -0.43486  -0.42317  -0.41340  -0.37904
 Alpha  occ. eigenvalues --   -0.35612  -0.35161  -0.33935  -0.32245  -0.31794
 Alpha  occ. eigenvalues --   -0.30811  -0.30209  -0.29793  -0.29545  -0.28811
 Alpha  occ. eigenvalues --   -0.28413  -0.28283  -0.27048  -0.26248  -0.25802
 Alpha  occ. eigenvalues --   -0.25003  -0.22907  -0.21603  -0.17036  -0.16455
 Alpha  occ. eigenvalues --   -0.14691  -0.13876  -0.12555  -0.11387  -0.10882
 Alpha  occ. eigenvalues --    0.03865
 Alpha virt. eigenvalues --    0.06441   0.07602   0.08247   0.09069   0.09167
 Alpha virt. eigenvalues --    0.09422   0.10003   0.11161   0.11256   0.12238
 Alpha virt. eigenvalues --    0.12795   0.13154   0.14101   0.14535   0.15263

  Beta  occ. eigenvalues --  -19.07994 -19.07745 -18.99666 -18.95002 -18.93719
  Beta  occ. eigenvalues --  -14.22020 -10.21057 -10.13629 -10.13351 -10.13221
  Beta  occ. eigenvalues --  -10.12374 -10.10877 -10.08551 -10.07633 -10.06884
  Beta  occ. eigenvalues --  -10.04491 -10.03510 -10.01512  -1.04201  -0.95099
  Beta  occ. eigenvalues --   -0.93724  -0.90224  -0.85271  -0.81354  -0.75343
  Beta  occ. eigenvalues --   -0.66786  -0.66165  -0.65343  -0.58713  -0.56649
  Beta  occ. eigenvalues --   -0.53498  -0.53025  -0.50067  -0.46287  -0.44705
  Beta  occ. eigenvalues --   -0.43852  -0.43340  -0.42176  -0.41188  -0.37665
  Beta  occ. eigenvalues --   -0.35492  -0.35100  -0.33766  -0.31835  -0.31324
  Beta  occ. eigenvalues --   -0.30535  -0.30074  -0.29714  -0.29186  -0.28566
  Beta  occ. eigenvalues --   -0.28307  -0.27788  -0.26733  -0.26129  -0.25284
  Beta  occ. eigenvalues --   -0.24727  -0.22553  -0.21305  -0.16510  -0.15764
  Beta  occ. eigenvalues --   -0.14224  -0.13264  -0.12048  -0.10387  -0.10102
  Beta virt. eigenvalues --    0.06400   0.07535   0.08377   0.08715   0.09117
  Beta virt. eigenvalues --    0.09412   0.09995   0.10587   0.11226   0.11748
  Beta virt. eigenvalues --    0.12281   0.12832   0.13259   0.14466   0.14756

 Mulliken charges and spin densities:
               1          2
     1  C   -0.770819  -0.022473
     2  C    1.299240   0.106292
     3  C   -0.314435   0.242557
     4  C   -0.238809   0.066959
     5  O   -0.340169   0.061259
     6  O   -0.192175   0.003028
     7  C   -0.867028   0.181914
     8  O   -0.357410   0.094088
     9  N   -0.161280  -0.015087
    10  C    0.075902  -0.184369
    11  C   -0.132462   0.002590
    12  C    0.054527   0.054896
    13  C   -0.015026   0.025189
    14  C   -0.369898  -0.001921
    15  C   -0.277682   0.249831
    16  O   -0.165399   0.004276
    17  C   -0.066938   0.002933
    18  O   -0.142209   0.001732
    19  H    0.107696   0.005605
    20  H    0.139091   0.025939
    21  H    0.148627   0.008208
    22  H    0.160560  -0.016851
    23  H    0.279781  -0.001109
    24  H    0.227678   0.068251
    25  H    0.292256   0.004905
    26  H    0.164450   0.001070
    27  H    0.135180   0.020797
    28  H    0.161272   0.008317
    29  H    0.165479   0.001174
 Sum of Mulliken charges =  -1.00000   1.00000

 Dipole moment (field-independent basis, Debye):
    X=             11.3798    Y=             -2.5785    Z=              1.0867  Tot=             11.7188
 Quadrupole moment (field-independent basis, Debye-Ang):
   XX=           -162.4514   YY=           -129.7462   ZZ=           -113.7311
   XY=             17.1842   XZ=             -7.3670   YZ=              0.9107

 Summary of Natural Population Analysis:

                                       Natural Population
                Natural  -----------------------------------------------
    Atom  No    Charge         Core      Valence    Rydberg      Total
 -----------------------------------------------------------------------
      C    1   -0.29403      0.99964     2.28890    0.00550     3.29403
      C    2   -0.00696      0.99946     1.99508    0.01242     3.00696
      C    3   -0.09597      0.99942     2.08752    0.00903     3.09597
      C    4    0.39157      0.99969     1.58394    0.02480     2.60843
      O    5   -0.30192      0.99987     3.29469    0.00736     4.30192
      O    6   -0.35834      0.99986     3.35120    0.00727     4.35834
      C    7    0.37925      0.99960     1.59846    0.02269     2.62075
      O    8   -0.31999      0.99987     3.31411    0.00602     4.31999
      N    9   -0.31785      0.99963     2.80735    0.01087     3.81785
      C   10    0.08370      0.99949     1.90581    0.01099     2.91630
      C   11   -0.12651      0.99948     2.11972    0.00730     3.12651
      C   12    0.14037      0.99934     1.84782    0.01247     2.85963
      C   13    0.13025      0.99934     1.85803    0.01238     2.86975
      C   14   -0.12751      0.99954     2.12037    0.00761     3.12751
      C   15   -0.09859      0.99953     2.08928    0.00979     3.09859
      O   16   -0.27623      0.99987     3.26891    0.00745     4.27623
      C   17    0.15554      0.99964     1.83187    0.01294     2.84446
      O   18   -0.26987      0.99987     3.26236    0.00764     4.26987
      H   19    0.09689      0.00000     0.40221    0.00091     0.40311
      H   20    0.10511      0.00000     0.39378    0.00111     0.39489
      H   21    0.09901      0.00000     0.40009    0.00091     0.40099
      H   22    0.09374      0.00000     0.40518    0.00107     0.40626
      H   23    0.25250      0.00000     0.24443    0.00307     0.24750
      H   24    0.19497      0.00000     0.30288    0.00214     0.30503
      H   25    0.12274      0.00000     0.37606    0.00120     0.37726
      H   26    0.10202      0.00000     0.39677    0.00121     0.39798
      H   27    0.10067      0.00000     0.39821    0.00112     0.39933
      H   28    0.07622      0.00000     0.42245    0.00134     0.42378
      H   29    0.06922      0.00000     0.42923    0.00155     0.43078
 =======================================================================
   * Total *   -0.00000     17.99313    46.79671    0.21015    65.00000

 Normal termination of Gaussian 16 at Fri Dec 11 19:40:42 2020.
