 Gaussian 16, Revision A.03,

 -----------------------------------------------------------
 # opt freq B3LYP/6-31G(d) empiricaldispersion=gd3bj scf=xqc
 -----------------------------------------------------------

 ------------------------------
 CID_20493174_JID_4184_neutraal
 ------------------------------
 Symbolic Z-matrix:
 Charge =  0 Multiplicity = 1

 SCF Done:  E(RB3LYP) =  -694.004707518     A.U. after   13 cycles
 SCF Done:  E(RB3LYP) =  -694.004388988     A.U. after   12 cycles
 SCF Done:  E(RB3LYP) =  -694.010328399     A.U. after   11 cycles
 SCF Done:  E(RB3LYP) =  -694.007381254     A.U. after   12 cycles
 SCF Done:  E(RB3LYP) =  -694.011431856     A.U. after   10 cycles
 SCF Done:  E(RB3LYP) =  -694.011685638     A.U. after   10 cycles
 SCF Done:  E(RB3LYP) =  -694.011728273     A.U. after   10 cycles
 SCF Done:  E(RB3LYP) =  -694.011747321     A.U. after   10 cycles
 SCF Done:  E(RB3LYP) =  -694.011758481     A.U. after    9 cycles
 SCF Done:  E(RB3LYP) =  -694.011762175     A.U. after    8 cycles
 SCF Done:  E(RB3LYP) =  -694.011762932     A.U. after    7 cycles
 SCF Done:  E(RB3LYP) =  -694.011763375     A.U. after    7 cycles
 Optimization completed.
    -- Stationary point found.
 Normal termination of Gaussian 16 at Thu Dec 10 09:18:42 2020.

 --------------------------------------------------------------------
 #N Geom=AllCheck Guess=TCheck SCRF=Check GenChk RB3LYP/6-31G(d) Freq
 --------------------------------------------------------------------

 Structure from the checkpoint file:  "JID_4184.chk"
 ------------------------------
 CID_20493174_JID_4184_neutraal
 ------------------------------
 Charge =  0 Multiplicity = 1

 SCF Done:  E(RB3LYP) =  -694.011763375     A.U. after    1 cycles

  Exact polarizability: 129.378  -8.253 131.701   4.395  -4.799 103.448
 Approx polarizability: 168.289 -11.675 170.460   4.988  -5.566 146.317

                      1                      2                      3
                      A                      A                      A
 Frequencies --     26.9550                45.4004                68.8724
 Red. masses --      3.3842                 3.3513                 2.8698
 Frc consts  --      0.0014                 0.0041                 0.0080
 IR Inten    --      0.0897                 0.0824                 0.1770

                      4                      5                      6
                      A                      A                      A
 Frequencies --     69.4798                85.0797               109.5435
 Red. masses --      3.8727                 3.6146                 3.0240
 Frc consts  --      0.0110                 0.0154                 0.0214
 IR Inten    --      0.2873                 0.6918                 3.4520

                      7                      8                      9
                      A                      A                      A
 Frequencies --    129.1018               166.4701               177.8272
 Red. masses --      3.8654                 2.6725                 2.1716
 Frc consts  --      0.0380                 0.0436                 0.0405
 IR Inten    --      6.3651                 2.7097                 1.5708

                     10                     11                     12
                      A                      A                      A
 Frequencies --    200.0849               224.9853               244.6983
 Red. masses --      2.3547                 1.2854                 1.1724
 Frc consts  --      0.0555                 0.0383                 0.0414
 IR Inten    --      0.6794                 0.4852                 0.0136

                     13                     14                     15
                      A                      A                      A
 Frequencies --    249.2845               253.8167               275.0757
 Red. masses --      1.2554                 1.2141                 2.2181
 Frc consts  --      0.0460                 0.0461                 0.0989
 IR Inten    --      0.0386                 0.7545                 0.9216

                     16                     17                     18
                      A                      A                      A
 Frequencies --    283.6970               320.9171               355.3098
 Red. masses --      2.5231                 2.2279                 2.5325
 Frc consts  --      0.1196                 0.1352                 0.1884
 IR Inten    --      1.0993                 0.9907                 1.4032

                     19                     20                     21
                      A                      A                      A
 Frequencies --    369.8308               402.4626               428.7063
 Red. masses --      3.5189                 3.0752                 3.1555
 Frc consts  --      0.2836                 0.2935                 0.3417
 IR Inten    --      2.7144                 5.6257                 1.9891

                     22                     23                     24
                      A                      A                      A
 Frequencies --    444.6532               517.5368               550.9701
 Red. masses --      3.8866                 3.0869                 3.1446
 Frc consts  --      0.4528                 0.4871                 0.5624
 IR Inten    --      8.0652                 7.8399                12.2538

                     25                     26                     27
                      A                      A                      A
 Frequencies --    566.5515               593.5522               679.5507
 Red. masses --      3.1403                 3.2788                 4.0538
 Frc consts  --      0.5939                 0.6806                 1.1030
 IR Inten    --      2.8078                 8.3733                 1.7042

                     28                     29                     30
                      A                      A                      A
 Frequencies --    717.6988               804.6575               826.1522
 Red. masses --      1.4462                 1.4426                 1.5617
 Frc consts  --      0.4389                 0.5503                 0.6280
 IR Inten    --      1.7065                 0.7698                 3.4870

                     31                     32                     33
                      A                      A                      A
 Frequencies --    842.7060               860.2609               867.6943
 Red. masses --      1.4189                 2.0928                 1.9499
 Frc consts  --      0.5937                 0.9125                 0.8650
 IR Inten    --     44.8478                17.4082                13.4198

                     34                     35                     36
                      A                      A                      A
 Frequencies --    889.2846               931.0519               959.4822
 Red. masses --      2.1038                 2.0866                 2.2648
 Frc consts  --      0.9802                 1.0657                 1.2284
 IR Inten    --      3.4291                 7.1843                64.4664

                     37                     38                     39
                      A                      A                      A
 Frequencies --    980.9443              1016.5747              1028.4085
 Red. masses --      3.0142                 1.1242                 2.1581
 Frc consts  --      1.7089                 0.6845                 1.3448
 IR Inten    --    146.7954                17.8077               117.3480

                     40                     41                     42
                      A                      A                      A
 Frequencies --   1074.7643              1092.6666              1105.0683
 Red. masses --      3.3002                 2.0037                 2.4060
 Frc consts  --      2.2461                 1.4095                 1.7311
 IR Inten    --    108.7203               134.9762                20.1394

                     43                     44                     45
                      A                      A                      A
 Frequencies --   1121.6448              1139.8506              1148.4196
 Red. masses --      2.1402                 2.2238                 2.1641
 Frc consts  --      1.5864                 1.7023                 1.6816
 IR Inten    --     46.3380                55.1648                50.5749

                     46                     47                     48
                      A                      A                      A
 Frequencies --   1153.1611              1169.0746              1172.2360
 Red. masses --      2.5840                 2.3001                 2.5882
 Frc consts  --      2.0245                 1.8522                 2.0954
 IR Inten    --    151.8472                60.1652               112.1643

                     49                     50                     51
                      A                      A                      A
 Frequencies --   1180.5705              1216.4282              1232.3345
 Red. masses --      3.6632                 2.5309                 2.8671
 Frc consts  --      3.0081                 2.2065                 2.5654
 IR Inten    --     99.3043               178.6993               226.9244

                     52                     53                     54
                      A                      A                      A
 Frequencies --   1234.5808              1343.0281              1368.5679
 Red. masses --      2.6752                 1.1146                 1.1692
 Frc consts  --      2.4024                 1.1845                 1.2903
 IR Inten    --     21.5010                14.9549                 1.4045

                     55                     56                     57
                      A                      A                      A
 Frequencies --   1378.3293              1398.7557              1407.6044
 Red. masses --      1.2769                 1.2317                 1.1994
 Frc consts  --      1.4293                 1.4198                 1.4001
 IR Inten    --     30.2314                33.3372                 7.4865

                     58                     59                     60
                      A                      A                      A
 Frequencies --   1411.8260              1416.9348              1431.4555
 Red. masses --      1.1772                 1.1946                 1.2316
 Frc consts  --      1.3825                 1.4131                 1.4869
 IR Inten    --     51.0147                23.6503                 5.8729

                     61                     62                     63
                      A                      A                      A
 Frequencies --   1438.7440              1442.0439              1442.8401
 Red. masses --      1.3413                 1.3321                 1.2924
 Frc consts  --      1.6358                 1.6321                 1.5853
 IR Inten    --      9.6613                64.5424                51.8110

                     64                     65                     66
                      A                      A                      A
 Frequencies --   1452.0554              1461.5826              1471.0182
 Red. masses --      1.3267                 1.2157                 1.1875
 Frc consts  --      1.6481                 1.5301                 1.5140
 IR Inten    --      5.1235                 5.1534                 9.8595

                     67                     68                     69
                      A                      A                      A
 Frequencies --   1510.1280              1511.4452              1515.4817
 Red. masses --      1.0445                 1.0494                 1.0483
 Frc consts  --      1.4034                 1.4124                 1.4185
 IR Inten    --      0.5794                 1.3541                 4.2436

                     70                     71                     72
                      A                      A                      A
 Frequencies --   1519.0209              1520.6142              1523.9861
 Red. masses --      1.0431                 1.0512                 1.0588
 Frc consts  --      1.4180                 1.4321                 1.4489
 IR Inten    --      4.5839                 4.4370                 0.4691

                     73                     74                     75
                      A                      A                      A
 Frequencies --   1525.7729              1530.5240              1543.9799
 Red. masses --      1.0592                 1.0570                 1.0768
 Frc consts  --      1.4528                 1.4588                 1.5124
 IR Inten    --      0.0545                 2.8198                 4.9528

                     76                     77                     78
                      A                      A                      A
 Frequencies --   1740.0313              3008.4032              3016.8705
 Red. masses --      4.3701                 1.0841                 1.0717
 Frc consts  --      7.7956                 5.7808                 5.7472
 IR Inten    --    129.1372                27.5977                29.8401

                     79                     80                     81
                      A                      A                      A
 Frequencies --   3031.6261              3035.3558              3057.0862
 Red. masses --      1.0836                 1.0823                 1.0368
 Frc consts  --      5.8679                 5.8754                 5.7091
 IR Inten    --     73.0438                53.1130                19.0249

                     82                     83                     84
                      A                      A                      A
 Frequencies --   3068.4931              3071.9358              3072.2534
 Red. masses --      1.0348                 1.0366                 1.0389
 Frc consts  --      5.7408                 5.7634                 5.7774
 IR Inten    --      4.9551                32.2609                 8.2528

                     85                     86                     87
                      A                      A                      A
 Frequencies --   3102.2965              3123.1211              3136.8671
 Red. masses --      1.0953                 1.1015                 1.1024
 Frc consts  --      6.2111                 6.3299                 6.3910
 IR Inten    --     20.0610                41.3648                20.1896

                     88                     89                     90
                      A                      A                      A
 Frequencies --   3141.7996              3143.2224              3147.8162
 Red. masses --      1.1032                 1.1031                 1.1032
 Frc consts  --      6.4161                 6.4210                 6.4403
 IR Inten    --     38.8905                29.7056                13.1811

                     91                     92                     93
                      A                      A                      A
 Frequencies --   3152.2690              3154.1999              3185.7170
 Red. masses --      1.1037                 1.1033                 1.0599
 Frc consts  --      6.4615                 6.4675                 6.3375
 IR Inten    --      5.1940                30.6066                 1.3652

                     94                     95                     96
                      A                      A                      A
 Frequencies --   3198.3998              3202.1080              3277.1710
 Red. masses --      1.0947                 1.0971                 1.1175
 Frc consts  --      6.5982                 6.6279                 7.0712
 IR Inten    --      5.7549                 3.0131                 7.6799

 - Thermochemistry -
 -------------------
 Temperature   298.150 Kelvin.  Pressure   1.00000 Atm.
 Atom     1 has atomic number  6 and mass  12.00000

 Molecular mass:   204.13616 amu.
 Principal axes and moments of inertia in atomic units:
                           1         2         3
     Eigenvalues --  2412.603333380.385644248.71766
           X            0.99986   0.00568   0.01591
           Y           -0.00523   0.99960  -0.02761
           Z           -0.01606   0.02753   0.99949
 This molecule is an asymmetric top.
 Rotational symmetry number  1.
 Warning -- assumption of classical behavior for rotation
           may cause significant error
 Rotational temperatures (Kelvin)      0.03590     0.02562     0.02039
 Rotational constants (GHZ):           0.74805     0.53389     0.42477
 Zero-point vibrational energy     784983.0 (Joules/Mol)
                                  187.61544 (Kcal/Mol)
 Warning -- explicit consideration of  26 degrees of freedom as
           vibrations may cause significant error
 Vibrational temperatures:     38.78    65.32    99.09    99.97   122.41
          (Kelvin)            157.61   185.75   239.51   255.85   287.88
                              323.70   352.07   358.66   365.19   395.77
                              408.18   461.73   511.21   532.10   579.05
                              616.81   639.76   744.62   792.72   815.14
                              853.99   977.72  1032.61  1157.72  1188.65
                             1212.47  1237.72  1248.42  1279.48  1339.58
                             1380.48  1411.36  1462.62  1479.65  1546.35
                             1572.10  1589.95  1613.80  1639.99  1652.32
                             1659.14  1682.04  1686.59  1698.58  1750.17
                             1773.05  1776.29  1932.32  1969.06  1983.11
                             2012.50  2025.23  2031.30  2038.65  2059.55
                             2070.03  2074.78  2075.93  2089.18  2102.89
                             2116.47  2172.74  2174.63  2180.44  2185.53
                             2187.82  2192.68  2195.25  2202.08  2221.44
                             2503.52  4328.42  4340.60  4361.83  4367.20
                             4398.47  4414.88  4419.83  4420.29  4463.51
                             4493.47  4513.25  4520.35  4522.40  4529.01
                             4535.41  4538.19  4583.54  4601.78  4607.12
                             4715.12

 Zero-point correction=                           0.298984 (Hartree/Particle)
 Thermal correction to Energy=                    0.315861
 Thermal correction to Enthalpy=                  0.316806
 Thermal correction to Gibbs Free Energy=         0.254200
 Sum of electronic and zero-point Energies=           -693.712779
 Sum of electronic and thermal Energies=              -693.695902
 Sum of electronic and thermal Enthalpies=            -693.694958
 Sum of electronic and thermal Free Energies=         -693.757563

                     E (Thermal)             CV                S
                      KCal/Mol        Cal/Mol-Kelvin    Cal/Mol-Kelvin
 Total                  198.206             61.518            131.765
 Electronic               0.000              0.000              0.000
 Translational            0.889              2.981             41.845
 Rotational               0.889              2.981             31.916
 Vibrational            196.429             55.556             58.003
 Vibration     1          0.593              1.984              6.042
 Vibration     2          0.595              1.979              5.008
 Vibration     3          0.598              1.969              4.185
 Vibration     4          0.598              1.969              4.168
 Vibration     5          0.601              1.960              3.770
 Vibration     6          0.606              1.942              3.277
 Vibration     7          0.612              1.924              2.959
 Vibration     8          0.624              1.884              2.475
 Vibration     9          0.628              1.870              2.351
 Vibration    10          0.638              1.840              2.132
 Vibration    11          0.650              1.803              1.919
 Vibration    12          0.660              1.772              1.768
 Vibration    13          0.662              1.764              1.736
 Vibration    14          0.665              1.756              1.704
 Vibration    15          0.677              1.719              1.564
 Vibration    16          0.682              1.704              1.511
 Vibration    17          0.706              1.633              1.305
 Vibration    18          0.731              1.564              1.143
 Vibration    19          0.742              1.534              1.080
 Vibration    20          0.768              1.465              0.954
 Vibration    21          0.790              1.408              0.863
 Vibration    22          0.804              1.373              0.812
 Vibration    23          0.873              1.211              0.616
 Vibration    24          0.906              1.138              0.542
 Vibration    25          0.922              1.104              0.511
 Vibration    26          0.951              1.046              0.461

                           ! Non-Optimized Parameters !
 Normal termination of Gaussian 16 at Thu Dec 10 09:28:39 2020.

 ----------------------------------------------------------------------
 # B3LYP/6-311++G(d,p) empiricaldispersion=gd3bj scf=xqc pop=npa geom=c
 heck
 ----------------------------------------------------------------------

 --------------------------------------
 CID_20493174_JID_4184_Energie_neutraal
 --------------------------------------
 Structure from the checkpoint file:  "JID_4184.chk"
 Charge =  0 Multiplicity = 1

 SCF Done:  E(RB3LYP) =  -694.217791083     A.U. after   13 cycles
 Normal termination of Gaussian 16 at Thu Dec 10 09:32:15 2020.

 ----------------------------------------------------------------------
 # B3LYP/6-311++G(d,p) empiricaldispersion=gd3bj scf=xqc pop=npa geom=c
 heck
 ----------------------------------------------------------------------

 ------------------------------------
 CID_20493174_JID_4184_Energie_kation
 ------------------------------------
 Structure from the checkpoint file:  "JID_4184.chk"
 Charge =  1 Multiplicity = 2

 SCF Done:  E(UB3LYP) =  -693.905719447     A.U. after   27 cycles
 Normal termination of Gaussian 16 at Thu Dec 10 09:42:08 2020.
 Gaussian 16:  ES64L-G16RevA.03 25-Dec-2016

 ----------------------------------------------------------------------
 # B3LYP/6-311++G(d,p) empiricaldispersion=gd3bj scf=xqc pop=npa geom=c
 heck
 ----------------------------------------------------------------------

 -----------------------------------
 CID_20493174_JID_4184_Energie_anion
 -----------------------------------
 Structure from the checkpoint file:  "JID_4184.chk"
 Charge = -1 Multiplicity = 2

                         Standard orientation:
 ---------------------------------------------------------------------
 Center     Atomic      Atomic             Coordinates (Angstroms)
 Number     Number       Type             X           Y           Z
 ---------------------------------------------------------------------
      1          6           0       -2.969351   -0.213106   -1.699951
      2          6           0       -2.238100   -1.478092   -1.264539
      3          8           0       -1.133061   -1.244367   -0.388233
      4          6           0       -1.468531   -0.873972    0.931026
      5          6           0       -0.499236   -1.518148    1.908638
      6          8           0       -1.534988    0.540864    1.115260
      7          6           0       -0.654046    1.368583    0.392881
      8          6           0       -0.870024    2.771894    0.934292
      9          8           0        0.700315    0.974347    0.566462
     10          6           0        1.457508    0.832900   -0.630652
     11          6           0        2.046846    2.155675   -1.085284
     12          8           0        2.535214   -0.027687   -0.366828
     13          6           0        2.235227   -1.363460   -0.297929
     14          6           0        3.130057   -2.258573    0.114311
     15          1           0       -3.363451    0.332375   -0.837320
     16          1           0       -2.299333    0.453221   -2.252943
     17          1           0       -3.807063   -0.474336   -2.356931
     18          1           0       -2.939014   -2.174547   -0.780596
     19          1           0       -1.807987   -1.990483   -2.130462
     20          1           0       -2.492241   -1.208045    1.148215
     21          1           0        0.523289   -1.196850    1.716685
     22          1           0       -0.774241   -1.224925    2.926141
     23          1           0       -0.558743   -2.608371    1.824627
     24          1           0       -0.891742    1.318214   -0.678201
     25          1           0       -0.249982    3.489105    0.389492
     26          1           0       -1.920718    3.060651    0.837578
     27          1           0       -0.590875    2.795869    1.991259
     28          1           0        0.808243    0.392970   -1.402988
     29          1           0        2.655546    2.575773   -0.279647
     30          1           0        2.674147    2.007936   -1.969300
     31          1           0        1.250630    2.863923   -1.333379
     32          1           0        1.226412   -1.625304   -0.608192
     33          1           0        2.872675   -3.311008    0.127434
     34          1           0        4.122498   -1.963628    0.438489
 ---------------------------------------------------------------------

 SCF Done:  E(UB3LYP) =  -694.203204870     A.U. after   32 cycles

 The electronic state is 2-A.
 Alpha  occ. eigenvalues --  -19.06322 -19.03750 -19.03661 -19.03272 -10.18670
 Alpha  occ. eigenvalues --  -10.17862 -10.17662 -10.13424 -10.11938 -10.07185
 Alpha  occ. eigenvalues --  -10.06698 -10.06600 -10.06230 -10.05614  -1.00409
 Alpha  occ. eigenvalues --   -0.98059  -0.94277  -0.90662  -0.70163  -0.68448
 Alpha  occ. eigenvalues --   -0.65178  -0.64024  -0.62748  -0.55317  -0.54324
 Alpha  occ. eigenvalues --   -0.52983  -0.50088  -0.48541  -0.44696  -0.43745
 Alpha  occ. eigenvalues --   -0.41492  -0.40724  -0.38213  -0.37343  -0.35139
 Alpha  occ. eigenvalues --   -0.33411  -0.33031  -0.32304  -0.31738  -0.31457
 Alpha  occ. eigenvalues --   -0.30553  -0.30022  -0.29636  -0.29202  -0.28931
 Alpha  occ. eigenvalues --   -0.28175  -0.27225  -0.26959  -0.26758  -0.24277
 Alpha  occ. eigenvalues --   -0.24140  -0.21319  -0.19637  -0.18210  -0.17181
 Alpha  occ. eigenvalues --   -0.14830   0.04534
 Alpha virt. eigenvalues --    0.06558   0.07335   0.07610   0.08587   0.08931
 Alpha virt. eigenvalues --    0.09253   0.09521   0.09875   0.10237   0.10990
 Alpha virt. eigenvalues --    0.11606   0.11816   0.12162   0.12791   0.13264

  Beta  occ. eigenvalues --  -19.06318 -19.03744 -19.03653 -19.03268 -10.18661
  Beta  occ. eigenvalues --  -10.17854 -10.17651 -10.13421 -10.11904 -10.07156
  Beta  occ. eigenvalues --  -10.06678 -10.06594 -10.06223 -10.05563  -1.00399
  Beta  occ. eigenvalues --   -0.98048  -0.94265  -0.90651  -0.70144  -0.68422
  Beta  occ. eigenvalues --   -0.65137  -0.63993  -0.62712  -0.55278  -0.54269
  Beta  occ. eigenvalues --   -0.52922  -0.50071  -0.48492  -0.44681  -0.43716
  Beta  occ. eigenvalues --   -0.41457  -0.40679  -0.38180  -0.37311  -0.35115
  Beta  occ. eigenvalues --   -0.33353  -0.33005  -0.32284  -0.31716  -0.31426
  Beta  occ. eigenvalues --   -0.30526  -0.30000  -0.29597  -0.29170  -0.28906
  Beta  occ. eigenvalues --   -0.28143  -0.27182  -0.26931  -0.26725  -0.24249
  Beta  occ. eigenvalues --   -0.24111  -0.21285  -0.19613  -0.18169  -0.17149
  Beta  occ. eigenvalues --   -0.14814
  Beta virt. eigenvalues --    0.06815   0.07375   0.07880   0.08127   0.08949
  Beta virt. eigenvalues --    0.09170   0.09501   0.09832   0.10223   0.10711
  Beta virt. eigenvalues --    0.11420   0.11951   0.12103   0.12586   0.13168

 Mulliken charges and spin densities:
               1          2
     1  C    0.711268  -1.103363
     2  C    0.601932  -0.762100
     3  O   -0.093261   0.043511
     4  C   -0.714733   0.364559
     5  C    0.346899  -0.741842
     6  O   -0.032994   0.035928
     7  C   -0.782533   0.600402
     8  C    0.900989  -1.534290
     9  O   -0.017196   0.015330
    10  C   -0.854777   0.591563
    11  C    0.733571  -1.242584
    12  O   -0.014017   0.012120
    13  C   -0.107571   0.203822
    14  C   -0.207260  -0.165705
    15  H    0.089028   0.068175
    16  H   -0.516258   0.660142
    17  H   -1.207003   1.391723
    18  H   -0.084810   0.216035
    19  H   -0.392072   0.544349
    20  H   -0.497579   0.662304
    21  H    0.199365   0.045030
    22  H    0.172425  -0.018323
    23  H   -0.011719   0.158193
    24  H    1.001149  -0.829322
    25  H   -0.017447   0.157506
    26  H   -0.121688   0.280686
    27  H    0.049698   0.105055
    28  H    0.121390   0.103468
    29  H    0.047475   0.130392
    30  H   -0.086760   0.245938
    31  H   -0.581182   0.734660
    32  H    0.207358  -0.041388
    33  H    0.061697   0.060628
    34  H    0.096617   0.007397
 Sum of Mulliken charges =  -1.00000   1.00000

 Dipole moment (field-independent basis, Debye):
    X=              5.6677    Y=             -0.8629    Z=              5.6373  Tot=              8.0404
 Quadrupole moment (field-independent basis, Debye-Ang):
   XX=           -155.2177   YY=           -133.2166   ZZ=           -136.1173
   XY=             -8.3764   XZ=            -12.8060   YZ=              0.7914

 Summary of Natural Population Analysis:

                                       Natural Population
                Natural  -----------------------------------------------
    Atom  No    Charge         Core      Valence    Rydberg      Total
 -----------------------------------------------------------------------
      C    1   -0.30268      0.99966     2.29726    0.00576     3.30268
      C    2   -0.00620      0.99958     1.99391    0.01271     3.00620
      O    3   -0.31306      0.99987     3.30254    0.01065     4.31306
      C    4    0.22258      0.99957     1.75900    0.01885     2.77742
      C    5   -0.30224      0.99962     2.29623    0.00638     3.30224
      O    6   -0.31134      0.99987     3.30232    0.00916     4.31134
      C    7    0.21410      0.99956     1.76788    0.01846     2.78590
      C    8   -0.29333      0.99963     2.28740    0.00631     3.29333
      O    9   -0.31190      0.99986     3.30383    0.00821     4.31190
      C   10    0.21966      0.99956     1.76269    0.01809     2.78034
      C   11   -0.29986      0.99963     2.29358    0.00665     3.29986
      O   12   -0.28171      0.99985     3.27192    0.00994     4.28171
      C   13    0.08018      0.99947     1.90775    0.01261     2.91982
      C   14   -0.24552      0.99959     2.23867    0.00726     3.24552
      H   15    0.10186      0.00000     0.39654    0.00161     0.39814
      H   16    0.09977      0.00000     0.39805    0.00218     0.40023
      H   17    0.10659      0.00000     0.39039    0.00302     0.39341
      H   18    0.07957      0.00000     0.41844    0.00199     0.42043
      H   19    0.09065      0.00000     0.40755    0.00180     0.40935
      H   20    0.07789      0.00000     0.42045    0.00166     0.42211
      H   21    0.11403      0.00000     0.38470    0.00127     0.38597
      H   22    0.10037      0.00000     0.39889    0.00074     0.39963
      H   23    0.09871      0.00000     0.40032    0.00097     0.40129
      H   24    0.07437      0.00000     0.42255    0.00308     0.42563
      H   25    0.10090      0.00000     0.39817    0.00094     0.39910
      H   26    0.10423      0.00000     0.39477    0.00100     0.39577
      H   27    0.10303      0.00000     0.39599    0.00099     0.39697
      H   28    0.07639      0.00000     0.42050    0.00310     0.42361
      H   29    0.10427      0.00000     0.39458    0.00115     0.39573
      H   30    0.10484      0.00000     0.39413    0.00104     0.39516
      H   31    0.10418      0.00000     0.39451    0.00131     0.39582
      H   32    0.09630      0.00000     0.40127    0.00243     0.40370
      H   33    0.09791      0.00000     0.40130    0.00079     0.40209
      H   34    0.09547      0.00000     0.40342    0.00111     0.40453
 =======================================================================
   * Total *    0.00000     13.99533    41.82144    0.18323    56.00000

 Normal termination of Gaussian 16 at Thu Dec 10 09:53:39 2020.
