 Gaussian 16, Revision A.03,

 -----------------------------------------------------------
 # opt freq B3LYP/6-31G(d) empiricaldispersion=gd3bj scf=xqc
 -----------------------------------------------------------

 ------------------------------
 CID_146784967_JID_596_neutraal
 ------------------------------
 Symbolic Z-matrix:
 Charge =  0 Multiplicity = 1

 SCF Done:  E(RB3LYP) =  -420.348712786     A.U. after   14 cycles
 SCF Done:  E(RB3LYP) =  -420.351592633     A.U. after   12 cycles
 SCF Done:  E(RB3LYP) =  -420.351834166     A.U. after   11 cycles
 SCF Done:  E(RB3LYP) =  -420.351912728     A.U. after   11 cycles
 SCF Done:  E(RB3LYP) =  -420.351942824     A.U. after   10 cycles
 SCF Done:  E(RB3LYP) =  -420.351978213     A.U. after   11 cycles
 SCF Done:  E(RB3LYP) =  -420.351993686     A.U. after   10 cycles
 SCF Done:  E(RB3LYP) =  -420.352007363     A.U. after   10 cycles
 SCF Done:  E(RB3LYP) =  -420.352012070     A.U. after   10 cycles
 SCF Done:  E(RB3LYP) =  -420.352012282     A.U. after    8 cycles
 Optimization completed.
    -- Stationary point found.

 1\1\GINC-NODE357\FOpt\RB3LYP\6-31G(d)\C8H10N2\VSC10255\08-Dec-2020\0\\
 # opt freq B3LYP/6-31G(d) empiricaldispersion=gd3bj scf=xqc\\CID_14678
 4967_JID_596_neutraal\\0,1\C,0.8897478261,-0.0892143052,-0.0157392884\
 C,1.3906712921,-0.6295740679,1.3453097761\C,0.9904377965,0.307270194,2
 .5292967805\C,2.1715634987,0.6423018336,3.4063911121\C,2.8587770443,1.
 7727487183,3.1844348304\C,2.450563574,2.6356490734,2.0646395869\N,1.32
 26179774,2.5733607223,1.4619166682\C,0.3514068066,1.627048316,2.039775
 2624\N,-0.7399271395,1.3852144931,1.090889695\C,-0.4487868737,0.588324

 Normal termination of Gaussian 16 at Tue Dec  8 12:13:48 2020.

 --------------------------------------------------------------------
 #N Geom=AllCheck Guess=TCheck SCRF=Check GenChk RB3LYP/6-31G(d) Freq
 --------------------------------------------------------------------

 Structure from the checkpoint file:  "JID_596.chk"
 ------------------------------
 CID_146784967_JID_596_neutraal
 ------------------------------
 Charge =  0 Multiplicity = 1

 SCF Done:  E(RB3LYP) =  -420.352012282     A.U. after    1 cycles

  Exact polarizability: 105.400  -1.184  79.962   2.792  -4.222  70.961
 Approx polarizability: 149.475  -1.365 131.319   6.442  -7.998 116.219

                      1                      2                      3
                      A                      A                      A
 Frequencies --     61.3487               138.8857               209.0437
 Red. masses --      2.4156                 3.6105                 3.3862
 Frc consts  --      0.0054                 0.0410                 0.0872
 IR Inten    --      0.1657                 2.9574                 2.0284

                      4                      5                      6
                      A                      A                      A
 Frequencies --    282.7849               394.1643               404.0302
 Red. masses --      2.7721                 2.7776                 5.1892
 Frc consts  --      0.1306                 0.2543                 0.4991
 IR Inten    --      0.9174                 0.5526                 1.4304

                      7                      8                      9
                      A                      A                      A
 Frequencies --    454.5610               507.9036               583.9093
 Red. masses --      3.4430                 2.9584                 6.2645
 Frc consts  --      0.4191                 0.4497                 1.2584
 IR Inten    --      0.7230                 2.5170                 0.3799

                     10                     11                     12
                      A                      A                      A
 Frequencies --    603.5339               653.3538               736.0104
 Red. masses --      5.6466                 3.0444                 2.1928
 Frc consts  --      1.2118                 0.7657                 0.6999
 IR Inten    --      2.0159                 1.0593                11.9641

                     13                     14                     15
                      A                      A                      A
 Frequencies --    747.6609               789.7283               842.3380
 Red. masses --      2.0134                 1.7964                 1.9258
 Frc consts  --      0.6631                 0.6601                 0.8051
 IR Inten    --      5.1234                18.9254                 0.6614

                     16                     17                     18
                      A                      A                      A
 Frequencies --    894.8091               925.7027               929.1739
 Red. masses --      3.3935                 2.7985                 2.5549
 Frc consts  --      1.6009                 1.4129                 1.2996
 IR Inten    --      6.8602                 3.8563                16.9262

                     19                     20                     21
                      A                      A                      A
 Frequencies --    947.5208               978.4984               989.5092
 Red. masses --      2.2087                 1.7971                 1.5652
 Frc consts  --      1.1683                 1.0138                 0.9029
 IR Inten    --      1.3731                14.6410                 0.9008

                     22                     23                     24
                      A                      A                      A
 Frequencies --   1002.2538              1023.9626              1051.2143
 Red. masses --      1.8187                 2.3602                 2.6294
 Frc consts  --      1.0764                 1.4580                 1.7119
 IR Inten    --      3.9089                 6.2081                 7.2059

                     25                     26                     27
                      A                      A                      A
 Frequencies --   1083.7373              1100.4499              1118.3927
 Red. masses --      2.5116                 2.3335                 3.7313
 Frc consts  --      1.7380                 1.6649                 2.7498
 IR Inten    --      6.6580                30.9982                10.5776

                     28                     29                     30
                      A                      A                      A
 Frequencies --   1194.4758              1207.8678              1259.1835
 Red. masses --      1.1347                 1.1582                 1.2269
 Frc consts  --      0.9539                 0.9956                 1.1461
 IR Inten    --      2.6720                 0.1447                 5.8923

                     31                     32                     33
                      A                      A                      A
 Frequencies --   1305.6317              1329.7666              1348.6624
 Red. masses --      1.2230                 1.3271                 1.2070
 Frc consts  --      1.2283                 1.3827                 1.2935
 IR Inten    --      2.5005                 4.6065                 0.9869

                     34                     35                     36
                      A                      A                      A
 Frequencies --   1358.8246              1378.6178              1389.8919
 Red. masses --      1.4824                 1.2846                 1.4030
 Frc consts  --      1.6127                 1.4385                 1.5969
 IR Inten    --      3.0428                20.0091                 4.3809

                     37                     38                     39
                      A                      A                      A
 Frequencies --   1399.6990              1412.6637              1433.6668
 Red. masses --      1.2958                 1.3091                 1.6314
 Frc consts  --      1.4957                 1.5393                 1.9756
 IR Inten    --      5.3507                 0.8394                10.2614

                     40                     41                     42
                      A                      A                      A
 Frequencies --   1502.3250              1530.4155              1652.5874
 Red. masses --      1.0868                 1.0860                 8.9117
 Frc consts  --      1.4452                 1.4987                14.3398
 IR Inten    --      7.1913                 1.6965                30.6897

                     43                     44                     45
                      A                      A                      A
 Frequencies --   1725.5878              1740.8776              3026.0636
 Red. masses --      6.3788                 8.1802                 1.0844
 Frc consts  --     11.1909                14.6067                 5.8504
 IR Inten    --     35.9905                46.5829                36.9465

                     46                     47                     48
                      A                      A                      A
 Frequencies --   3053.7062              3065.3026              3075.4630
 Red. masses --      1.0625                 1.0692                 1.0780
 Frc consts  --      5.8377                 5.9192                 6.0077
 IR Inten    --      9.9916                22.0932                18.7966

                     49                     50                     51
                      A                      A                      A
 Frequencies --   3097.4918              3111.3228              3117.7837
 Red. masses --      1.0968                 1.0969                 1.0920
 Frc consts  --      6.2002                 6.2564                 6.2539
 IR Inten    --     24.1931                27.4998                91.3123

                     52                     53                     54
                      A                      A                      A
 Frequencies --   3118.8788              3176.0850              3204.3971
 Red. masses --      1.0977                 1.0871                 1.0975
 Frc consts  --      6.2911                 6.4611                 6.6399
 IR Inten    --     30.3684                10.3663                26.9693

 - Thermochemistry -
 -------------------
 Temperature   298.150 Kelvin.  Pressure   1.00000 Atm.
 Atom     1 has atomic number  6 and mass  12.00000

 Molecular mass:   134.08440 amu.
 Principal axes and moments of inertia in atomic units:
                           1         2         3
     Eigenvalues --   724.036951350.260001611.79101
           X            0.99981  -0.01493  -0.01271
           Y            0.01484   0.99986  -0.00751
           Z            0.01282   0.00732   0.99989
 This molecule is an asymmetric top.
 Rotational symmetry number  1.
 Warning -- assumption of classical behavior for rotation
           may cause significant error
 Rotational temperatures (Kelvin)      0.11963     0.06415     0.05374
 Rotational constants (GHZ):           2.49261     1.33659     1.11971
 Zero-point vibrational energy     446636.1 (Joules/Mol)
                                  106.74858 (Kcal/Mol)
 Warning -- explicit consideration of  10 degrees of freedom as
           vibrations may cause significant error
 Vibrational temperatures:     88.27   199.83   300.77   406.86   567.11
          (Kelvin)            581.31   654.01   730.76   840.12   868.35
                              940.03  1058.95  1075.72  1136.24  1211.94
                             1287.43  1331.88  1336.87  1363.27  1407.84
                             1423.68  1442.02  1473.25  1512.46  1559.26
                             1583.30  1609.12  1718.58  1737.85  1811.68
                             1878.51  1913.24  1940.42  1955.05  1983.52
                             1999.74  2013.85  2032.51  2062.73  2161.51
                             2201.93  2377.70  2482.74  2504.73  4353.83
                             4393.60  4410.29  4424.91  4456.60  4476.50
                             4485.80  4487.37  4569.68  4610.41

 Zero-point correction=                           0.170115 (Hartree/Particle)
 Thermal correction to Energy=                    0.177900
 Thermal correction to Enthalpy=                  0.178844
 Thermal correction to Gibbs Free Energy=         0.137377
 Sum of electronic and zero-point Energies=           -420.181898
 Sum of electronic and thermal Energies=              -420.174112
 Sum of electronic and thermal Enthalpies=            -420.173168
 Sum of electronic and thermal Free Energies=         -420.214636

                     E (Thermal)             CV                S
                      KCal/Mol        Cal/Mol-Kelvin    Cal/Mol-Kelvin
 Total                  111.634             31.107             87.275
 Electronic               0.000              0.000              0.000
 Translational            0.889              2.981             40.592
 Rotational               0.889              2.981             28.845
 Vibrational            109.856             25.146             17.838
 Vibration     1          0.597              1.973              4.413
 Vibration     2          0.614              1.914              2.819
 Vibration     3          0.642              1.827              2.052
 Vibration     4          0.682              1.706              1.517
 Vibration     5          0.761              1.483              0.984
 Vibration     6          0.769              1.461              0.948
 Vibration     7          0.813              1.351              0.782
 Vibration     8          0.863              1.232              0.639
 Vibration     9          0.941              1.066              0.478
 Vibration    10          0.962              1.024              0.444

 Optimization completed.
    -- Stationary point found.

 1\1\GINC-NODE357\Freq\RB3LYP\6-31G(d)\C8H10N2\VSC10255\08-Dec-2020\0\\
 #N Geom=AllCheck Guess=TCheck SCRF=Check GenChk RB3LYP/6-31G(d) Freq\\
 CID_146784967_JID_596_neutraal\\0,1\C,0.8897478261,-0.0892143052,-0.01
 57392884\C,1.3906712921,-0.6295740679,1.3453097761\C,0.9904377965,0.30
 7270194,2.5292967805\C,2.1715634987,0.6423018336,3.4063911121\C,2.8587
 770443,1.7727487183,3.1844348304\C,2.450563574,2.6356490734,2.06463958
 69\N,1.3226179774,2.5733607223,1.4619166682\C,0.3514068066,1.627048316
 ,2.0397752624\N,-0.7399271395,1.3852144931,1.090889695\C,-0.4487868737

 Normal termination of Gaussian 16 at Tue Dec  8 12:17:52 2020.

 ----------------------------------------------------------------------
 # B3LYP/6-311++G(d,p) empiricaldispersion=gd3bj scf=xqc pop=npa geom=c
 heck
 ----------------------------------------------------------------------

 --------------------------------------
 CID_146784967_JID_596_Energie_neutraal
 --------------------------------------
 Structure from the checkpoint file:  "JID_596.chk"
 Charge =  0 Multiplicity = 1

 SCF Done:  E(RB3LYP) =  -420.462942452     A.U. after   14 cycles
 Normal termination of Gaussian 16 at Tue Dec  8 12:20:35 2020.

 ----------------------------------------------------------------------
 # B3LYP/6-311++G(d,p) empiricaldispersion=gd3bj scf=xqc pop=npa geom=c
 heck
 ----------------------------------------------------------------------

 ------------------------------------
 CID_146784967_JID_596_Energie_kation
 ------------------------------------
 Structure from the checkpoint file:  "JID_596.chk"
 Charge =  1 Multiplicity = 2

 SCF Done:  E(UB3LYP) =  -420.149829552     A.U. after   23 cycles
 Normal termination of Gaussian 16 at Tue Dec  8 12:26:39 2020.
 Gaussian 16:  ES64L-G16RevA.03 25-Dec-2016

 -----------------------------------
 CID_146784967_JID_596_Energie_anion
 -----------------------------------
 Structure from the checkpoint file:  "JID_596.chk"
 Charge = -1 Multiplicity = 2

                         Standard orientation:
 ---------------------------------------------------------------------
 Center     Atomic      Atomic             Coordinates (Angstroms)
 Number     Number       Type             X           Y           Z
 ---------------------------------------------------------------------
      1          6           0       -1.717873    0.581408    0.989615
      2          6           0       -0.693008    1.531860    0.325040
      3          6           0        0.178723    0.797207   -0.742696
      4          6           0        1.652476    1.043087   -0.532471
      5          6           0        2.374268    0.161356    0.175345
      6          6           0        1.689518   -1.006675    0.751536
      7          7           0        0.533496   -1.429103    0.398571
      8          6           0       -0.069128   -0.728678   -0.749875
      9          7           0       -1.497187   -1.048579   -0.840371
     10          6           0       -2.232890   -0.426532   -0.007448
     11          1           0       -1.222573    0.026108    1.796193
     12          1           0       -2.541234    1.146009    1.438483
     13          1           0       -1.227696    2.358239   -0.153982
     14          1           0       -0.056049    1.971441    1.098232
     15          1           0       -0.111989    1.159266   -1.734137
     16          1           0        2.090351    1.969006   -0.899259
     17          1           0        3.424674    0.321210    0.401627
     18          1           0        2.188304   -1.540949    1.564681
     19          1           0        0.415316   -1.145307   -1.644005
     20          1           0       -3.305772   -0.639444   -0.029504
 ---------------------------------------------------------------------

 SCF Done:  E(UB3LYP) =  -420.461534775     A.U. after   33 cycles
 SCF Done:  E(UB3LYP) =  -420.461534775     a.u. after    1 cycles

 The electronic state is 2-A.
 Alpha  occ. eigenvalues --  -14.16297 -14.11929 -10.07595 -10.06775 -10.04440
 Alpha  occ. eigenvalues --  -10.03615 -10.03231 -10.03007 -10.00442 -10.00298
 Alpha  occ. eigenvalues --   -0.80151  -0.74130  -0.65949  -0.62028  -0.59489
 Alpha  occ. eigenvalues --   -0.50632  -0.48557  -0.44738  -0.39981  -0.37183
 Alpha  occ. eigenvalues --   -0.34934  -0.32511  -0.31446  -0.29653  -0.28288
 Alpha  occ. eigenvalues --   -0.26866  -0.23994  -0.23611  -0.22897  -0.20885
 Alpha  occ. eigenvalues --   -0.18992  -0.17364  -0.15994  -0.11359  -0.09029
 Alpha  occ. eigenvalues --   -0.08338   0.05680
 Alpha virt. eigenvalues --    0.08140   0.09705   0.10194   0.10728   0.11717
 Alpha virt. eigenvalues --    0.11930   0.12551   0.12655   0.13529   0.14075
 Alpha virt. eigenvalues --    0.15059   0.18002   0.18801   0.19130   0.19796

  Beta  occ. eigenvalues --  -14.16281 -14.11511 -10.07598 -10.06794 -10.04422
  Beta  occ. eigenvalues --  -10.03541 -10.03251 -10.02841 -10.00403  -9.99849
  Beta  occ. eigenvalues --   -0.79984  -0.73623  -0.65667  -0.61689  -0.59163
  Beta  occ. eigenvalues --   -0.50469  -0.48315  -0.44096  -0.39732  -0.36971
  Beta  occ. eigenvalues --   -0.34786  -0.32333  -0.31251  -0.29497  -0.28017
  Beta  occ. eigenvalues --   -0.26710  -0.23776  -0.23524  -0.22502  -0.20599
  Beta  occ. eigenvalues --   -0.18751  -0.16289  -0.15433  -0.11144  -0.08153
  Beta  occ. eigenvalues --   -0.07050
  Beta virt. eigenvalues --    0.08411   0.09680   0.10354   0.10713   0.11582
  Beta virt. eigenvalues --    0.11740   0.12324   0.12720   0.12820   0.13593
  Beta virt. eigenvalues --    0.14178   0.15174   0.17871   0.18785   0.19245

 Mulliken charges and spin densities:
               1          2
     1  C   -0.465793   0.333992
     2  C    0.611156  -1.234409
     3  C   -0.087459   0.711977
     4  C   -0.393800   0.214664
     5  C   -0.117490   0.085065
     6  C   -0.307092   0.102742
     7  N   -0.098405   0.216757
     8  C   -0.250999  -0.688880
     9  N    0.005513   0.032281
    10  C   -0.008404  -0.050672
    11  H    0.180949  -0.021902
    12  H   -0.070813   0.203005
    13  H   -0.389108   0.511511
    14  H    0.124271   0.019454
    15  H   -0.033253   0.237627
    16  H   -0.001351   0.089609
    17  H    0.086517   0.002825
    18  H    0.113802  -0.011954
    19  H    0.105027   0.091897
    20  H   -0.003267   0.154410
 Sum of Mulliken charges =  -1.00000   1.00000

 Dipole moment (field-independent basis, Debye):
    X=             -0.4644    Y=              0.9772    Z=              1.5529  Tot=              1.8927
 Quadrupole moment (field-independent basis, Debye-Ang):
   XX=            -84.2002   YY=            -89.9057   ZZ=            -73.7661
   XY=              2.7985   XZ=             -3.0611   YZ=              0.3186

 Summary of Natural Population Analysis:

                                       Natural Population
                Natural  -----------------------------------------------
    Atom  No    Charge         Core      Valence    Rydberg      Total
 -----------------------------------------------------------------------
      C    1   -0.23254      0.99962     2.22424    0.00868     3.23254
      C    2   -0.17783      0.99961     2.16849    0.00972     3.17783
      C    3   -0.14094      0.99957     2.12949    0.01188     3.14094
      C    4    0.01305      0.99953     1.97491    0.01252     2.98695
      C    5   -0.15244      0.99951     2.14335    0.00958     3.15244
      C    6    0.06586      0.99962     1.91920    0.01533     2.93414
      N    7   -0.19932      0.99969     2.68690    0.01273     3.69932
      C    8    0.05568      0.99954     1.92650    0.01828     2.94432
      N    9   -0.22295      0.99971     2.71039    0.01286     3.72295
      C   10    0.06761      0.99963     1.91544    0.01732     2.93239
      H   11    0.11558      0.00000     0.38317    0.00125     0.38442
      H   12    0.09522      0.00000     0.40357    0.00121     0.40478
      H   13    0.09523      0.00000     0.40301    0.00176     0.40477
      H   14    0.09959      0.00000     0.39940    0.00101     0.40041
      H   15    0.10373      0.00000     0.39423    0.00204     0.39627
      H   16    0.08388      0.00000     0.41522    0.00091     0.41612
      H   17    0.09124      0.00000     0.40781    0.00095     0.40876
      H   18    0.07139      0.00000     0.42672    0.00189     0.42861
      H   19    0.09286      0.00000     0.40475    0.00238     0.40714
      H   20    0.07511      0.00000     0.42355    0.00134     0.42489
 =======================================================================
   * Total *    0.00000      9.99602    25.86033    0.14365    36.00000

 Normal termination of Gaussian 16 at Tue Dec  8 12:32:36 2020.
