 Gaussian 16, Revision A.03,

 -----------------------------------------------------------
 # opt freq B3LYP/6-31G(d) empiricaldispersion=gd3bj scf=xqc
 -----------------------------------------------------------

 ----------------------------
 CID_790905_JID_6934_neutraal
 ----------------------------
 Symbolic Z-matrix:
 Charge =  0 Multiplicity = 1

 SCF Done:  E(RB3LYP) =  -1033.83996179     A.U. after   15 cycles
 SCF Done:  E(RB3LYP) =  -1033.84355669     A.U. after   13 cycles
 SCF Done:  E(RB3LYP) =  -1033.84414985     A.U. after   12 cycles
 SCF Done:  E(RB3LYP) =  -1033.84466089     A.U. after   12 cycles
 SCF Done:  E(RB3LYP) =  -1033.84486181     A.U. after   12 cycles
 SCF Done:  E(RB3LYP) =  -1033.84494027     A.U. after   12 cycles
 SCF Done:  E(RB3LYP) =  -1033.84501307     A.U. after   11 cycles
 SCF Done:  E(RB3LYP) =  -1033.84503641     A.U. after   10 cycles
 SCF Done:  E(RB3LYP) =  -1033.84504576     A.U. after   10 cycles
 SCF Done:  E(RB3LYP) =  -1033.84504764     A.U. after    9 cycles
 SCF Done:  E(RB3LYP) =  -1033.84505101     A.U. after   10 cycles
 SCF Done:  E(RB3LYP) =  -1033.84505186     A.U. after   10 cycles
 SCF Done:  E(RB3LYP) =  -1033.84505212     A.U. after    8 cycles
 SCF Done:  E(RB3LYP) =  -1033.84505223     A.U. after    8 cycles
 SCF Done:  E(RB3LYP) =  -1033.84505225     A.U. after    7 cycles
 Optimization completed.
    -- Stationary point found.
 Normal termination of Gaussian 16 at Fri Dec 11 01:14:45 2020.

 --------------------------------------------------------------------
 #N Geom=AllCheck Guess=TCheck SCRF=Check GenChk RB3LYP/6-31G(d) Freq
 --------------------------------------------------------------------

 Structure from the checkpoint file:  "JID_6934.chk"
 ----------------------------
 CID_790905_JID_6934_neutraal
 ----------------------------
 Charge =  0 Multiplicity = 1

 SCF Done:  E(RB3LYP) =  -1033.84505225     A.U. after    1 cycles

  Exact polarizability: 197.740   8.712 160.867 -18.271   6.472 105.858
 Approx polarizability: 251.425  17.172 293.095 -32.529  15.993 173.651

                      1                      2                      3
                      A                      A                      A
 Frequencies --     11.7086                33.9204                44.3956
 Red. masses --      5.4477                 3.8092                 4.9649
 Frc consts  --      0.0004                 0.0026                 0.0058
 IR Inten    --      0.2752                 0.1132                 2.1404

                      4                      5                      6
                      A                      A                      A
 Frequencies --     56.7295                88.3930               104.9623
 Red. masses --      4.8027                 4.2219                 4.7982
 Frc consts  --      0.0091                 0.0194                 0.0311
 IR Inten    --      0.5442                 0.4424                 3.0791

                      7                      8                      9
                      A                      A                      A
 Frequencies --    134.3843               177.9672               185.0826
 Red. masses --      3.0203                 4.6547                 4.2262
 Frc consts  --      0.0321                 0.0869                 0.0853
 IR Inten    --      1.1438                 0.3433                 3.5217

                     10                     11                     12
                      A                      A                      A
 Frequencies --    246.5617               282.6120               321.0948
 Red. masses --      2.4818                 2.4844                 2.4047
 Frc consts  --      0.0889                 0.1169                 0.1461
 IR Inten    --      2.2808                 0.6748                 2.8109

                     13                     14                     15
                      A                      A                      A
 Frequencies --    352.6831               390.7333               424.3565
 Red. masses --      2.1683                 5.2361                 2.7788
 Frc consts  --      0.1589                 0.4710                 0.2948
 IR Inten    --      0.4239                 4.4190                 2.4124

                     16                     17                     18
                      A                      A                      A
 Frequencies --    443.3453               465.6108               494.4316
 Red. masses --      2.3604                 3.7996                 3.6766
 Frc consts  --      0.2734                 0.4853                 0.5296
 IR Inten    --      5.6879                 2.4297                 0.1845

                     19                     20                     21
                      A                      A                      A
 Frequencies --    507.9215               562.8746               579.7817
 Red. masses --      5.5641                 2.5034                 3.4279
 Frc consts  --      0.8457                 0.4673                 0.6789
 IR Inten    --      5.1157                 4.6041                 3.5820

                     22                     23                     24
                      A                      A                      A
 Frequencies --    606.1689               621.9686               697.1251
 Red. masses --      5.3553                 2.1165                 6.2365
 Frc consts  --      1.1594                 0.4824                 1.7857
 IR Inten    --     28.9882                 3.4550                10.5516

                     25                     26                     27
                      A                      A                      A
 Frequencies --    721.6409               735.3034               760.8995
 Red. masses --      1.3546                 2.0481                 5.9306
 Frc consts  --      0.4156                 0.6524                 2.0230
 IR Inten    --     53.2548                10.4316                 3.6550

                     28                     29                     30
                      A                      A                      A
 Frequencies --    771.4169               820.4768               830.9792
 Red. masses --      2.6523                 1.6830                 1.5615
 Frc consts  --      0.9299                 0.6675                 0.6353
 IR Inten    --      9.4059                81.8374                44.1108

                     31                     32                     33
                      A                      A                      A
 Frequencies --    843.2850               861.8016               871.8127
 Red. masses --      1.8217                 1.3524                 2.5458
 Frc consts  --      0.7633                 0.5918                 1.1400
 IR Inten    --      4.9785                 4.4171                15.5484

                     34                     35                     36
                      A                      A                      A
 Frequencies --    873.7644               900.7767               921.0975
 Red. masses --      2.8746                 1.9116                 1.3475
 Frc consts  --      1.2931                 0.9139                 0.6736
 IR Inten    --      6.8203                17.8456                 2.4279

                     37                     38                     39
                      A                      A                      A
 Frequencies --    925.8318               942.1356               953.5661
 Red. masses --      2.3020                 2.4527                 1.3501
 Frc consts  --      1.1626                 1.2827                 0.7233
 IR Inten    --     11.7272                 8.0013                 6.5698

                     40                     41                     42
                      A                      A                      A
 Frequencies --    996.1170              1029.2322              1063.3374
 Red. masses --      2.7054                 1.9948                 1.8047
 Frc consts  --      1.5816                 1.2450                 1.2023
 IR Inten    --      5.0163                 5.0609                 9.9429

                     43                     44                     45
                      A                      A                      A
 Frequencies --   1074.0527              1094.2034              1108.2865
 Red. masses --      2.0865                 1.9254                 1.7710
 Frc consts  --      1.4181                 1.3582                 1.2816
 IR Inten    --      4.3430                 9.3555                 3.8434

                     46                     47                     48
                      A                      A                      A
 Frequencies --   1113.1882              1122.4089              1145.0660
 Red. masses --      1.6336                 1.4035                 2.8172
 Frc consts  --      1.1927                 1.0418                 2.1764
 IR Inten    --      1.9313                 2.3487                34.1845

                     49                     50                     51
                      A                      A                      A
 Frequencies --   1170.3774              1178.0089              1208.2162
 Red. masses --      1.5174                 1.7839                 1.3632
 Frc consts  --      1.2246                 1.4585                 1.1725
 IR Inten    --     10.5597                 2.2344                 4.2606

                     52                     53                     54
                      A                      A                      A
 Frequencies --   1234.9432              1261.9380              1274.6103
 Red. masses --      1.2359                 1.4094                 1.4534
 Frc consts  --      1.1105                 1.3224                 1.3912
 IR Inten    --     12.6389                39.2806                45.0069

                     55                     56                     57
                      A                      A                      A
 Frequencies --   1283.4247              1310.1829              1357.9152
 Red. masses --      1.2918                 1.1670                 1.4055
 Frc consts  --      1.2537                 1.1803                 1.5269
 IR Inten    --      2.0672                 1.4393                39.9914

                     58                     59                     60
                      A                      A                      A
 Frequencies --   1367.7743              1379.0883              1388.8743
 Red. masses --      1.7851                 1.4338                 1.4098
 Frc consts  --      1.9676                 1.6067                 1.6022
 IR Inten    --    144.9082                17.5772                 1.5461

                     61                     62                     63
                      A                      A                      A
 Frequencies --   1396.3541              1400.7111              1403.7496
 Red. masses --      1.9277                 1.7304                 1.6506
 Frc consts  --      2.2145                 2.0003                 1.9163
 IR Inten    --      2.0963                 4.9766                 6.5788

                     64                     65                     66
                      A                      A                      A
 Frequencies --   1416.8231              1426.1267              1478.9000
 Red. masses --      1.8286                 1.6896                 4.2244
 Frc consts  --      2.1627                 2.0246                 5.4437
 IR Inten    --     89.7710                 2.1681               121.8160

                     67                     68                     69
                      A                      A                      A
 Frequencies --   1501.4374              1503.0154              1509.8192
 Red. masses --      1.4430                 1.1027                 1.0927
 Frc consts  --      1.9166                 1.4677                 1.4676
 IR Inten    --     16.6853                 1.0727                 5.1098

                     70                     71                     72
                      A                      A                      A
 Frequencies --   1513.0923              1519.9662              1523.2293
 Red. masses --      1.1062                 1.0900                 1.1181
 Frc consts  --      1.4922                 1.4837                 1.5284
 IR Inten    --      7.9842                 4.1378                13.2426

                     73                     74                     75
                      A                      A                      A
 Frequencies --   1531.3167              1586.1574              1743.0249
 Red. masses --      1.1016                 5.2214                 6.6972
 Frc consts  --      1.5220                 7.7399                11.9880
 IR Inten    --      2.6705                31.5794                11.3112

                     76                     77                     78
                      A                      A                      A
 Frequencies --   1748.2744              3004.9257              3009.9434
 Red. masses --      7.6845                 1.0666                 1.0701
 Frc consts  --     13.8384                 5.6743                 5.7122
 IR Inten    --    204.4459                25.7814                26.7833

                     79                     80                     81
                      A                      A                      A
 Frequencies --   3027.9859              3034.6833              3036.0875
 Red. masses --      1.0745                 1.0680                 1.0643
 Frc consts  --      5.8044                 5.7948                 5.7803
 IR Inten    --     14.7678                 8.9802                38.1093

                     82                     83                     84
                      A                      A                      A
 Frequencies --   3044.7479              3055.4875              3068.1968
 Red. masses --      1.0812                 1.0882                 1.0759
 Frc consts  --      5.9054                 5.9858                 5.9673
 IR Inten    --     42.1537                52.1508                20.5956

                     85                     86                     87
                      A                      A                      A
 Frequencies --   3082.7231              3086.4943              3090.7828
 Red. masses --      1.0966                 1.1040                 1.0960
 Frc consts  --      6.1400                 6.1965                 6.1687
 IR Inten    --     68.6971                52.8791                47.9409

                     88                     89                     90
                      A                      A                      A
 Frequencies --   3158.3042              3165.7388              3222.8050
 Red. masses --      1.0898                 1.0938                 1.0886
 Frc consts  --      6.4050                 6.4585                 6.6616
 IR Inten    --     16.2552                16.1130                 8.4527

                     91                     92                     93
                      A                      A                      A
 Frequencies --   3238.3479              3268.6906              3526.3293
 Red. masses --      1.0954                 1.0970                 1.0734
 Frc consts  --      6.7684                 6.9058                 7.8640
 IR Inten    --      3.2409                 0.9947                36.9633

 - Thermochemistry -
 -------------------
 Temperature   298.150 Kelvin.  Pressure   1.00000 Atm.
 Atom     1 has atomic number  6 and mass  12.00000

 Molecular mass:   235.10309 amu.
 Principal axes and moments of inertia in atomic units:
                           1         2         3
     Eigenvalues --  1412.111938684.930149363.17576
           X            0.99997   0.00818  -0.00085
           Y           -0.00817   0.99994   0.00785
           Z            0.00092  -0.00784   0.99997
 This molecule is an asymmetric top.
 Rotational symmetry number  1.
 Warning -- assumption of classical behavior for rotation
           may cause significant error
 Rotational temperatures (Kelvin)      0.06134     0.00997     0.00925
 Rotational constants (GHZ):           1.27804     0.20780     0.19275
 Zero-point vibrational energy     736033.1 (Joules/Mol)
                                  175.91612 (Kcal/Mol)
 Warning -- explicit consideration of  22 degrees of freedom as
           vibrations may cause significant error
 Vibrational temperatures:     16.85    48.80    63.88    81.62   127.18
          (Kelvin)            151.02   193.35   256.06   266.29   354.75
                              406.62   461.98   507.43   562.18   610.55
                              637.87   669.91   711.38   730.79   809.85
                              834.18   872.14   894.87  1003.01  1038.28
                             1057.94  1094.76  1109.90  1180.48  1195.59
                             1213.30  1239.94  1254.34  1257.15  1296.02
                             1325.25  1332.07  1355.52  1371.97  1433.19
                             1480.84  1529.91  1545.32  1574.31  1594.58
                             1601.63  1614.90  1647.49  1683.91  1694.89
                             1738.35  1776.81  1815.65  1833.88  1846.56
                             1885.06  1953.74  1967.92  1984.20  1998.28
                             2009.04  2015.31  2019.68  2038.49  2051.88
                             2127.81  2160.23  2162.50  2172.29  2177.00
                             2186.89  2191.59  2203.22  2282.13  2507.82
                             2515.38  4323.42  4330.64  4356.60  4366.23
                             4368.25  4380.71  4396.17  4414.45  4435.35
                             4440.78  4446.95  4544.10  4554.79  4636.90
                             4659.26  4702.92  5073.60

 Zero-point correction=                           0.280340 (Hartree/Particle)
 Thermal correction to Energy=                    0.295479
 Thermal correction to Enthalpy=                  0.296424
 Thermal correction to Gibbs Free Energy=         0.234975
 Sum of electronic and zero-point Energies=          -1033.564712
 Sum of electronic and thermal Energies=             -1033.549573
 Sum of electronic and thermal Enthalpies=           -1033.548629
 Sum of electronic and thermal Free Energies=        -1033.610078

                     E (Thermal)             CV                S
                      KCal/Mol        Cal/Mol-Kelvin    Cal/Mol-Kelvin
 Total                  185.416             57.762            129.330
 Electronic               0.000              0.000              0.000
 Translational            0.889              2.981             42.266
 Rotational               0.889              2.981             33.107
 Vibrational            183.639             51.801             53.957
 Vibration     1          0.593              1.987              7.698
 Vibration     2          0.594              1.983              5.586
 Vibration     3          0.595              1.980              5.053
 Vibration     4          0.596              1.975              4.568
 Vibration     5          0.601              1.957              3.695
 Vibration     6          0.605              1.945              3.360
 Vibration     7          0.613              1.919              2.882
 Vibration     8          0.628              1.869              2.350
 Vibration     9          0.631              1.860              2.277
 Vibration    10          0.661              1.768              1.755
 Vibration    11          0.682              1.706              1.518
 Vibration    12          0.707              1.633              1.305
 Vibration    13          0.729              1.570              1.154
 Vibration    14          0.758              1.490              0.997
 Vibration    15          0.786              1.417              0.877
 Vibration    16          0.803              1.376              0.816
 Vibration    17          0.823              1.326              0.750
 Vibration    18          0.850              1.262              0.672
 Vibration    19          0.863              1.232              0.639
 Vibration    20          0.919              1.112              0.518
 Vibration    21          0.936              1.075              0.486
 Vibration    22          0.965              1.019              0.439

 Optimization completed.
    -- Stationary point found.
 Normal termination of Gaussian 16 at Fri Dec 11 01:25:16 2020.

 ----------------------------------------------------------------------
 # B3LYP/6-311++G(d,p) empiricaldispersion=gd3bj scf=xqc pop=npa geom=c
 heck
 ----------------------------------------------------------------------

 ------------------------------------
 CID_790905_JID_6934_Energie_neutraal
 ------------------------------------
 Structure from the checkpoint file:  "JID_6934.chk"
 Charge =  0 Multiplicity = 1

 SCF Done:  E(RB3LYP) =  -1034.04651694     A.U. after   16 cycles
 Normal termination of Gaussian 16 at Fri Dec 11 01:30:24 2020.

 ----------------------------------------------------------------------
 # B3LYP/6-311++G(d,p) empiricaldispersion=gd3bj scf=xqc pop=npa geom=c
 heck
 ----------------------------------------------------------------------

 ----------------------------------
 CID_790905_JID_6934_Energie_kation
 ----------------------------------
 Structure from the checkpoint file:  "JID_6934.chk"
 Charge =  1 Multiplicity = 2

 SCF Done:  E(UB3LYP) =  -1033.74562659     A.U. after   31 cycles
 Normal termination of Gaussian 16 at Fri Dec 11 01:43:25 2020.
 Gaussian 16:  ES64L-G16RevA.03 25-Dec-2016

 ----------------------------------------------------------------------
 # B3LYP/6-311++G(d,p) empiricaldispersion=gd3bj scf=xqc pop=npa geom=c
 heck
 ----------------------------------------------------------------------

 ---------------------------------
 CID_790905_JID_6934_Energie_anion
 ---------------------------------
 Structure from the checkpoint file:  "JID_6934.chk"
 Charge = -1 Multiplicity = 2

                         Standard orientation:
 ---------------------------------------------------------------------
 Center     Atomic      Atomic             Coordinates (Angstroms)
 Number     Number       Type             X           Y           Z
 ---------------------------------------------------------------------
      1          6           0       -4.905987   -0.683436   -0.162047
      2          6           0       -4.579057    0.679437    0.456447
      3          6           0       -3.442500    1.360702   -0.315063
      4          6           0       -2.289740    0.423158   -0.606637
      5          6           0       -2.411286   -0.907197   -0.486107
      6          6           0       -3.686036   -1.611752   -0.096981
      7          6           0       -0.975428    1.066028   -0.980141
      8          6           0       -0.154782    1.487789    0.258518
      9          7           0        0.174060    0.344658    1.114019
     10          6           0        1.158325   -0.578020    0.804291
     11          8           0        0.979913   -1.784462    0.955555
     12          6           0        2.463327   -0.055263    0.340130
     13          6           0        3.094854    1.143207    0.585910
     14          6           0        4.397500    1.212162    0.017869
     15          6           0        4.737348    0.062472   -0.648612
     16         16           0        3.488424   -1.129474   -0.573255
     17          1           0       -5.762034   -1.145429    0.343259
     18          1           0       -5.195660   -0.538452   -1.211896
     19          1           0       -5.465282    1.324609    0.471638
     20          1           0       -4.271700    0.535992    1.501781
     21          1           0       -3.823027    1.765093   -1.266477
     22          1           0       -3.076544    2.233415    0.244668
     23          1           0       -1.541905   -1.536880   -0.673663
     24          1           0       -3.578175   -2.022142    0.919246
     25          1           0       -3.836347   -2.483511   -0.747816
     26          1           0       -0.364345    0.374415   -1.571995
     27          1           0       -1.150009    1.957199   -1.599058
     28          1           0        0.767125    1.972467   -0.061174
     29          1           0       -0.714269    2.210607    0.862964
     30          1           0       -0.660885   -0.161719    1.400460
     31          1           0        2.651640    1.931450    1.183020
     32          1           0        5.051911    2.072230    0.104866
     33          1           0        5.657775   -0.150396   -1.175780
 ---------------------------------------------------------------------

 SCF Done:  E(UB3LYP) =  -1034.04719102     A.U. after   33 cycles
 SCF Done:  E(UB3LYP) =  -1034.04719102     a.u. after    1 cycles

 The electronic state is 2-A.
 Alpha  occ. eigenvalues --  -88.73493 -18.94692 -14.19888 -10.12758 -10.09620
 Alpha  occ. eigenvalues --  -10.07586 -10.07557 -10.07415 -10.07383 -10.07374
 Alpha  occ. eigenvalues --  -10.06855 -10.06183 -10.05971 -10.05638 -10.04978
 Alpha  occ. eigenvalues --  -10.04157  -7.82135  -5.78422  -5.78059  -5.77764
 Alpha  occ. eigenvalues --   -0.90022  -0.79485  -0.74672  -0.74334  -0.67837
 Alpha  occ. eigenvalues --   -0.64829  -0.61790  -0.60527  -0.60335  -0.54050
 Alpha  occ. eigenvalues --   -0.52342  -0.49710  -0.48529  -0.43181  -0.41773
 Alpha  occ. eigenvalues --   -0.40930  -0.39069  -0.37771  -0.37354  -0.35313
 Alpha  occ. eigenvalues --   -0.34003  -0.32934  -0.32540  -0.31389  -0.30109
 Alpha  occ. eigenvalues --   -0.29443  -0.28649  -0.27620  -0.27569  -0.27253
 Alpha  occ. eigenvalues --   -0.25881  -0.25406  -0.25053  -0.23903  -0.23486
 Alpha  occ. eigenvalues --   -0.22520  -0.21315  -0.20745  -0.14529  -0.14090
 Alpha  occ. eigenvalues --   -0.13011  -0.11897  -0.11155   0.04288
 Alpha virt. eigenvalues --    0.05564   0.07340   0.07958   0.08100   0.08634
 Alpha virt. eigenvalues --    0.09656   0.09849   0.10174   0.10669   0.11016
 Alpha virt. eigenvalues --    0.11775   0.12100   0.12754   0.13283   0.13752

  Beta  occ. eigenvalues --  -88.73437 -18.94475 -14.19862 -10.12573 -10.09610
  Beta  occ. eigenvalues --  -10.07573 -10.07553 -10.07401 -10.07373 -10.07368
  Beta  occ. eigenvalues --  -10.06850 -10.06177 -10.05682 -10.05467 -10.05055
  Beta  occ. eigenvalues --  -10.04001  -7.82085  -5.78396  -5.78034  -5.77583
  Beta  occ. eigenvalues --   -0.89631  -0.79342  -0.74441  -0.74252  -0.67802
  Beta  occ. eigenvalues --   -0.64807  -0.61684  -0.60262  -0.59885  -0.53999
  Beta  occ. eigenvalues --   -0.52283  -0.49476  -0.48262  -0.42973  -0.41650
  Beta  occ. eigenvalues --   -0.40749  -0.38949  -0.37687  -0.37249  -0.35278
  Beta  occ. eigenvalues --   -0.33958  -0.32879  -0.32434  -0.31197  -0.29973
  Beta  occ. eigenvalues --   -0.29394  -0.28527  -0.27465  -0.27246  -0.26860
  Beta  occ. eigenvalues --   -0.25714  -0.25248  -0.24791  -0.23862  -0.22785
  Beta  occ. eigenvalues --   -0.22441  -0.21055  -0.20663  -0.14304  -0.13801
  Beta  occ. eigenvalues --   -0.12340  -0.11268  -0.09864
  Beta virt. eigenvalues --    0.06181   0.07554   0.08039   0.08149   0.08797
  Beta virt. eigenvalues --    0.08999   0.09712   0.09812   0.10241   0.10755
  Beta virt. eigenvalues --    0.11106   0.11735   0.12098   0.12872   0.13236

 Mulliken charges and spin densities:
               1          2
     1  C    0.004463  -0.262698
     2  C   -0.134198  -0.221891
     3  C    0.021552  -0.509054
     4  C    0.410648   0.230332
     5  C   -0.699218   0.441697
     6  C   -0.033141  -0.660469
     7  C   -0.241772  -0.119415
     8  C   -0.040753  -0.231198
     9  N   -0.023759   0.006335
    10  C   -1.001325   0.087589
    11  O   -0.374585   0.080073
    12  C    0.071892   0.042219
    13  C    1.087278   0.209705
    14  C   -0.957755  -0.054567
    15  C    0.299723   0.179689
    16  S   -0.504809   0.115036
    17  H   -0.172084   0.327979
    18  H    0.060925   0.067369
    19  H   -0.422903   0.595704
    20  H    0.164621  -0.039067
    21  H   -0.096830   0.271775
    22  H    0.059729   0.062009
    23  H    0.184217   0.060558
    24  H    0.112427   0.040156
    25  H    0.101816   0.033403
    26  H    0.124336   0.039411
    27  H   -0.016656   0.192993
    28  H    0.085769   0.035294
    29  H    0.162735   0.014124
    30  H    0.304231  -0.010577
    31  H    0.159284  -0.015140
    32  H    0.097306   0.005196
    33  H    0.206836  -0.014570
 Sum of Mulliken charges =  -1.00000   1.00000

 Dipole moment (field-independent basis, Debye):
    X=             -0.3752    Y=              2.0214    Z=             -0.5724  Tot=              2.1342
 Quadrupole moment (field-independent basis, Debye-Ang):
   XX=           -187.0572   YY=           -130.0227   ZZ=           -122.4658
   XY=             10.9798   XZ=             -5.4413   YZ=              5.6878

 Summary of Natural Population Analysis:

                                       Natural Population
                Natural  -----------------------------------------------
    Atom  No    Charge         Core      Valence    Rydberg      Total
 -----------------------------------------------------------------------
      C    1   -0.18891      0.99964     2.18117    0.00811     3.18891
      C    2   -0.18866      0.99964     2.18003    0.00899     3.18866
      C    3   -0.20356      0.99958     2.19464    0.00934     3.20356
      C    4   -0.01258      0.99948     2.00270    0.01040     3.01258
      C    5   -0.10214      0.99945     2.09315    0.00954     3.10214
      C    6   -0.20402      0.99962     2.19515    0.00925     3.20402
      C    7   -0.20817      0.99958     2.19960    0.00899     3.20817
      C    8   -0.08507      0.99961     2.07385    0.01161     3.08507
      N    9   -0.32770      0.99969     2.81799    0.01002     3.82770
      C   10    0.34757      0.99958     1.63146    0.02139     2.65243
      O   11   -0.30589      0.99988     3.30084    0.00517     4.30589
      C   12   -0.12384      0.99945     2.11006    0.01433     3.12384
      C   13   -0.09730      0.99950     2.08636    0.01145     3.09730
      C   14   -0.15791      0.99954     2.14882    0.00955     3.15791
      C   15   -0.14772      0.99956     2.13694    0.01123     3.14772
      S   16    0.23564      4.99943     2.74321    0.02172     7.76436
      H   17    0.09732      0.00000     0.40174    0.00094     0.40268
      H   18    0.09386      0.00000     0.40500    0.00114     0.40614
      H   19    0.09927      0.00000     0.39944    0.00130     0.40073
      H   20    0.09199      0.00000     0.40683    0.00118     0.40801
      H   21    0.10081      0.00000     0.39785    0.00134     0.39919
      H   22    0.09965      0.00000     0.39916    0.00119     0.40035
      H   23    0.10555      0.00000     0.39268    0.00178     0.39445
      H   24    0.09914      0.00000     0.39968    0.00118     0.40086
      H   25    0.10008      0.00000     0.39900    0.00093     0.39992
      H   26    0.10621      0.00000     0.39246    0.00133     0.39379
      H   27    0.09894      0.00000     0.39995    0.00112     0.40106
      H   28    0.10698      0.00000     0.39177    0.00125     0.39302
      H   29    0.08677      0.00000     0.41217    0.00106     0.41323
      H   30    0.18811      0.00000     0.31013    0.00176     0.31189
      H   31    0.10133      0.00000     0.39778    0.00089     0.39867
      H   32    0.09744      0.00000     0.40157    0.00099     0.40256
      H   33    0.09685      0.00000     0.40226    0.00089     0.40315
 =======================================================================
   * Total *    0.00000     19.99324    42.80542    0.20134    63.00000

 Normal termination of Gaussian 16 at Fri Dec 11 01:57:35 2020.
