 Gaussian 16, Revision A.03,

 -----------------------------------------------------------
 # opt freq B3LYP/6-31G(d) empiricaldispersion=gd3bj scf=xqc
 -----------------------------------------------------------

 -------------------------------
 CID_123192980_JID_2078_neutraal
 -------------------------------
 Symbolic Z-matrix:
 Charge =  0 Multiplicity = 1

 SCF Done:  E(RB3LYP) =  -515.010132126     A.U. after   15 cycles
 SCF Done:  E(RB3LYP) =  -515.018334843     A.U. after   13 cycles
 SCF Done:  E(RB3LYP) =  -515.009068937     A.U. after   15 cycles
 SCF Done:  E(RB3LYP) =  -515.018651443     A.U. after   13 cycles
 SCF Done:  E(RB3LYP) =  -515.021248345     A.U. after   15 cycles
 SCF Done:  E(RB3LYP) =  -515.022492628     A.U. after   13 cycles
 SCF Done:  E(RB3LYP) =  -515.023589517     A.U. after   13 cycles
 SCF Done:  E(RB3LYP) =  -515.023601253     A.U. after   15 cycles
 SCF Done:  E(RB3LYP) =  -515.024750183     A.U. after   12 cycles
 SCF Done:  E(RB3LYP) =  -515.025133364     A.U. after   12 cycles
 SCF Done:  E(RB3LYP) =  -515.026044440     A.U. after   11 cycles
 SCF Done:  E(RB3LYP) =  -515.026048672     A.U. after    8 cycles
 SCF Done:  E(RB3LYP) =  -515.026050080     A.U. after    8 cycles
 SCF Done:  E(RB3LYP) =  -515.026050744     A.U. after    8 cycles
 SCF Done:  E(RB3LYP) =  -515.026050883     A.U. after    7 cycles
 SCF Done:  E(RB3LYP) =  -515.026051027     A.U. after    8 cycles
 Optimization completed.
    -- Stationary point found.

 1\1\GINC-NODE316\FOpt\RB3LYP\6-31G(d)\C9H13N3\VSC10255\09-Dec-2020\0\\
 # opt freq B3LYP/6-31G(d) empiricaldispersion=gd3bj scf=xqc\\CID_12319
 2980_JID_2078_neutraal\\0,1\C,1.471820181,-0.1109420262,-0.4163960485\
 C,0.4303640929,0.9683314079,-0.6163467917\C,-0.8734054412,0.652816934,
 -0.7321716674\C,0.8703782911,2.3515808831,-0.8370409889\C,1.8991132614
 ,3.0414401849,-0.2775960366\C,2.790538206,2.8261424854,0.8914767766\N,
 3.742681982,3.7173305931,0.9599297796\C,3.55985218,4.6078480377,-0.099
 7956938\C,4.3749393172,5.6335860436,-0.4045241826\N,2.3638936178,4.266

 Normal termination of Gaussian 16 at Wed Dec  9 16:49:49 2020.

 --------------------------------------------------------------------
 #N Geom=AllCheck Guess=TCheck SCRF=Check GenChk RB3LYP/6-31G(d) Freq
 --------------------------------------------------------------------

 Structure from the checkpoint file:  "JID_2078.chk"
 -------------------------------
 CID_123192980_JID_2078_neutraal
 -------------------------------
 Charge =  0 Multiplicity = 1

 SCF Done:  E(RB3LYP) =  -515.026051027     A.U. after    1 cycles

  Exact polarizability: 243.984  -1.371 105.712  14.092  -9.088  70.053
 Approx polarizability: 446.096 -13.091 155.154  35.181 -19.566 104.500

                      1                      2                      3
                      A                      A                      A
 Frequencies --     75.9194                81.9320               116.2018
 Red. masses --      3.3492                 3.2518                 2.1148
 Frc consts  --      0.0114                 0.0129                 0.0168
 IR Inten    --      0.4467                 0.8874                 7.1354

                      4                      5                      6
                      A                      A                      A
 Frequencies --    154.0499               172.5880               183.4565
 Red. masses --      1.4330                 2.0661                 3.1416
 Frc consts  --      0.0200                 0.0363                 0.0623
 IR Inten    --      0.7285                 1.3443                 1.7689

                      7                      8                      9
                      A                      A                      A
 Frequencies --    199.4126               212.7695               250.1146
 Red. masses --      3.1141                 1.3450                 3.9946
 Frc consts  --      0.0730                 0.0359                 0.1472
 IR Inten    --      6.0569                 1.6200                 6.4393

                     10                     11                     12
                      A                      A                      A
 Frequencies --    291.8650               338.2263               382.7187
 Red. masses --      3.3036                 3.1382                 2.4936
 Frc consts  --      0.1658                 0.2115                 0.2152
 IR Inten    --      1.2314                 4.0133                12.6437

                     13                     14                     15
                      A                      A                      A
 Frequencies --    432.7747               445.9728               488.1903
 Red. masses --      1.2284                 2.6422                 3.7600
 Frc consts  --      0.1356                 0.3096                 0.5280
 IR Inten    --     87.5333                 9.1533                14.1583

                     16                     17                     18
                      A                      A                      A
 Frequencies --    518.7535               532.3967               630.4638
 Red. masses --      2.6112                 2.9436                 4.6316
 Frc consts  --      0.4140                 0.4916                 1.0847
 IR Inten    --      8.4482                 0.4036                10.1070

                     19                     20                     21
                      A                      A                      A
 Frequencies --    670.5167               685.8560               697.5874
 Red. masses --      2.2476                 1.2949                 1.3371
 Frc consts  --      0.5954                 0.3589                 0.3834
 IR Inten    --      1.4651                 6.8573                12.3721

                     22                     23                     24
                      A                      A                      A
 Frequencies --    757.1071               761.9669               776.4212
 Red. masses --      3.8733                 2.4469                 1.7109
 Frc consts  --      1.3081                 0.8370                 0.6077
 IR Inten    --     10.9011                21.9084                62.0617

                     25                     26                     27
                      A                      A                      A
 Frequencies --    787.7207               826.5490               833.1297
 Red. masses --      4.1122                 1.6191                 1.6325
 Frc consts  --      1.5034                 0.6517                 0.6676
 IR Inten    --     17.1731                 8.6898                97.1583

                     28                     29                     30
                      A                      A                      A
 Frequencies --    878.1641               903.6622               971.8530
 Red. masses --      3.1418                 1.3956                 1.8016
 Frc consts  --      1.4275                 0.6714                 1.0026
 IR Inten    --      0.6141                42.3187                10.6684

                     31                     32                     33
                      A                      A                      A
 Frequencies --    989.2820              1019.5639              1061.9352
 Red. masses --      3.4799                 1.6788                 1.5106
 Frc consts  --      2.0066                 1.0282                 1.0037
 IR Inten    --     11.7312                 0.6176                 7.3742

                     34                     35                     36
                      A                      A                      A
 Frequencies --   1079.1445              1097.0517              1161.1348
 Red. masses --      1.8886                 1.5019                 1.3122
 Frc consts  --      1.2958                 1.0650                 1.0424
 IR Inten    --      5.2623                 5.8138                23.1464

                     37                     38                     39
                      A                      A                      A
 Frequencies --   1183.1704              1227.8107              1303.8998
 Red. masses --      2.0605                 2.3971                 2.6194
 Frc consts  --      1.6994                 2.1291                 2.6238
 IR Inten    --     38.7649               123.6646                59.3002

                     40                     41                     42
                      A                      A                      A
 Frequencies --   1338.4844              1349.3274              1385.5651
 Red. masses --      2.1148                 2.6204                 2.1134
 Frc consts  --      2.2323                 2.8109                 2.3904
 IR Inten    --      7.9808                31.6906                51.0719

                     43                     44                     45
                      A                      A                      A
 Frequencies --   1437.2576              1449.2112              1463.4126
 Red. masses --      1.7452                 1.5791                 1.2850
 Frc consts  --      2.1240                 1.9540                 1.6214
 IR Inten    --     25.4245                20.1244                 4.9404

                     46                     47                     48
                      A                      A                      A
 Frequencies --   1466.8835              1482.7520              1508.6560
 Red. masses --      1.3727                 1.3272                 1.1877
 Frc consts  --      1.7402                 1.7192                 1.5927
 IR Inten    --      8.5806                17.1792                12.1041

                     49                     50                     51
                      A                      A                      A
 Frequencies --   1515.9032              1525.3470              1540.6084
 Red. masses --      1.2262                 1.0635                 1.0622
 Frc consts  --      1.6602                 1.4580                 1.4854
 IR Inten    --      1.1990                12.2177                20.6282

                     52                     53                     54
                      A                      A                      A
 Frequencies --   1549.9123              1634.5426              1679.6546
 Red. masses --      1.0690                 4.1138                 5.1808
 Frc consts  --      1.5130                 6.4756                 8.6117
 IR Inten    --      1.2622               327.3695                12.5308

                     55                     56                     57
                      A                      A                      A
 Frequencies --   1695.8216              1736.5117              3029.3958
 Red. masses --      5.6163                 6.1548                 1.0519
 Frc consts  --      9.5162                10.9351                 5.6877
 IR Inten    --    101.1517                96.5723                74.8374

                     58                     59                     60
                      A                      A                      A
 Frequencies --   3047.9330              3110.9098              3123.5091
 Red. masses --      1.0412                 1.0953                 1.0878
 Frc consts  --      5.6989                 6.2454                 6.2527
 IR Inten    --     30.1968                24.1583                26.5165

                     61                     62                     63
                      A                      A                      A
 Frequencies --   3143.3434              3144.4760              3162.3820
 Red. masses --      1.1012                 1.0867                 1.0594
 Frc consts  --      6.4103                 6.3308                 6.2423
 IR Inten    --      5.3944                12.4929                 9.3218

                     64                     65                     66
                      A                      A                      A
 Frequencies --   3182.3771              3199.2222              3242.3298
 Red. masses --      1.1004                 1.0596                 1.1165
 Frc consts  --      6.5661                 6.3896                 6.9154
 IR Inten    --      1.4218                 2.8556                16.8932

                     67                     68                     69
                      A                      A                      A
 Frequencies --   3294.4864              3537.3383              3646.2432
 Red. masses --      1.1167                 1.0740                 1.0783
 Frc consts  --      7.1413                 7.9179                 8.4465
 IR Inten    --      4.1663                16.0064                28.5343

 - Thermochemistry -
 -------------------
 Temperature   298.150 Kelvin.  Pressure   1.00000 Atm.
 Atom     1 has atomic number  6 and mass  12.00000

 Molecular mass:   163.11095 amu.
 Principal axes and moments of inertia in atomic units:
                           1         2         3
     Eigenvalues --  1078.836302847.374563513.38625
           X            0.99990   0.01445  -0.00073
           Y           -0.01444   0.99988   0.00547
           Z            0.00081  -0.00546   0.99998
 This molecule is an asymmetric top.
 Rotational symmetry number  1.
 Warning -- assumption of classical behavior for rotation
           may cause significant error
 Rotational temperatures (Kelvin)      0.08028     0.03042     0.02465
 Rotational constants (GHZ):           1.67286     0.63383     0.51368
 Zero-point vibrational energy     555098.0 (Joules/Mol)
                                  132.67159 (Kcal/Mol)
 Warning -- explicit consideration of  17 degrees of freedom as
           vibrations may cause significant error
 Vibrational temperatures:    109.23   117.88   167.19   221.64   248.32
          (Kelvin)            263.95   286.91   306.13   359.86   419.93
                              486.63   550.65   622.67   641.66   702.40
                              746.37   766.00   907.10   964.72   986.79
                             1003.67  1089.31  1096.30  1117.10  1133.35
                             1189.22  1198.69  1263.48  1300.17  1398.28
                             1423.36  1466.93  1527.89  1552.65  1578.41
                             1670.61  1702.32  1766.55  1876.02  1925.78
                             1941.38  1993.52  2067.89  2085.09  2105.52
                             2110.52  2133.35  2170.62  2181.05  2194.63
                             2216.59  2229.98  2351.74  2416.65  2439.91
                             2498.45  4358.62  4385.30  4475.91  4494.03
                             4522.57  4524.20  4549.96  4578.73  4602.97
                             4664.99  4740.03  5089.44  5246.13

 Zero-point correction=                           0.211426 (Hartree/Particle)
 Thermal correction to Energy=                    0.223701
 Thermal correction to Enthalpy=                  0.224646
 Thermal correction to Gibbs Free Energy=         0.173703
 Sum of electronic and zero-point Energies=           -514.814625
 Sum of electronic and thermal Energies=              -514.802350
 Sum of electronic and thermal Enthalpies=            -514.801405
 Sum of electronic and thermal Free Energies=         -514.852348

                     E (Thermal)             CV                S
                      KCal/Mol        Cal/Mol-Kelvin    Cal/Mol-Kelvin
 Total                  140.375             46.815            107.219
 Electronic               0.000              0.000              0.000
 Translational            0.889              2.981             41.176
 Rotational               0.889              2.981             30.757
 Vibrational            138.597             40.853             35.285
 Vibration     1          0.599              1.965              3.994
 Vibration     2          0.600              1.962              3.844
 Vibration     3          0.608              1.936              3.163
 Vibration     4          0.620              1.898              2.622
 Vibration     5          0.626              1.876              2.407
 Vibration     6          0.631              1.862              2.293
 Vibration     7          0.638              1.841              2.139
 Vibration     8          0.644              1.821              2.020
 Vibration     9          0.663              1.763              1.730
 Vibration    10          0.687              1.689              1.463
 Vibration    11          0.719              1.599              1.221
 Vibration    12          0.752              1.507              1.028
 Vibration    13          0.794              1.399              0.850
 Vibration    14          0.805              1.370              0.808
 Vibration    15          0.844              1.276              0.688
 Vibration    16          0.874              1.208              0.613
 Vibration    17          0.887              1.178              0.582

                           ! Non-Optimized Parameters !

 1\1\GINC-NODE316\Freq\RB3LYP\6-31G(d)\C9H13N3\VSC10255\09-Dec-2020\0\\
 #N Geom=AllCheck Guess=TCheck SCRF=Check GenChk RB3LYP/6-31G(d) Freq\\
 CID_123192980_JID_2078_neutraal\\0,1\C,1.471820181,-0.1109420262,-0.41
 63960485\C,0.4303640929,0.9683314079,-0.6163467917\C,-0.8734054412,0.6
 52816934,-0.7321716674\C,0.8703782911,2.3515808831,-0.8370409889\C,1.8
 991132614,3.0414401849,-0.2775960366\C,2.790538206,2.8261424854,0.8914
 767766\N,3.742681982,3.7173305931,0.9599297796\C,3.55985218,4.60784803
 77,-0.0997956938\C,4.3749393172,5.6335860436,-0.4045241826\N,2.3638936

 Normal termination of Gaussian 16 at Wed Dec  9 16:55:04 2020.

 ----------------------------------------------------------------------
 # B3LYP/6-311++G(d,p) empiricaldispersion=gd3bj scf=xqc pop=npa geom=c
 heck
 ----------------------------------------------------------------------

 ---------------------------------------
 CID_123192980_JID_2078_Energie_neutraal
 ---------------------------------------
 Structure from the checkpoint file:  "JID_2078.chk"
 Charge =  0 Multiplicity = 1

 SCF Done:  E(RB3LYP) =  -515.172605174     A.U. after   15 cycles
 Normal termination of Gaussian 16 at Wed Dec  9 16:56:59 2020.

 ----------------------------------------------------------------------
 # B3LYP/6-311++G(d,p) empiricaldispersion=gd3bj scf=xqc pop=npa geom=c
 heck
 ----------------------------------------------------------------------

 -------------------------------------
 CID_123192980_JID_2078_Energie_kation
 -------------------------------------
 Structure from the checkpoint file:  "JID_2078.chk"
 Charge =  1 Multiplicity = 2

 SCF Done:  E(UB3LYP) =  -514.918774011     A.U. after   21 cycles
 Normal termination of Gaussian 16 at Wed Dec  9 17:00:32 2020.
 Gaussian 16:  ES64L-G16RevA.03 25-Dec-2016

 ------------------------------------
 CID_123192980_JID_2078_Energie_anion
 ------------------------------------
 Structure from the checkpoint file:  "JID_2078.chk"
 Charge = -1 Multiplicity = 2

                         Standard orientation:
 ---------------------------------------------------------------------
 Center     Atomic      Atomic             Coordinates (Angstroms)
 Number     Number       Type             X           Y           Z
 ---------------------------------------------------------------------
      1          6           0        2.411456    0.013049   -1.387489
      2          6           0        2.240798   -0.805133   -0.126181
      3          6           0        3.313358   -1.238582    0.562669
      4          6           0        0.896004   -1.253248    0.256468
      5          6           0       -0.298655   -0.611973    0.162996
      6          6           0       -0.716318    0.791575   -0.088664
      7          7           0       -2.010148    0.907521   -0.222973
      8          6           0       -2.565574   -0.360284   -0.039568
      9          6           0       -3.870503   -0.663664   -0.159929
     10          7           0       -1.533072   -1.241246    0.328568
     11          7           0        0.111212    1.889073   -0.166799
     12          6           0        1.103985    2.139222    0.884419
     13          1           0        3.457013    0.304804   -1.525993
     14          1           0        1.790461    0.912520   -1.390501
     15          1           0        2.102838   -0.582941   -2.255847
     16          1           0        3.209520   -1.867478    1.442991
     17          1           0        4.324302   -0.982098    0.259399
     18          1           0        0.842868   -2.278623    0.621578
     19          1           0       -4.568607    0.103991   -0.464827
     20          1           0       -4.244463   -1.660565    0.042996
     21          1           0       -1.626673   -2.240621    0.224473
     22          1           0       -0.460111    2.707935   -0.356972
     23          1           0        1.713205    2.996246    0.586218
     24          1           0        0.634771    2.355310    1.854749
     25          1           0        1.761630    1.278310    1.001833
 ---------------------------------------------------------------------

 SCF Done:  E(UB3LYP) =  -515.186401462     A.U. after   23 cycles

 The electronic state is 2-A.
 Alpha  occ. eigenvalues --  -14.18906 -14.18693 -14.13099 -10.07566 -10.07418
 Alpha  occ. eigenvalues --  -10.07114 -10.05455 -10.03845 -10.02781 -10.00573
 Alpha  occ. eigenvalues --  -10.00373  -9.98817  -0.85356  -0.79274  -0.71532
 Alpha  occ. eigenvalues --   -0.66748  -0.62179  -0.56609  -0.55991  -0.54635
 Alpha  occ. eigenvalues --   -0.48563  -0.44291  -0.43413  -0.39044  -0.36607
 Alpha  occ. eigenvalues --   -0.33770  -0.33360  -0.31688  -0.31027  -0.29578
 Alpha  occ. eigenvalues --   -0.28473  -0.27537  -0.26801  -0.25847  -0.24889
 Alpha  occ. eigenvalues --   -0.23788  -0.23126  -0.20616  -0.17853  -0.16010
 Alpha  occ. eigenvalues --   -0.13015  -0.11732  -0.09143  -0.04527   0.04189
 Alpha virt. eigenvalues --    0.08557   0.09668   0.10127   0.10618   0.11290
 Alpha virt. eigenvalues --    0.11923   0.12167   0.13042   0.13435   0.13665
 Alpha virt. eigenvalues --    0.13901   0.15960   0.16399   0.16843   0.17370

  Beta  occ. eigenvalues --  -14.18929 -14.18657 -14.12848 -10.07572 -10.07142
  Beta  occ. eigenvalues --  -10.07087 -10.05298 -10.03848 -10.02777 -10.00344
  Beta  occ. eigenvalues --  -10.00122  -9.98563  -0.85031  -0.79142  -0.71208
  Beta  occ. eigenvalues --   -0.66441  -0.61809  -0.56421  -0.55702  -0.54344
  Beta  occ. eigenvalues --   -0.47842  -0.44100  -0.43107  -0.38783  -0.36446
  Beta  occ. eigenvalues --   -0.33593  -0.33143  -0.31464  -0.30877  -0.29374
  Beta  occ. eigenvalues --   -0.28115  -0.27180  -0.26524  -0.25769  -0.24675
  Beta  occ. eigenvalues --   -0.23577  -0.23008  -0.20442  -0.17235  -0.14818
  Beta  occ. eigenvalues --   -0.12579  -0.10795  -0.08123  -0.02776
  Beta virt. eigenvalues --    0.08373   0.09203   0.10002   0.10143   0.10554
  Beta virt. eigenvalues --    0.11361   0.11883   0.12145   0.12985   0.13457
  Beta virt. eigenvalues --    0.13628   0.14178   0.16100   0.16483   0.16882

 Mulliken charges and spin densities:
               1          2
     1  C   -0.834272   0.015891
     2  C    0.988837  -0.083371
     3  C   -0.805691   0.284426
     4  C   -0.710891   0.173200
     5  C    0.071566   0.143559
     6  C   -0.201607   0.152806
     7  N   -0.268939   0.128946
     8  C    0.404542  -0.055003
     9  C   -0.639084   0.241336
    10  N   -0.180317  -0.013254
    11  N   -0.194763   0.034524
    12  C   -0.259154  -0.135553
    13  H    0.090964  -0.000592
    14  H    0.179777   0.019618
    15  H    0.124434  -0.000926
    16  H    0.103903  -0.002079
    17  H    0.083118  -0.011393
    18  H    0.114633   0.008006
    19  H    0.076165  -0.011618
    20  H    0.058080  -0.013761
    21  H    0.227535  -0.001158
    22  H    0.238685   0.009148
    23  H    0.027708   0.078756
    24  H    0.088193   0.040849
    25  H    0.216577  -0.002358
 Sum of Mulliken charges =  -1.00000   1.00000

 Dipole moment (field-independent basis, Debye):
    X=              2.4096    Y=              0.6073    Z=              0.0628  Tot=              2.4858
 Quadrupole moment (field-independent basis, Debye-Ang):
   XX=           -123.7312   YY=            -82.0021   ZZ=            -86.2037
   XY=              7.1904   XZ=             -2.5060   YZ=              0.4012

 Summary of Natural Population Analysis:

                                       Natural Population
                Natural  -----------------------------------------------
    Atom  No    Charge         Core      Valence    Rydberg      Total
 -----------------------------------------------------------------------
      C    1   -0.29922      0.99962     2.29506    0.00455     3.29922
      C    2   -0.02851      0.99952     2.01862    0.01037     3.02851
      C    3   -0.17044      0.99952     2.16181    0.00912     3.17044
      C    4   -0.10069      0.99948     2.09205    0.00916     3.10069
      C    5    0.08748      0.99948     1.89988    0.01315     2.91252
      C    6    0.25185      0.99952     1.73284    0.01579     2.74815
      N    7   -0.24703      0.99965     2.73473    0.01264     3.74703
      C    8    0.16435      0.99956     1.82213    0.01396     2.83565
      C    9   -0.22385      0.99955     2.21369    0.01061     3.22385
      N   10   -0.31271      0.99964     2.80439    0.00868     3.81271
      N   11   -0.31784      0.99967     2.80717    0.01100     3.81784
      C   12   -0.17699      0.99964     2.17053    0.00682     3.17699
      H   13    0.08996      0.00000     0.40906    0.00097     0.41004
      H   14    0.11325      0.00000     0.38491    0.00184     0.38675
      H   15    0.09761      0.00000     0.40130    0.00109     0.40239
      H   16    0.08504      0.00000     0.41404    0.00091     0.41496
      H   17    0.08048      0.00000     0.41857    0.00094     0.41952
      H   18    0.08820      0.00000     0.41021    0.00159     0.41180
      H   19    0.09413      0.00000     0.40496    0.00091     0.40587
      H   20    0.08278      0.00000     0.41638    0.00084     0.41722
      H   21    0.18756      0.00000     0.31076    0.00168     0.31244
      H   22    0.17851      0.00000     0.31722    0.00427     0.32149
      H   23    0.08578      0.00000     0.41279    0.00143     0.41422
      H   24    0.08040      0.00000     0.41755    0.00204     0.41960
      H   25    0.10990      0.00000     0.38842    0.00168     0.39010
 =======================================================================
   * Total *    0.00000     11.99487    31.85909    0.14604    44.00000

 Normal termination of Gaussian 16 at Wed Dec  9 17:04:42 2020.
