 Gaussian 16, Revision A.03,

 -----------------------------------------------------------
 # opt freq B3LYP/6-31G(d) empiricaldispersion=gd3bj scf=xqc
 -----------------------------------------------------------

 -------------------------------
 CID_114263568_JID_9877_neutraal
 -------------------------------
 Symbolic Z-matrix:
 Charge =  0 Multiplicity = 1

 SCF Done:  E(RB3LYP) =  -952.593151837     A.U. after   15 cycles
 SCF Done:  E(RB3LYP) =  -952.598290204     A.U. after   14 cycles
 SCF Done:  E(RB3LYP) =  -952.596349442     A.U. after   14 cycles
 SCF Done:  E(RB3LYP) =  -952.601632709     A.U. after   13 cycles
 SCF Done:  E(RB3LYP) =  -952.602291318     A.U. after   13 cycles
 SCF Done:  E(RB3LYP) =  -952.604255156     A.U. after   13 cycles
 SCF Done:  E(RB3LYP) =  -952.604939931     A.U. after   12 cycles
 SCF Done:  E(RB3LYP) =  -952.605359766     A.U. after   12 cycles
 SCF Done:  E(RB3LYP) =  -952.605728383     A.U. after   12 cycles
 SCF Done:  E(RB3LYP) =  -952.606081509     A.U. after   12 cycles
 SCF Done:  E(RB3LYP) =  -952.607068567     A.U. after   11 cycles
 SCF Done:  E(RB3LYP) =  -952.607068583     A.U. after    8 cycles
 SCF Done:  E(RB3LYP) =  -952.607068944     A.U. after    8 cycles
 SCF Done:  E(RB3LYP) =  -952.607068952     A.U. after    7 cycles
 Optimization completed.
    -- Stationary point found.
 Normal termination of Gaussian 16 at Sat Dec 12 10:28:05 2020.

 --------------------------------------------------------------------
 #N Geom=AllCheck Guess=TCheck SCRF=Check GenChk RB3LYP/6-31G(d) Freq
 --------------------------------------------------------------------

 Structure from the checkpoint file:  "JID_9877.chk"
 -------------------------------
 CID_114263568_JID_9877_neutraal
 -------------------------------
 Charge =  0 Multiplicity = 1

 SCF Done:  E(RB3LYP) =  -952.607068952     A.U. after    1 cycles

  Exact polarizability: 141.810 -21.271 141.642  -9.731  -4.145 145.782
 Approx polarizability: 197.729 -48.724 241.760  -2.990 -24.336 236.013

                      1                      2                      3
                      A                      A                      A
 Frequencies --     28.9021                36.0673                54.1150
 Red. masses --      6.2668                 7.9525                 9.3170
 Frc consts  --      0.0031                 0.0061                 0.0161
 IR Inten    --      0.4385                 2.6001                 0.8820

                      4                      5                      6
                      A                      A                      A
 Frequencies --     65.9097                76.8386                99.2480
 Red. masses --      8.1122                 4.7520                 4.3917
 Frc consts  --      0.0208                 0.0165                 0.0255
 IR Inten    --      0.5643                 1.0250                 1.1149

                      7                      8                      9
                      A                      A                      A
 Frequencies --    118.4853               130.2828               152.0369
 Red. masses --      5.3975                 5.7912                 3.1905
 Frc consts  --      0.0446                 0.0579                 0.0435
 IR Inten    --      1.1428                 0.3972                 5.5224

                     10                     11                     12
                      A                      A                      A
 Frequencies --    176.7090               185.5431               200.4625
 Red. masses --      1.4073                 3.5176                 2.7561
 Frc consts  --      0.0259                 0.0713                 0.0653
 IR Inten    --      0.1505                 1.5917                 1.5932

                     13                     14                     15
                      A                      A                      A
 Frequencies --    204.7801               235.9089               248.1232
 Red. masses --      1.3835                 4.4422                 1.7181
 Frc consts  --      0.0342                 0.1457                 0.0623
 IR Inten    --      0.3385                 3.2516                 1.1822

                     16                     17                     18
                      A                      A                      A
 Frequencies --    265.0282               284.4909               291.5287
 Red. masses --      2.5911                 2.2667                 1.8749
 Frc consts  --      0.1072                 0.1081                 0.0939
 IR Inten    --      1.6048                 0.5586                 0.3658

                     19                     20                     21
                      A                      A                      A
 Frequencies --    331.2403               341.5750               382.1166
 Red. masses --      2.5562                 4.4769                 2.8878
 Frc consts  --      0.1652                 0.3078                 0.2484
 IR Inten    --      2.9243                 0.2126                 3.4146

                     22                     23                     24
                      A                      A                      A
 Frequencies --    390.4824               417.1562               451.6348
 Red. masses --      3.0981                 7.5803                 2.8767
 Frc consts  --      0.2783                 0.7772                 0.3457
 IR Inten    --      1.9596                 9.8862                10.5839

                     25                     26                     27
                      A                      A                      A
 Frequencies --    513.9153               527.3862               542.2819
 Red. masses --      3.7538                 4.1649                 3.1103
 Frc consts  --      0.5841                 0.6825                 0.5389
 IR Inten    --      7.5998                17.2786                23.9769

                     28                     29                     30
                      A                      A                      A
 Frequencies --    567.3664               584.2459               597.8943
 Red. masses --      1.4305                 1.8840                 3.0627
 Frc consts  --      0.2713                 0.3789                 0.6451
 IR Inten    --     90.7363                15.1932                23.4481

                     31                     32                     33
                      A                      A                      A
 Frequencies --    605.1127               633.8785               666.5473
 Red. masses --      1.5749                 2.1445                 4.7858
 Frc consts  --      0.3398                 0.5077                 1.2528
 IR Inten    --     73.2005                54.1203                 2.7414

                     34                     35                     36
                      A                      A                      A
 Frequencies --    679.4215               706.3618               714.5233
 Red. masses --      4.2936                 4.1111                 3.9569
 Frc consts  --      1.1678                 1.2085                 1.1902
 IR Inten    --     22.3523                14.4063                45.8455

                     37                     38                     39
                      A                      A                      A
 Frequencies --    756.5076               767.6498               769.0291
 Red. masses --      1.6544                 4.2376                 5.7019
 Frc consts  --      0.5578                 1.4713                 1.9868
 IR Inten    --     23.0661                89.6507                18.4777

                     40                     41                     42
                      A                      A                      A
 Frequencies --    798.4277               859.8371               872.5031
 Red. masses --      4.9434                 2.5117                 1.3570
 Frc consts  --      1.8567                 1.0941                 0.6087
 IR Inten    --      9.2241                 8.2667                 2.8047

                     43                     44                     45
                      A                      A                      A
 Frequencies --    907.9967               919.1752               972.3237
 Red. masses --      1.9749                 5.8639                 1.4154
 Frc consts  --      0.9593                 2.9190                 0.7884
 IR Inten    --     14.1761                 5.8928                 1.0770

                     46                     47                     48
                      A                      A                      A
 Frequencies --   1002.2079              1032.8246              1051.2728
 Red. masses --      1.9802                 1.5880                 2.1473
 Frc consts  --      1.1719                 0.9981                 1.3982
 IR Inten    --      7.1509                 2.9723                 7.8575

                     49                     50                     51
                      A                      A                      A
 Frequencies --   1070.7459              1091.6618              1114.9902
 Red. masses --      1.8378                 2.1190                 2.5084
 Frc consts  --      1.2414                 1.4879                 1.8373
 IR Inten    --     31.7027                19.4866                10.2803

                     52                     53                     54
                      A                      A                      A
 Frequencies --   1152.9395              1155.1102              1171.6335
 Red. masses --      3.0219                 1.2971                 2.6499
 Frc consts  --      2.3667                 1.0197                 2.1432
 IR Inten    --    181.1384                 6.4152                23.6639

                     55                     56                     57
                      A                      A                      A
 Frequencies --   1201.3514              1211.7900              1224.6875
 Red. masses --      2.4644                 2.5251                 2.9154
 Frc consts  --      2.0956                 2.1847                 2.5763
 IR Inten    --      4.3548                 1.5169                52.9379

                     58                     59                     60
                      A                      A                      A
 Frequencies --   1233.6636              1244.9535              1271.4618
 Red. masses --      3.0572                 2.8351                 1.7774
 Frc consts  --      2.7414                 2.5890                 1.6930
 IR Inten    --     55.5865                 5.1490                23.3450

                     61                     62                     63
                      A                      A                      A
 Frequencies --   1315.7230              1364.7115              1380.3879
 Red. masses --      1.7789                 1.6508                 2.3563
 Frc consts  --      1.8144                 1.8114                 2.6453
 IR Inten    --     33.4856                32.9825                79.0747

                     64                     65                     66
                      A                      A                      A
 Frequencies --   1393.3701              1415.7919              1430.4950
 Red. masses --      2.6010                 1.7167                 1.2490
 Frc consts  --      2.9752                 2.0274                 1.5058
 IR Inten    --    162.7307                22.8632                 2.7905

                     67                     68                     69
                      A                      A                      A
 Frequencies --   1454.1527              1475.2387              1489.8540
 Red. masses --      1.2550                 4.3533                 1.4711
 Frc consts  --      1.5635                 5.5820                 1.9238
 IR Inten    --     16.0335                39.9837                 4.2003

                     70                     71                     72
                      A                      A                      A
 Frequencies --   1500.3716              1503.1932              1511.5182
 Red. masses --      1.4217                 1.2434                 1.2986
 Frc consts  --      1.8856                 1.6553                 1.7480
 IR Inten    --     45.0071                21.1829                10.5925

                     73                     74                     75
                      A                      A                      A
 Frequencies --   1513.7577              1517.7227              1525.8089
 Red. masses --      1.0845                 1.0608                 1.0607
 Frc consts  --      1.4641                 1.4398                 1.4550
 IR Inten    --      9.5757                 1.8534                 5.3034

                     76                     77                     78
                      A                      A                      A
 Frequencies --   1536.0719              1544.4623              1552.4004
 Red. masses --      1.0753                 1.1045                 4.1618
 Frc consts  --      1.4949                 1.5523                 5.9093
 IR Inten    --      6.2501                33.2090                77.4706

                     79                     80                     81
                      A                      A                      A
 Frequencies --   1554.3221              1620.9675              1762.8877
 Red. masses --      1.0902                 8.0433                 7.6338
 Frc consts  --      1.5519                12.4518                13.9779
 IR Inten    --     14.6080                43.8061               163.5883

                     82                     83                     84
                      A                      A                      A
 Frequencies --   1782.0906              1818.8943              3053.3172
 Red. masses --      8.5447                 9.7223                 1.0427
 Frc consts  --     15.9884                18.9510                 5.7273
 IR Inten    --    437.3054               345.0596                 8.8617

                     85                     86                     87
                      A                      A                      A
 Frequencies --   3053.7950              3061.3914              3070.2212
 Red. masses --      1.0439                 1.0425                 1.0708
 Frc consts  --      5.7356                 5.7568                 5.9471
 IR Inten    --     38.7986                20.2848                49.2374

                     88                     89                     90
                      A                      A                      A
 Frequencies --   3119.8366              3124.8976              3128.9434
 Red. masses --      1.1011                 1.0948                 1.0966
 Frc consts  --      6.3144                 6.2985                 6.3252
 IR Inten    --     11.7210                25.5537                30.5130

                     91                     92                     93
                      A                      A                      A
 Frequencies --   3150.2324              3156.7431              3170.8066
 Red. masses --      1.1008                 1.1001                 1.0991
 Frc consts  --      6.4363                 6.4587                 6.5110
 IR Inten    --     27.2245                12.8415                10.7986

                     94                     95                     96
                      A                      A                      A
 Frequencies --   3191.5729              3286.9234              3311.0343
 Red. masses --      1.0883                 1.0911                 1.1067
 Frc consts  --      6.5317                 6.9450                 7.1485
 IR Inten    --     15.5005                 1.1660                 0.1756

                     97                     98                     99
                      A                      A                      A
 Frequencies --   3599.2173              3604.4160              3693.2156
 Red. masses --      1.0755                 1.0757                 1.0641
 Frc consts  --      8.2089                 8.2337                 8.5513
 IR Inten    --     31.9626                17.5869                74.0483

 - Thermochemistry -
 -------------------
 Temperature   298.150 Kelvin.  Pressure   1.00000 Atm.
 Atom     1 has atomic number  6 and mass  12.00000

 Molecular mass:   268.10592 amu.
 Principal axes and moments of inertia in atomic units:
                           1         2         3
     Eigenvalues --  3499.779315417.296625526.05594
           X            0.99901   0.01187  -0.04288
           Y           -0.00261   0.97772   0.20988
           Z            0.04442  -0.20956   0.97679
 This molecule is an asymmetric top.
 Rotational symmetry number  1.
 Warning -- assumption of classical behavior for rotation
           may cause significant error
 Rotational temperatures (Kelvin)      0.02475     0.01599     0.01567
 Rotational constants (GHZ):           0.51567     0.33314     0.32659
 Zero-point vibrational energy     742301.4 (Joules/Mol)
                                  177.41429 (Kcal/Mol)
 Warning -- explicit consideration of  31 degrees of freedom as
           vibrations may cause significant error
 Vibrational temperatures:     41.58    51.89    77.86    94.83   110.55
          (Kelvin)            142.80   170.47   187.45   218.75   254.24
                              266.96   288.42   294.63   339.42   356.99
                              381.32   409.32   419.44   476.58   491.45
                              549.78   561.82   600.19   649.80   739.41
                              758.79   780.22   816.31   840.60   860.24
                              870.62   912.01   959.01   977.54  1016.30
                             1028.04  1088.45  1104.48  1106.46  1148.76
                             1237.11  1255.34  1306.40  1322.49  1398.96
                             1441.95  1486.00  1512.55  1540.56  1570.66
                             1604.22  1658.82  1661.95  1685.72  1728.48
                             1743.50  1762.05  1774.97  1791.21  1829.35
                             1893.03  1963.52  1986.07  2004.75  2037.01
                             2058.16  2092.20  2122.54  2143.57  2158.70
                             2162.76  2174.74  2177.96  2183.66  2195.30
                             2210.06  2222.14  2233.56  2236.32  2332.21
                             2536.40  2564.03  2616.98  4393.04  4393.73
                             4404.66  4417.36  4488.75  4496.03  4501.85
                             4532.48  4541.85  4562.08  4591.96  4729.15
                             4763.84  5178.47  5185.95  5313.71

 Zero-point correction=                           0.282728 (Hartree/Particle)
 Thermal correction to Energy=                    0.301989
 Thermal correction to Enthalpy=                  0.302933
 Thermal correction to Gibbs Free Energy=         0.234818
 Sum of electronic and zero-point Energies=           -952.324341
 Sum of electronic and thermal Energies=              -952.305080
 Sum of electronic and thermal Enthalpies=            -952.304136
 Sum of electronic and thermal Free Energies=         -952.372251

                     E (Thermal)             CV                S
                      KCal/Mol        Cal/Mol-Kelvin    Cal/Mol-Kelvin
 Total                  189.501             71.466            143.360
 Electronic               0.000              0.000              0.000
 Translational            0.889              2.981             42.658
 Rotational               0.889              2.981             33.016
 Vibrational            187.724             65.504             67.687
 Vibration     1          0.593              1.984              5.903
 Vibration     2          0.594              1.982              5.464
 Vibration     3          0.596              1.976              4.661
 Vibration     4          0.597              1.971              4.272
 Vibration     5          0.599              1.965              3.970
 Vibration     6          0.604              1.950              3.469
 Vibration     7          0.609              1.934              3.125
 Vibration     8          0.612              1.923              2.942
 Vibration     9          0.619              1.900              2.647
 Vibration    10          0.628              1.871              2.363
 Vibration    11          0.632              1.860              2.272
 Vibration    12          0.638              1.839              2.129
 Vibration    13          0.640              1.833              2.090
 Vibration    14          0.655              1.786              1.834
 Vibration    15          0.662              1.766              1.744
 Vibration    16          0.671              1.737              1.628
 Vibration    17          0.683              1.702              1.507
 Vibration    18          0.687              1.690              1.465
 Vibration    19          0.714              1.613              1.254
 Vibration    20          0.721              1.592              1.205
 Vibration    21          0.752              1.508              1.031
 Vibration    22          0.758              1.491              0.998
 Vibration    23          0.780              1.433              0.902
 Vibration    24          0.810              1.357              0.791
 Vibration    25          0.869              1.219              0.624
 Vibration    26          0.882              1.189              0.593
 Vibration    27          0.897              1.157              0.560
 Vibration    28          0.923              1.102              0.509
 Vibration    29          0.941              1.065              0.478
 Vibration    30          0.956              1.036              0.453
 Vibration    31          0.964              1.021              0.441

                           ! Non-Optimized Parameters !
 Normal termination of Gaussian 16 at Sat Dec 12 10:47:22 2020.

 ----------------------------------------------------------------------
 # B3LYP/6-311++G(d,p) empiricaldispersion=gd3bj scf=xqc pop=npa geom=c
 heck
 ----------------------------------------------------------------------

 ---------------------------------------
 CID_114263568_JID_9877_Energie_neutraal
 ---------------------------------------
 Structure from the checkpoint file:  "JID_9877.chk"
 Charge =  0 Multiplicity = 1

 SCF Done:  E(RB3LYP) =  -952.895172221     A.U. after   16 cycles
 Normal termination of Gaussian 16 at Sat Dec 12 10:54:28 2020.

 ----------------------------------------------------------------------
 # B3LYP/6-311++G(d,p) empiricaldispersion=gd3bj scf=xqc pop=npa geom=c
 heck
 ----------------------------------------------------------------------

 -------------------------------------
 CID_114263568_JID_9877_Energie_kation
 -------------------------------------
 Structure from the checkpoint file:  "JID_9877.chk"
 Charge =  1 Multiplicity = 2

 SCF Done:  E(UB3LYP) =  -952.576427748     A.U. after   33 cycles
 SCF Done:  E(UB3LYP) =  -952.576427748     a.u. after    3 cycles
 Normal termination of Gaussian 16 at Sat Dec 12 11:50:01 2020.
 Gaussian 16:  ES64L-G16RevA.03 25-Dec-2016

 ----------------------------------------------------------------------
 # B3LYP/6-311++G(d,p) empiricaldispersion=gd3bj scf=xqc pop=npa geom=c
 heck
 ----------------------------------------------------------------------

 ------------------------------------
 CID_114263568_JID_9877_Energie_anion
 ------------------------------------
 Structure from the checkpoint file:  "JID_9877.chk"
 Charge = -1 Multiplicity = 2

                         Standard orientation:
 ---------------------------------------------------------------------
 Center     Atomic      Atomic             Coordinates (Angstroms)
 Number     Number       Type             X           Y           Z
 ---------------------------------------------------------------------
      1          6           0        3.433899   -0.758560   -0.470366
      2          6           0        2.296623    0.273585   -0.504319
      3          6           0        2.828549    1.573469   -1.139400
      4          6           0        1.131397   -0.264366   -1.380605
      5          7           0        0.650078   -1.586816   -1.021656
      6          6           0       -0.287479   -1.944625   -0.097823
      7          8           0       -0.455907   -3.103187    0.254560
      8          6           0       -1.139154   -0.866441    0.504575
      9          6           0       -2.016484    0.096914    0.053152
     10          6           0       -2.570289    0.723272    1.222150
     11          6           0       -2.008227    0.093911    2.285119
     12          8           0       -1.148266   -0.878476    1.859526
     13          6           0       -2.405933    0.465813   -1.310419
     14          8           0       -3.085991    1.434460   -1.588319
     15          8           0       -1.933517   -0.386871   -2.255263
     16          6           0        1.791509    0.467878    0.943158
     17          8           0        2.122905   -0.311568    1.830378
     18          7           0        0.923271    1.486572    1.250538
     19          6           0        0.348035    2.570918    0.474072
     20          1           0        3.752732   -0.993829   -1.493325
     21          1           0        3.123658   -1.672916    0.036463
     22          1           0        4.295774   -0.363249    0.074536
     23          1           0        3.384879    1.331373   -2.051769
     24          1           0        2.038144    2.273350   -1.418171
     25          1           0        3.515282    2.087740   -0.459015
     26          1           0        0.291938    0.426838   -1.373163
     27          1           0        1.479940   -0.315729   -2.418492
     28          1           0        1.199455   -2.381093   -1.326220
     29          1           0       -3.302669    1.516605    1.224138
     30          1           0       -2.107415    0.188721    3.355095
     31          1           0       -2.261704   -0.045967   -3.108187
     32          1           0        0.656503    1.440223    2.225435
     33          1           0       -0.494919    2.970915    1.041013
     34          1           0        1.059386    3.384377    0.289482
     35          1           0       -0.052896    2.228870   -0.482805
 ---------------------------------------------------------------------

 SCF Done:  E(UB3LYP) =  -952.905769169     A.U. after   33 cycles
 SCF Done:  E(UB3LYP) =  -952.905769169     a.u. after    1 cycles

 The electronic state is 2-A.
 Alpha  occ. eigenvalues --  -19.04017 -19.02597 -18.97523 -18.95147 -18.94521
 Alpha  occ. eigenvalues --  -14.22716 -14.20640 -10.16233 -10.13767 -10.13262
 Alpha  occ. eigenvalues --  -10.10425 -10.10161 -10.09552 -10.09213 -10.07787
 Alpha  occ. eigenvalues --  -10.07348 -10.06101 -10.04431 -10.03283  -0.97626
 Alpha  occ. eigenvalues --   -0.96163  -0.92857  -0.89922  -0.86750  -0.81028
 Alpha  occ. eigenvalues --   -0.79988  -0.71375  -0.67417  -0.62825  -0.60874
 Alpha  occ. eigenvalues --   -0.59708  -0.58968  -0.53461  -0.52709  -0.49626
 Alpha  occ. eigenvalues --   -0.44939  -0.44840  -0.42889  -0.40731  -0.40118
 Alpha  occ. eigenvalues --   -0.38849  -0.36880  -0.35881  -0.35270  -0.34360
 Alpha  occ. eigenvalues --   -0.33909  -0.32882  -0.32062  -0.31870  -0.30787
 Alpha  occ. eigenvalues --   -0.30330  -0.30132  -0.29778  -0.29068  -0.28492
 Alpha  occ. eigenvalues --   -0.27212  -0.26935  -0.26623  -0.25614  -0.25278
 Alpha  occ. eigenvalues --   -0.24326  -0.23737  -0.23498  -0.18853  -0.15233
 Alpha  occ. eigenvalues --   -0.14776  -0.14579  -0.13788  -0.13110  -0.12629
 Alpha  occ. eigenvalues --   -0.10496   0.04503
 Alpha virt. eigenvalues --    0.06418   0.07505   0.08456   0.08803   0.09823
 Alpha virt. eigenvalues --    0.10133   0.10518   0.11181   0.11766   0.12045
 Alpha virt. eigenvalues --    0.12471   0.12839   0.13236   0.13959   0.14354

  Beta  occ. eigenvalues --  -19.03751 -19.02542 -18.97513 -18.94843 -18.94324
  Beta  occ. eigenvalues --  -14.22700 -14.20603 -10.16224 -10.13469 -10.13177
  Beta  occ. eigenvalues --  -10.10420 -10.10148 -10.09548 -10.09233 -10.07782
  Beta  occ. eigenvalues --  -10.06868 -10.06098 -10.04438 -10.03239  -0.97154
  Beta  occ. eigenvalues --   -0.95864  -0.92836  -0.89585  -0.86303  -0.80994
  Beta  occ. eigenvalues --   -0.79841  -0.71340  -0.67161  -0.62288  -0.60855
  Beta  occ. eigenvalues --   -0.59693  -0.58910  -0.53075  -0.52393  -0.49349
  Beta  occ. eigenvalues --   -0.44856  -0.44726  -0.42614  -0.40599  -0.40014
  Beta  occ. eigenvalues --   -0.38810  -0.36768  -0.35791  -0.35158  -0.33993
  Beta  occ. eigenvalues --   -0.33683  -0.32719  -0.31773  -0.31095  -0.30573
  Beta  occ. eigenvalues --   -0.30100  -0.29781  -0.29395  -0.28939  -0.28247
  Beta  occ. eigenvalues --   -0.26944  -0.26757  -0.26484  -0.25468  -0.25014
  Beta  occ. eigenvalues --   -0.24206  -0.23405  -0.23327  -0.17794  -0.14804
  Beta  occ. eigenvalues --   -0.14624  -0.14197  -0.13479  -0.12683  -0.12031
  Beta  occ. eigenvalues --   -0.09095
  Beta virt. eigenvalues --    0.06387   0.07571   0.08383   0.08718   0.09699
  Beta virt. eigenvalues --    0.10033   0.10229   0.10869   0.11347   0.11696
  Beta virt. eigenvalues --    0.12255   0.12732   0.12849   0.13321   0.14136

 Mulliken charges and spin densities:
               1          2
     1  C   -0.501741  -0.137241
     2  C    0.398098   0.204338
     3  C   -0.327116  -0.082456
     4  C   -0.020169  -0.245129
     5  N   -0.265098   0.004030
     6  C   -0.097086  -0.043256
     7  O   -0.334360   0.060179
     8  C   -0.480699   0.572386
     9  C    0.105869  -0.060779
    10  C    0.410129  -0.141486
    11  C   -0.463989   0.060954
    12  O    0.135966   0.032724
    13  C   -0.421044   0.203880
    14  O   -0.354459   0.103225
    15  O   -0.164525   0.011743
    16  C   -0.366745  -0.077129
    17  O   -0.261149   0.005529
    18  N   -0.143814   0.014675
    19  C   -0.225153  -0.152717
    20  H    0.085867   0.032502
    21  H    0.217600   0.002386
    22  H    0.127807   0.016799
    23  H    0.092738   0.046864
    24  H    0.058630   0.061152
    25  H    0.119729   0.051352
    26  H    0.391678  -0.151124
    27  H   -0.155613   0.329840
    28  H    0.279838   0.031735
    29  H    0.157326   0.005711
    30  H    0.102272   0.022551
    31  H    0.249318   0.008581
    32  H    0.280489   0.048978
    33  H    0.084380   0.065669
    34  H    0.103598   0.056038
    35  H    0.181427   0.037496
 Sum of Mulliken charges =  -1.00000   1.00000

 Dipole moment (field-independent basis, Debye):
    X=              4.4431    Y=              4.7763    Z=             -1.2083  Tot=              6.6343
 Quadrupole moment (field-independent basis, Debye-Ang):
   XX=           -148.6230   YY=           -144.6961   ZZ=           -128.7039
   XY=              3.7227   XZ=            -11.4808   YZ=             10.7957

 Summary of Natural Population Analysis:

                                       Natural Population
                Natural  -----------------------------------------------
    Atom  No    Charge         Core      Valence    Rydberg      Total
 -----------------------------------------------------------------------
      C    1   -0.28578      0.99964     2.27921    0.00693     3.28578
      C    2   -0.08133      0.99954     2.07197    0.00982     3.08133
      C    3   -0.28541      0.99964     2.28004    0.00573     3.28541
      C    4   -0.08519      0.99956     2.07173    0.01390     3.08519
      N    5   -0.31114      0.99967     2.80074    0.01073     3.81114
      C    6    0.34005      0.99963     1.63870    0.02163     2.65995
      O    7   -0.29733      0.99988     3.29214    0.00532     4.29733
      C    8    0.22548      0.99940     1.75930    0.01582     2.77452
      C    9   -0.12611      0.99942     2.11421    0.01249     3.12611
      C   10   -0.13864      0.99954     2.13062    0.00849     3.13864
      C   11    0.03385      0.99952     1.95297    0.01366     2.96615
      O   12   -0.20164      0.99985     3.19288    0.00891     4.20164
      C   13    0.42390      0.99964     1.55291    0.02355     2.57610
      O   14   -0.30603      0.99987     3.30056    0.00561     4.30603
      O   15   -0.35092      0.99988     3.34389    0.00715     4.35092
      C   16    0.34760      0.99960     1.62593    0.02687     2.65240
      O   17   -0.31968      0.99988     3.31431    0.00549     4.31968
      N   18   -0.31656      0.99967     2.80570    0.01120     3.81656
      C   19   -0.18003      0.99964     2.17344    0.00695     3.18003
      H   20    0.09136      0.00000     0.40781    0.00082     0.40864
      H   21    0.11590      0.00000     0.38317    0.00094     0.38410
      H   22    0.10069      0.00000     0.39852    0.00079     0.39931
      H   23    0.09897      0.00000     0.40014    0.00089     0.40103
      H   24    0.10212      0.00000     0.39691    0.00097     0.39788
      H   25    0.10086      0.00000     0.39826    0.00088     0.39914
      H   26    0.10887      0.00000     0.38838    0.00275     0.39113
      H   27    0.09413      0.00000     0.40479    0.00108     0.40587
      H   28    0.18742      0.00000     0.31009    0.00249     0.31258
      H   29    0.10942      0.00000     0.38974    0.00083     0.39058
      H   30    0.08884      0.00000     0.41019    0.00097     0.41116
      H   31    0.23088      0.00000     0.26550    0.00362     0.26912
      H   32    0.19428      0.00000     0.30278    0.00294     0.30572
      H   33    0.10504      0.00000     0.39380    0.00116     0.39496
      H   34    0.08456      0.00000     0.41431    0.00112     0.41544
      H   35    0.10157      0.00000     0.39722    0.00120     0.39843
 =======================================================================
   * Total *   -0.00000     18.99346    51.76285    0.24369    71.00000

 Normal termination of Gaussian 16 at Sat Dec 12 12:08:57 2020.
