 Gaussian 16, Revision A.03,

 -----------------------------------------------------------
 # opt freq B3LYP/6-31G(d) empiricaldispersion=gd3bj scf=xqc
 -----------------------------------------------------------

 -------------------------------
 CID_115373589_JID_6872_neutraal
 -------------------------------
 Symbolic Z-matrix:
 Charge =  0 Multiplicity = 1

 SCF Done:  E(RB3LYP) =  -690.948457902     A.U. after   14 cycles
 SCF Done:  E(RB3LYP) =  -690.952674849     A.U. after   12 cycles
 SCF Done:  E(RB3LYP) =  -690.953205413     A.U. after   11 cycles
 SCF Done:  E(RB3LYP) =  -690.953360304     A.U. after   11 cycles
 SCF Done:  E(RB3LYP) =  -690.953463207     A.U. after   11 cycles
 SCF Done:  E(RB3LYP) =  -690.953525728     A.U. after   11 cycles
 SCF Done:  E(RB3LYP) =  -690.953565092     A.U. after   11 cycles
 SCF Done:  E(RB3LYP) =  -690.953582045     A.U. after   10 cycles
 SCF Done:  E(RB3LYP) =  -690.953583317     A.U. after    9 cycles
 SCF Done:  E(RB3LYP) =  -690.953598937     A.U. after   10 cycles
 SCF Done:  E(RB3LYP) =  -690.955274599     A.U. after    7 cycles
 SCF Done:  E(RB3LYP) =  -690.955274736     A.U. after    7 cycles
 SCF Done:  E(RB3LYP) =  -690.955274863     A.U. after    7 cycles
 SCF Done:  E(RB3LYP) =  -690.955274967     A.U. after    7 cycles
 SCF Done:  E(RB3LYP) =  -690.955275007     A.U. after    6 cycles
 Optimization completed.
    -- Stationary point found.
 Normal termination of Gaussian 16 at Fri Dec 11 01:13:32 2020.

 --------------------------------------------------------------------
 #N Geom=AllCheck Guess=TCheck SCRF=Check GenChk RB3LYP/6-31G(d) Freq
 --------------------------------------------------------------------

 Structure from the checkpoint file:  "JID_6872.chk"
 -------------------------------
 CID_115373589_JID_6872_neutraal
 -------------------------------
 Charge =  0 Multiplicity = 1

 SCF Done:  E(RB3LYP) =  -690.955275007     A.U. after    1 cycles

  Exact polarizability: 176.869   6.112 150.061  -6.435   6.364 105.488
 Approx polarizability: 240.058   8.517 235.107 -15.308  20.509 161.198

                      1                      2                      3
                      A                      A                      A
 Frequencies --     29.7946                38.7815                44.0928
 Red. masses --      2.6519                 3.8050                 1.2464
 Frc consts  --      0.0014                 0.0034                 0.0014
 IR Inten    --      0.5469                 0.6099                 0.0132

                      4                      5                      6
                      A                      A                      A
 Frequencies --     49.7824               109.4422               133.4597
 Red. masses --      2.7231                 2.7716                 3.0943
 Frc consts  --      0.0040                 0.0196                 0.0325
 IR Inten    --      0.2225                 1.0108                 0.5831

                      7                      8                      9
                      A                      A                      A
 Frequencies --    171.7274               188.5738               219.1081
 Red. masses --      3.1454                 3.5043                 2.8401
 Frc consts  --      0.0547                 0.0734                 0.0803
 IR Inten    --      0.5334                 0.5235                 1.2379

                     10                     11                     12
                      A                      A                      A
 Frequencies --    245.2761               300.5474               308.2126
 Red. masses --      3.0449                 1.2910                 2.2549
 Frc consts  --      0.1079                 0.0687                 0.1262
 IR Inten    --      1.1403                68.9659                30.6080

                     13                     14                     15
                      A                      A                      A
 Frequencies --    324.1425               343.3978               394.5226
 Red. masses --      3.6828                 2.6550                 3.4475
 Frc consts  --      0.2280                 0.1845                 0.3162
 IR Inten    --      4.0212                 1.3194                 9.6817

                     16                     17                     18
                      A                      A                      A
 Frequencies --    413.9436               441.4114               459.6624
 Red. masses --      3.5445                 3.5938                 2.6642
 Frc consts  --      0.3578                 0.4126                 0.3317
 IR Inten    --      5.0731                11.1686                 1.2077

                     19                     20                     21
                      A                      A                      A
 Frequencies --    468.9221               523.7861               555.1130
 Red. masses --      3.4578                 3.5021                 4.2101
 Frc consts  --      0.4480                 0.5661                 0.7644
 IR Inten    --      1.0270                 0.5515                 1.7916

                     22                     23                     24
                      A                      A                      A
 Frequencies --    565.3527               616.9677               665.9363
 Red. masses --      3.1870                 3.4005                 5.7396
 Frc consts  --      0.6002                 0.7626                 1.4997
 IR Inten    --      1.5971                 0.4212                13.8181

                     25                     26                     27
                      A                      A                      A
 Frequencies --    728.3454               743.7734               774.1063
 Red. masses --      3.6934                 2.6510                 1.5162
 Frc consts  --      1.1544                 0.8641                 0.5353
 IR Inten    --      8.6980                11.2588                 5.7327

                     28                     29                     30
                      A                      A                      A
 Frequencies --    801.7574               824.2392               848.4380
 Red. masses --      1.4045                 1.4280                 3.3404
 Frc consts  --      0.5319                 0.5716                 1.4167
 IR Inten    --      8.1359                 8.6849                 5.2726

                     31                     32                     33
                      A                      A                      A
 Frequencies --    884.8410               906.1557               919.0150
 Red. masses --      2.3340                 1.5172                 2.7846
 Frc consts  --      1.0767                 0.7340                 1.3857
 IR Inten    --      6.1749                 6.5646                10.6591

                     34                     35                     36
                      A                      A                      A
 Frequencies --    941.5578               954.5788               971.4984
 Red. masses --      3.2817                 2.5542                 1.4217
 Frc consts  --      1.7141                 1.3713                 0.7906
 IR Inten    --     10.8589                 5.8100                 1.0832

                     37                     38                     39
                      A                      A                      A
 Frequencies --    985.9427              1011.1697              1025.3136
 Red. masses --      1.3264                 2.0364                 1.6029
 Frc consts  --      0.7597                 1.2268                 0.9928
 IR Inten    --      2.2483                 4.6910                 0.2896

                     40                     41                     42
                      A                      A                      A
 Frequencies --   1037.2098              1045.7847              1049.8425
 Red. masses --      1.7104                 1.5085                 2.4667
 Frc consts  --      1.0842                 0.9720                 1.6018
 IR Inten    --      2.6525                 7.2243                21.1344

                     43                     44                     45
                      A                      A                      A
 Frequencies --   1058.7977              1067.8771              1080.1703
 Red. masses --      2.8901                 1.9568                 1.5261
 Frc consts  --      1.9089                 1.3147                 1.0491
 IR Inten    --      6.5722                 4.6803                 4.3813

                     46                     47                     48
                      A                      A                      A
 Frequencies --   1087.2226              1123.3854              1138.4272
 Red. masses --      1.4186                 3.0953                 2.4307
 Frc consts  --      0.9880                 2.3015                 1.8561
 IR Inten    --      3.4791                20.2886                35.8059

                     49                     50                     51
                      A                      A                      A
 Frequencies --   1145.8805              1160.3586              1186.8810
 Red. masses --      1.1935                 2.7772                 1.5909
 Frc consts  --      0.9233                 2.2031                 1.3204
 IR Inten    --      2.6415                30.0322                 8.4888

                     52                     53                     54
                      A                      A                      A
 Frequencies --   1200.2004              1206.4370              1209.8743
 Red. masses --      1.8866                 1.4284                 1.3765
 Frc consts  --      1.6011                 1.2249                 1.1871
 IR Inten    --     34.1850                 8.1929                32.5906

                     55                     56                     57
                      A                      A                      A
 Frequencies --   1231.3677              1248.2037              1253.3597
 Red. masses --      2.3709                 1.4686                 1.5722
 Frc consts  --      2.1181                 1.3481                 1.4552
 IR Inten    --     10.0545                15.2276                12.9338

                     58                     59                     60
                      A                      A                      A
 Frequencies --   1278.4925              1308.1478              1318.6223
 Red. masses --      1.9804                 6.6097                 1.4122
 Frc consts  --      1.9073                 6.6642                 1.4467
 IR Inten    --     19.4732                 9.7794                 3.6596

                     61                     62                     63
                      A                      A                      A
 Frequencies --   1333.9375              1358.4397              1368.1380
 Red. masses --      1.7736                 1.4552                 1.3249
 Frc consts  --      1.8594                 1.5822                 1.4612
 IR Inten    --     29.7286                13.3592                 9.1575

                     64                     65                     66
                      A                      A                      A
 Frequencies --   1401.0516              1420.7528              1436.2418
 Red. masses --      1.6322                 1.6852                 1.4201
 Frc consts  --      1.8877                 2.0042                 1.7259
 IR Inten    --     20.6620                45.3428                11.7156

                     67                     68                     69
                      A                      A                      A
 Frequencies --   1444.1699              1479.0873              1489.0627
 Red. masses --      1.2659                 2.3381                 2.8804
 Frc consts  --      1.5556                 3.0138                 3.7630
 IR Inten    --      0.3895                15.9782                40.1341

                     70                     71                     72
                      A                      A                      A
 Frequencies --   1491.1868              1515.5979              1518.6510
 Red. masses --      1.0948                 1.0444                 1.0900
 Frc consts  --      1.4343                 1.4134                 1.4811
 IR Inten    --      1.8466                 5.6566                 4.7894

                     73                     74                     75
                      A                      A                      A
 Frequencies --   1529.6916              1532.9776              1535.6792
 Red. masses --      1.1476                 1.1612                 1.3283
 Frc consts  --      1.5821                 1.6078                 1.8457
 IR Inten    --      6.1535                25.3020                 9.2230

                     76                     77                     78
                      A                      A                      A
 Frequencies --   1551.7512              1631.1226              1659.6622
 Red. masses --      1.1031                 5.0781                 5.4663
 Frc consts  --      1.5650                 7.9603                 8.8712
 IR Inten    --      6.1288                10.1776                 3.2733

                     79                     80                     81
                      A                      A                      A
 Frequencies --   2908.1282              2935.3383              3045.2162
 Red. masses --      1.0727                 1.0737                 1.0370
 Frc consts  --      5.3451                 5.4506                 5.6656
 IR Inten    --     60.9070                93.5861                28.9946

                     82                     83                     84
                      A                      A                      A
 Frequencies --   3085.9731              3093.2516              3098.2514
 Red. masses --      1.0721                 1.0779                 1.1011
 Frc consts  --      6.0157                 6.0765                 6.2276
 IR Inten    --     18.5073                34.4178                19.3918

                     85                     86                     87
                      A                      A                      A
 Frequencies --   3125.1086              3126.9156              3136.7474
 Red. masses --      1.1011                 1.0879                 1.1058
 Frc consts  --      6.3360                 6.2674                 6.4102
 IR Inten    --     15.4628                12.5571                18.6058

                     88                     89                     90
                      A                      A                      A
 Frequencies --   3146.0654              3150.7288              3153.9393
 Red. masses --      1.0862                 1.0531                 1.0899
 Frc consts  --      6.3344                 6.1594                 6.3878
 IR Inten    --     23.1098                16.2712                43.4723

                     91                     92                     93
                      A                      A                      A
 Frequencies --   3158.7280              3178.7392              3224.4253
 Red. masses --      1.0600                 1.0909                 1.0905
 Frc consts  --      6.2311                 6.4947                 6.6800
 IR Inten    --     12.3776                 2.2147                 5.5464

                     94                     95                     96
                      A                      A                      A
 Frequencies --   3225.6165              3240.2026              3746.1022
 Red. masses --      1.1189                 1.1153                 1.0662
 Frc consts  --      6.8589                 6.8990                 8.8153
 IR Inten    --      2.1284                24.4767                 7.4765

 - Thermochemistry -
 -------------------
 Temperature   298.150 Kelvin.  Pressure   1.00000 Atm.
 Atom     1 has atomic number  6 and mass  12.00000

 Molecular mass:   218.14191 amu.
 Principal axes and moments of inertia in atomic units:
                           1         2         3
     Eigenvalues --  2012.915795374.244406426.60504
           X            0.99986   0.01566   0.00593
           Y           -0.01562   0.99985  -0.00732
           Z           -0.00604   0.00722   0.99996
 This molecule is an asymmetric top.
 Rotational symmetry number  1.
 Warning -- assumption of classical behavior for rotation
           may cause significant error
 Rotational temperatures (Kelvin)      0.04303     0.01612     0.01348
 Rotational constants (GHZ):           0.89658     0.33581     0.28082
 Zero-point vibrational energy     770669.7 (Joules/Mol)
                                  184.19448 (Kcal/Mol)
 Warning -- explicit consideration of  23 degrees of freedom as
           vibrations may cause significant error
 Vibrational temperatures:     42.87    55.80    63.44    71.63   157.46
          (Kelvin)            192.02   247.08   271.32   315.25   352.90
                              432.42   443.45   466.37   494.07   567.63
                              595.57   635.09   661.35   674.67   753.61
                              798.68   813.42   887.68   958.13  1047.93
                             1070.12  1113.77  1153.55  1185.90  1220.71
                             1273.09  1303.76  1322.26  1354.69  1373.43
                             1397.77  1418.55  1454.85  1475.20  1492.31
                             1504.65  1510.49  1523.37  1536.44  1554.12
                             1564.27  1616.30  1637.94  1648.67  1669.50
                             1707.66  1726.82  1735.79  1740.74  1771.66
                             1795.89  1803.31  1839.47  1882.13  1897.20
                             1919.24  1954.49  1968.45  2015.80  2044.15
                             2066.43  2077.84  2128.08  2142.43  2145.49
                             2180.61  2185.00  2200.89  2205.61  2209.50
                             2232.62  2346.82  2387.88  4184.15  4223.30
                             4381.39  4440.03  4450.50  4457.69  4496.33
                             4498.93  4513.08  4526.49  4533.20  4537.82
                             4544.71  4573.50  4639.23  4640.94  4661.93
                             5389.81

 Zero-point correction=                           0.293533 (Hartree/Particle)
 Thermal correction to Energy=                    0.308639
 Thermal correction to Enthalpy=                  0.309584
 Thermal correction to Gibbs Free Energy=         0.249788
 Sum of electronic and zero-point Energies=           -690.661742
 Sum of electronic and thermal Energies=              -690.646636
 Sum of electronic and thermal Enthalpies=            -690.645691
 Sum of electronic and thermal Free Energies=         -690.705487

                     E (Thermal)             CV                S
                      KCal/Mol        Cal/Mol-Kelvin    Cal/Mol-Kelvin
 Total                  193.674             58.301            125.851
 Electronic               0.000              0.000              0.000
 Translational            0.889              2.981             42.043
 Rotational               0.889              2.981             32.608
 Vibrational            191.897             52.340             51.200
 Vibration     1          0.594              1.984              5.843
 Vibration     2          0.594              1.981              5.320
 Vibration     3          0.595              1.980              5.066
 Vibration     4          0.595              1.978              4.826
 Vibration     5          0.606              1.942              3.279
 Vibration     6          0.613              1.920              2.896
 Vibration     7          0.626              1.877              2.416
 Vibration     8          0.633              1.856              2.242
 Vibration     9          0.647              1.812              1.966
 Vibration    10          0.660              1.771              1.764
 Vibration    11          0.693              1.673              1.414
 Vibration    12          0.698              1.658              1.372
 Vibration    13          0.709              1.627              1.289
 Vibration    14          0.722              1.589              1.196
 Vibration    15          0.761              1.482              0.983
 Vibration    16          0.778              1.440              0.913
 Vibration    17          0.801              1.380              0.822
 Vibration    18          0.818              1.340              0.767
 Vibration    19          0.826              1.319              0.741
 Vibration    20          0.879              1.197              0.601
 Vibration    21          0.911              1.129              0.534
 Vibration    22          0.921              1.106              0.513
 Vibration    23          0.977              0.996              0.421

 Optimization completed.
    -- Stationary point found.
 Normal termination of Gaussian 16 at Fri Dec 11 01:25:13 2020.

 ----------------------------------------------------------------------
 # B3LYP/6-311++G(d,p) empiricaldispersion=gd3bj scf=xqc pop=npa geom=c
 heck
 ----------------------------------------------------------------------

 ---------------------------------------
 CID_115373589_JID_6872_Energie_neutraal
 ---------------------------------------
 Structure from the checkpoint file:  "JID_6872.chk"
 Charge =  0 Multiplicity = 1

 SCF Done:  E(RB3LYP) =  -691.146270451     A.U. after   14 cycles
 Normal termination of Gaussian 16 at Fri Dec 11 01:29:50 2020.

 ----------------------------------------------------------------------
 # B3LYP/6-311++G(d,p) empiricaldispersion=gd3bj scf=xqc pop=npa geom=c
 heck
 ----------------------------------------------------------------------

 -------------------------------------
 CID_115373589_JID_6872_Energie_kation
 -------------------------------------
 Structure from the checkpoint file:  "JID_6872.chk"
 Charge =  1 Multiplicity = 2

 SCF Done:  E(UB3LYP) =  -690.857687912     A.U. after   28 cycles
 Normal termination of Gaussian 16 at Fri Dec 11 01:42:16 2020.
 Gaussian 16:  ES64L-G16RevA.03 25-Dec-2016

 ----------------------------------------------------------------------
 # B3LYP/6-311++G(d,p) empiricaldispersion=gd3bj scf=xqc pop=npa geom=c
 heck
 ----------------------------------------------------------------------

 ------------------------------------
 CID_115373589_JID_6872_Energie_anion
 ------------------------------------
 Structure from the checkpoint file:  "JID_6872.chk"
 Charge = -1 Multiplicity = 2

                         Standard orientation:
 ---------------------------------------------------------------------
 Center     Atomic      Atomic             Coordinates (Angstroms)
 Number     Number       Type             X           Y           Z
 ---------------------------------------------------------------------
      1          6           0        2.930440    2.728561    0.482969
      2          6           0        2.694119    1.281961    0.131483
      3          6           0        1.428898    0.700934    0.233002
      4          6           0        1.245874   -0.641387   -0.108003
      5          6           0        2.365013   -1.359699   -0.541673
      6          7           0        3.589396   -0.827172   -0.643098
      7          6           0        3.735460    0.458943   -0.312307
      8          6           0       -0.125274   -1.281406    0.010070
      9          6           0       -0.605033   -1.347873    1.501872
     10          6           0       -1.946821   -0.606461    1.516494
     11          7           0       -1.805876    0.351402    0.417529
     12          6           0       -1.225353   -0.416649   -0.672558
     13          6           0       -2.991969    1.127436    0.164698
     14          6           0       -3.360058    1.628738   -1.200046
     15          6           0       -4.222166    0.575872   -0.533290
     16          8           0       -0.040308   -2.567846   -0.595423
     17          1           0        2.653246    2.937797    1.523210
     18          1           0        3.983122    2.999940    0.355831
     19          1           0        2.333609    3.396050   -0.150400
     20          1           0        0.576328    1.285451    0.572911
     21          1           0        2.263878   -2.403355   -0.818964
     22          1           0        4.742860    0.865402   -0.403660
     23          1           0       -0.683191   -2.390812    1.822462
     24          1           0        0.117371   -0.854454    2.155762
     25          1           0       -2.148765   -0.082767    2.456659
     26          1           0       -2.788882   -1.302530    1.335893
     27          1           0       -0.820730    0.231183   -1.452558
     28          1           0       -1.951198   -1.109665   -1.145129
     29          1           0       -3.192046    1.811073    0.987941
     30          1           0       -3.739258    2.643220   -1.282765
     31          1           0       -2.762525    1.313802   -2.049670
     32          1           0       -4.174379   -0.429597   -0.941928
     33          1           0       -5.201237    0.856436   -0.155869
     34          1           0       -0.909156   -2.987841   -0.503617
 ---------------------------------------------------------------------

 SCF Done:  E(UB3LYP) =  -691.137423684     A.U. after   33 cycles
 SCF Done:  E(UB3LYP) =  -691.137423684     a.u. after    1 cycles

 The electronic state is 2-A.
 Alpha  occ. eigenvalues --  -19.02597 -14.21135 -14.19701 -10.13990 -10.10593
 Alpha  occ. eigenvalues --  -10.09634 -10.09433 -10.09184 -10.09060 -10.08481
 Alpha  occ. eigenvalues --  -10.08123 -10.07783 -10.07731 -10.07017 -10.06995
 Alpha  occ. eigenvalues --  -10.06926  -0.93433  -0.84635  -0.83302  -0.75215
 Alpha  occ. eigenvalues --   -0.71360  -0.68924  -0.64784  -0.62353  -0.60072
 Alpha  occ. eigenvalues --   -0.54954  -0.52145  -0.50901  -0.50175  -0.47578
 Alpha  occ. eigenvalues --   -0.46323  -0.43136  -0.41563  -0.39718  -0.39351
 Alpha  occ. eigenvalues --   -0.38144  -0.36353  -0.34745  -0.33662  -0.32915
 Alpha  occ. eigenvalues --   -0.31880  -0.31090  -0.30424  -0.29998  -0.29296
 Alpha  occ. eigenvalues --   -0.28916  -0.27472  -0.27108  -0.26619  -0.26297
 Alpha  occ. eigenvalues --   -0.24568  -0.23616  -0.21746  -0.20204  -0.18409
 Alpha  occ. eigenvalues --   -0.16973  -0.14964  -0.14817  -0.11598   0.04155
 Alpha virt. eigenvalues --    0.06230   0.06430   0.06864   0.07656   0.08483
 Alpha virt. eigenvalues --    0.08857   0.09241   0.09616   0.10021   0.10316
 Alpha virt. eigenvalues --    0.10754   0.11570   0.12225   0.12436   0.12559

  Beta  occ. eigenvalues --  -19.02563 -14.21135 -14.19585 -10.13992 -10.10581
  Beta  occ. eigenvalues --  -10.09610 -10.09400 -10.09155 -10.09064 -10.08491
  Beta  occ. eigenvalues --  -10.08114 -10.07757 -10.07720 -10.06966 -10.06910
  Beta  occ. eigenvalues --  -10.06910  -0.93364  -0.84616  -0.83144  -0.75188
  Beta  occ. eigenvalues --   -0.71229  -0.68862  -0.64730  -0.62295  -0.60010
  Beta  occ. eigenvalues --   -0.54857  -0.52039  -0.50821  -0.50119  -0.47512
  Beta  occ. eigenvalues --   -0.46263  -0.43083  -0.41511  -0.39661  -0.39300
  Beta  occ. eigenvalues --   -0.38093  -0.36297  -0.34690  -0.33580  -0.32871
  Beta  occ. eigenvalues --   -0.31856  -0.31042  -0.30366  -0.29945  -0.29261
  Beta  occ. eigenvalues --   -0.28842  -0.27221  -0.27059  -0.26580  -0.26258
  Beta  occ. eigenvalues --   -0.24529  -0.23569  -0.21703  -0.20178  -0.18226
  Beta  occ. eigenvalues --   -0.16561  -0.14839  -0.14617  -0.11563
  Beta virt. eigenvalues --    0.06383   0.06964   0.07229   0.07749   0.08226
  Beta virt. eigenvalues --    0.08717   0.08946   0.09292   0.10040   0.10377
  Beta virt. eigenvalues --    0.10534   0.10945   0.11706   0.12410   0.12619

 Mulliken charges and spin densities:
               1          2
     1  C   -0.346895  -0.249919
     2  C    0.307313  -0.086241
     3  C   -0.652908   0.260319
     4  C    0.667911  -0.118781
     5  C   -0.137795   0.042691
     6  N   -0.053742   0.054266
     7  C   -0.319052  -0.400134
     8  C    0.416271   0.011195
     9  C   -0.279643  -0.328244
    10  C    0.840840  -1.058802
    11  N    0.277568  -0.060136
    12  C   -0.695797  -0.203752
    13  C   -1.008925   1.039740
    14  C    0.050644  -0.388503
    15  C    1.202840  -1.625416
    16  O   -0.207646  -0.039827
    17  H   -0.080634   0.243600
    18  H    0.104931   0.034693
    19  H    0.107758   0.040854
    20  H    0.459776  -0.196603
    21  H    0.206711   0.010680
    22  H    0.127318   0.007064
    23  H   -0.065642   0.265601
    24  H    0.034240   0.119406
    25  H   -0.325229   0.493592
    26  H   -0.164417   0.304593
    27  H    0.138295  -0.004875
    28  H   -0.114707   0.217836
    29  H   -0.656144   0.899314
    30  H   -0.171861   0.324839
    31  H   -0.001650   0.142872
    32  H   -0.272353   0.423325
    33  H   -0.243093   0.403126
    34  H   -0.144283   0.421625
 Sum of Mulliken charges =  -1.00000   1.00000

 Dipole moment (field-independent basis, Debye):
    X=              4.5305    Y=              1.9805    Z=             -1.1493  Tot=              5.0762
 Quadrupole moment (field-independent basis, Debye-Ang):
   XX=           -179.5782   YY=           -138.9477   ZZ=           -128.3577
   XY=              8.9957   XZ=              7.4958   YZ=             -6.5179

 Summary of Natural Population Analysis:

                                       Natural Population
                Natural  -----------------------------------------------
    Atom  No    Charge         Core      Valence    Rydberg      Total
 -----------------------------------------------------------------------
      C    1   -0.29043      0.99964     2.28609    0.00470     3.29043
      C    2   -0.03874      0.99951     2.03198    0.00725     3.03874
      C    3   -0.07102      0.99947     2.06212    0.00943     3.07102
      C    4   -0.03070      0.99946     2.01974    0.01150     3.03070
      C    5    0.02209      0.99953     1.96398    0.01440     2.97791
      N    6   -0.21720      0.99970     2.70714    0.01035     3.71720
      C    7    0.02097      0.99954     1.96478    0.01470     2.97903
      C    8    0.12730      0.99947     1.85641    0.01682     2.87270
      C    9   -0.19770      0.99959     2.18943    0.00868     3.19770
      C   10   -0.08345      0.99962     2.07291    0.01092     3.08345
      N   11   -0.28114      0.99970     2.76823    0.01321     3.78114
      C   12   -0.09238      0.99958     2.08005    0.01275     3.09238
      C   13   -0.00670      0.99957     1.99284    0.01430     3.00670
      C   14   -0.20365      0.99963     2.19639    0.00764     3.20365
      C   15   -0.21208      0.99962     2.20304    0.00942     3.21208
      O   16   -0.37274      0.99988     3.36652    0.00634     4.37274
      H   17    0.10437      0.00000     0.39413    0.00151     0.39563
      H   18    0.09859      0.00000     0.40046    0.00095     0.40141
      H   19    0.10213      0.00000     0.39663    0.00124     0.39787
      H   20    0.10960      0.00000     0.38806    0.00234     0.39040
      H   21    0.09986      0.00000     0.39818    0.00196     0.40014
      H   22    0.08264      0.00000     0.41587    0.00148     0.41736
      H   23    0.10523      0.00000     0.39373    0.00104     0.39477
      H   24    0.10585      0.00000     0.39292    0.00123     0.39415
      H   25    0.09953      0.00000     0.39883    0.00165     0.40047
      H   26    0.08431      0.00000     0.41299    0.00270     0.41569
      H   27    0.10224      0.00000     0.39636    0.00141     0.39776
      H   28    0.08550      0.00000     0.41271    0.00179     0.41450
      H   29    0.10217      0.00000     0.39602    0.00180     0.39783
      H   30    0.10265      0.00000     0.39651    0.00084     0.39735
      H   31    0.10256      0.00000     0.39649    0.00095     0.39744
      H   32    0.10438      0.00000     0.39435    0.00127     0.39562
      H   33    0.10363      0.00000     0.39481    0.00156     0.39637
      H   34    0.23240      0.00000     0.26340    0.00420     0.26760
 =======================================================================
   * Total *    0.00005     15.99352    42.80409    0.20234    58.99995

 Normal termination of Gaussian 16 at Fri Dec 11 01:56:42 2020.
