 Gaussian 16, Revision A.03,

 -----------------------------------------------------------
 # opt freq B3LYP/6-31G(d) empiricaldispersion=gd3bj scf=xqc
 -----------------------------------------------------------

 -----------------------------
 CID_130655930_JID_27_neutraal
 -----------------------------
 Symbolic Z-matrix:
 Charge =  0 Multiplicity = 1

 SCF Done:  E(RB3LYP) =  -461.056250296     A.U. after   13 cycles
 SCF Done:  E(RB3LYP) =  -461.059339201     A.U. after   11 cycles
 SCF Done:  E(RB3LYP) =  -461.059718669     A.U. after   10 cycles
 SCF Done:  E(RB3LYP) =  -461.059925554     A.U. after   10 cycles
 SCF Done:  E(RB3LYP) =  -461.059928614     A.U. after   10 cycles
 SCF Done:  E(RB3LYP) =  -461.059923817     A.U. after    9 cycles
 SCF Done:  E(RB3LYP) =  -461.060198308     A.U. after   10 cycles
 SCF Done:  E(RB3LYP) =  -461.060113235     A.U. after   13 cycles
 SCF Done:  E(RB3LYP) =  -461.060933164     A.U. after   11 cycles
 SCF Done:  E(RB3LYP) =  -461.061083947     A.U. after   10 cycles
 SCF Done:  E(RB3LYP) =  -461.061332762     A.U. after   10 cycles
 SCF Done:  E(RB3LYP) =  -461.061358669     A.U. after    9 cycles
 SCF Done:  E(RB3LYP) =  -461.061361566     A.U. after    9 cycles
 SCF Done:  E(RB3LYP) =  -461.061362586     A.U. after    8 cycles
 SCF Done:  E(RB3LYP) =  -461.061362686     A.U. after    7 cycles
 SCF Done:  E(RB3LYP) =  -461.061362697     A.U. after    6 cycles
 Optimization completed.
    -- Stationary point found.
 Normal termination of Gaussian 16 at Tue Dec  8 10:17:59 2020.

 --------------------------------------------------------------------
 #N Geom=AllCheck Guess=TCheck SCRF=Check GenChk RB3LYP/6-31G(d) Freq
 --------------------------------------------------------------------

 Structure from the checkpoint file:  "JID_27.chk"
 -----------------------------
 CID_130655930_JID_27_neutraal
 -----------------------------
 Charge =  0 Multiplicity = 1

 SCF Done:  E(RB3LYP) =  -461.061362697     A.U. after    1 cycles

  Exact polarizability: 102.347   2.991  91.348   3.996  -1.635  78.997
 Approx polarizability: 125.668   5.241 122.624   5.706  -2.016 118.893

                      1                      2                      3
                      A                      A                      A
 Frequencies --     35.1714                51.1865                76.6644
 Red. masses --      3.1041                 2.7824                 2.3689
 Frc consts  --      0.0023                 0.0043                 0.0082
 IR Inten    --      0.2177                 2.6301                 0.2167

                      4                      5                      6
                      A                      A                      A
 Frequencies --    113.6246               151.6196               185.8164
 Red. masses --      2.6772                 1.8161                 1.2707
 Frc consts  --      0.0204                 0.0246                 0.0258
 IR Inten    --      0.9847                 0.5784                 0.7795

                      7                      8                      9
                      A                      A                      A
 Frequencies --    250.5504               271.6211               300.5975
 Red. masses --      1.4892                 2.0477                 2.2524
 Frc consts  --      0.0551                 0.0890                 0.1199
 IR Inten    --      0.1469                 1.0392                 0.1957

                     10                     11                     12
                      A                      A                      A
 Frequencies --    327.1160               385.7898               437.6262
 Red. masses --      2.7696                 2.0618                 2.6575
 Frc consts  --      0.1746                 0.1808                 0.2999
 IR Inten    --      0.8149                 6.7812                 3.2599

                     13                     14                     15
                      A                      A                      A
 Frequencies --    469.1348               498.9185               637.2204
 Red. masses --      3.6092                 2.1864                 2.0932
 Frc consts  --      0.4680                 0.3207                 0.5008
 IR Inten    --     10.6994                 8.0685                 3.4694

                     16                     17                     18
                      A                      A                      A
 Frequencies --    699.1808               802.0122               818.9700
 Red. masses --      3.6822                 2.5994                 1.3702
 Frc consts  --      1.0606                 0.9851                 0.5415
 IR Inten    --      5.4264                 7.3707                15.3856

                     19                     20                     21
                      A                      A                      A
 Frequencies --    822.9202               870.7734               893.2159
 Red. masses --      2.5133                 2.0873                 3.7971
 Frc consts  --      1.0028                 0.9325                 1.7849
 IR Inten    --     14.1844                 3.8024                 9.6945

                     22                     23                     24
                      A                      A                      A
 Frequencies --    934.2677               968.4828               980.0617
 Red. masses --      2.1387                 2.1784                 2.0168
 Frc consts  --      1.0999                 1.2038                 1.1414
 IR Inten    --      9.5518                 2.5582                25.2072

                     25                     26                     27
                      A                      A                      A
 Frequencies --    992.0289              1012.9933              1068.7104
 Red. masses --      1.5061                 3.1395                 2.6997
 Frc consts  --      0.8733                 1.8981                 1.8167
 IR Inten    --     32.3808                42.3555                41.8307

                     28                     29                     30
                      A                      A                      A
 Frequencies --   1079.5136              1107.7288              1127.0636
 Red. masses --      3.2188                 2.4374                 2.0671
 Frc consts  --      2.2100                 1.7622                 1.5470
 IR Inten    --     13.6366                16.1101                17.1182

                     31                     32                     33
                      A                      A                      A
 Frequencies --   1143.3277              1153.6320              1190.2250
 Red. masses --      1.9076                 1.5568                 1.2711
 Frc consts  --      1.4692                 1.2207                 1.0610
 IR Inten    --     23.9767                18.7764                 1.1571

                     34                     35                     36
                      A                      A                      A
 Frequencies --   1219.0144              1222.6170              1239.8666
 Red. masses --      1.7657                 1.5249                 1.6246
 Frc consts  --      1.5459                 1.3430                 1.4714
 IR Inten    --      4.3641                 1.4275                 3.6143

                     37                     38                     39
                      A                      A                      A
 Frequencies --   1261.4456              1303.7200              1313.7098
 Red. masses --      1.4350                 1.4262                 1.4174
 Frc consts  --      1.3454                 1.4282                 1.4413
 IR Inten    --     13.5314                 4.6001                 3.0431

                     40                     41                     42
                      A                      A                      A
 Frequencies --   1336.6028              1349.3327              1370.3698
 Red. masses --      1.1642                 1.2538                 1.4843
 Frc consts  --      1.2254                 1.3450                 1.6423
 IR Inten    --     12.6354                 2.0326                 7.1603

                     43                     44                     45
                      A                      A                      A
 Frequencies --   1382.1827              1387.4161              1417.1224
 Red. masses --      1.3748                 1.3008                 1.2937
 Frc consts  --      1.5475                 1.4753                 1.5308
 IR Inten    --     20.3715                 7.9171                 4.0969

                     46                     47                     48
                      A                      A                      A
 Frequencies --   1442.9882              1483.2586              1498.3910
 Red. masses --      1.3208                 1.1345                 1.1200
 Frc consts  --      1.6204                 1.4706                 1.4815
 IR Inten    --     16.5593                 2.4451                14.9345

                     49                     50                     51
                      A                      A                      A
 Frequencies --   1506.4412              1513.2640              1520.7565
 Red. masses --      1.0698                 1.0654                 1.0803
 Frc consts  --      1.4304                 1.4375                 1.4720
 IR Inten    --      2.6345                 2.1944                 4.7893

                     52                     53                     54
                      A                      A                      A
 Frequencies --   1526.2482              1528.0551              1535.2492
 Red. masses --      1.0508                 1.0733                 1.0850
 Frc consts  --      1.4422                 1.4766                 1.5068
 IR Inten    --      2.4757                 6.3735                 1.5094

                     55                     56                     57
                      A                      A                      A
 Frequencies --   1538.9963              1546.0174              2921.3674
 Red. masses --      1.0550                 1.0880                 1.0726
 Frc consts  --      1.4722                 1.5321                 5.3936
 IR Inten    --     13.1919                 1.5189                92.8690

                     58                     59                     60
                      A                      A                      A
 Frequencies --   3023.2230              3034.0170              3041.5842
 Red. masses --      1.0317                 1.0704                 1.0737
 Frc consts  --      5.5555                 5.8055                 5.8523
 IR Inten    --     67.4147                37.7631                47.0831

                     61                     62                     63
                      A                      A                      A
 Frequencies --   3056.3667              3060.1777              3068.1735
 Red. masses --      1.0359                 1.0670                 1.0865
 Frc consts  --      5.7013                 5.8874                 6.0262
 IR Inten    --     20.7616                21.3608                23.9436

                     64                     65                     66
                      A                      A                      A
 Frequencies --   3078.6452              3082.5374              3113.3046
 Red. masses --      1.0885                 1.1041                 1.0945
 Frc consts  --      6.0788                 6.1812                 6.2503
 IR Inten    --     20.4179                71.7727                23.9861

                     67                     68                     69
                      A                      A                      A
 Frequencies --   3121.2858              3122.4288              3130.5098
 Red. masses --      1.1008                 1.1009                 1.1022
 Frc consts  --      6.3189                 6.3238                 6.3640
 IR Inten    --     19.5900                77.0857                32.0282

                     70                     71                     72
                      A                      A                      A
 Frequencies --   3134.4771              3153.4093              3448.1038
 Red. masses --      1.1032                 1.0924                 1.0751
 Frc consts  --      6.3860                 6.4004                 7.5312
 IR Inten    --     26.7361                14.2604                 1.8337

 - Thermochemistry -
 -------------------
 Temperature   298.150 Kelvin.  Pressure   1.00000 Atm.
 Atom     1 has atomic number  6 and mass  12.00000

 Molecular mass:   144.12626 amu.
 Principal axes and moments of inertia in atomic units:
                           1         2         3
     Eigenvalues --   923.280982109.092032668.87450
           X            0.99983  -0.01633   0.00836
           Y            0.01635   0.99986  -0.00236
           Z           -0.00832   0.00249   0.99996
 This molecule is an asymmetric top.
 Rotational symmetry number  1.
 Warning -- assumption of classical behavior for rotation
           may cause significant error
 Rotational temperatures (Kelvin)      0.09381     0.04107     0.03245
 Rotational constants (GHZ):           1.95470     0.85570     0.67622
 Zero-point vibrational energy     621402.8 (Joules/Mol)
                                  148.51884 (Kcal/Mol)
 Warning -- explicit consideration of  14 degrees of freedom as
           vibrations may cause significant error
 Vibrational temperatures:     50.60    73.65   110.30   163.48   218.15
          (Kelvin)            267.35   360.49   390.80   432.49   470.65
                              555.07   629.65   674.98   717.83   916.82
                             1005.97  1153.92  1178.32  1184.00  1252.85
                             1285.14  1344.20  1393.43  1410.09  1427.31
                             1457.47  1537.64  1553.18  1593.77  1621.59
                             1644.99  1659.82  1712.47  1753.89  1759.07
                             1783.89  1814.94  1875.76  1890.14  1923.07
                             1941.39  1971.66  1988.65  1996.18  2038.92
                             2076.14  2134.08  2155.85  2167.43  2177.25
                             2188.03  2195.93  2198.53  2208.88  2214.27
                             2224.37  4203.20  4349.74  4365.27  4376.16
                             4397.43  4402.91  4414.42  4429.48  4435.08
                             4479.35  4490.83  4492.48  4504.11  4509.81
                             4537.05  4961.05

 Zero-point correction=                           0.236680 (Hartree/Particle)
 Thermal correction to Energy=                    0.247880
 Thermal correction to Enthalpy=                  0.248824
 Thermal correction to Gibbs Free Energy=         0.198737
 Sum of electronic and zero-point Energies=           -460.824683
 Sum of electronic and thermal Energies=              -460.813483
 Sum of electronic and thermal Enthalpies=            -460.812538
 Sum of electronic and thermal Free Energies=         -460.862625

                     E (Thermal)             CV                S
                      KCal/Mol        Cal/Mol-Kelvin    Cal/Mol-Kelvin
 Total                  155.547             40.898            105.417
 Electronic               0.000              0.000              0.000
 Translational            0.889              2.981             40.808
 Rotational               0.889              2.981             30.031
 Vibrational            153.770             34.937             34.578
 Vibration     1          0.594              1.982              5.514
 Vibration     2          0.595              1.977              4.771
 Vibration     3          0.599              1.965              3.975
 Vibration     4          0.607              1.938              3.206
 Vibration     5          0.619              1.901              2.652
 Vibration     6          0.632              1.859              2.269
 Vibration     7          0.663              1.762              1.727
 Vibration     8          0.675              1.726              1.586
 Vibration     9          0.693              1.673              1.414
 Vibration    10          0.711              1.621              1.274
 Vibration    11          0.754              1.501              1.016
 Vibration    12          0.798              1.388              0.834
 Vibration    13          0.826              1.319              0.740
 Vibration    14          0.854              1.252              0.661

 Optimization completed.
    -- Stationary point found.
 Normal termination of Gaussian 16 at Tue Dec  8 10:22:34 2020.

 ----------------------------------------------------------------------
 # B3LYP/6-311++G(d,p) empiricaldispersion=gd3bj scf=xqc pop=npa geom=c
 heck
 ----------------------------------------------------------------------

 -------------------------------------
 CID_130655930_JID_27_Energie_neutraal
 -------------------------------------
 Structure from the checkpoint file:  "JID_27.chk"
 Charge =  0 Multiplicity = 1

 SCF Done:  E(RB3LYP) =  -461.197064768     A.U. after   13 cycles
 Normal termination of Gaussian 16 at Tue Dec  8 10:24:19 2020.

 ----------------------------------------------------------------------
 # B3LYP/6-311++G(d,p) empiricaldispersion=gd3bj scf=xqc pop=npa geom=c
 heck
 ----------------------------------------------------------------------

 -----------------------------------
 CID_130655930_JID_27_Energie_kation
 -----------------------------------
 Structure from the checkpoint file:  "JID_27.chk"
 Charge =  1 Multiplicity = 2

 SCF Done:  E(UB3LYP) =  -460.912377456     A.U. after   18 cycles
 Normal termination of Gaussian 16 at Tue Dec  8 10:27:12 2020.
 Gaussian 16:  ES64L-G16RevA.03 25-Dec-2016

 ----------------------------------------------------------------------
 # B3LYP/6-311++G(d,p) empiricaldispersion=gd3bj scf=xqc pop=npa geom=c
 heck
 ----------------------------------------------------------------------

 ----------------------------------
 CID_130655930_JID_27_Energie_anion
 ----------------------------------
 Structure from the checkpoint file:  "JID_27.chk"
 Charge = -1 Multiplicity = 2

                         Standard orientation:
 ---------------------------------------------------------------------
 Center     Atomic      Atomic             Coordinates (Angstroms)
 Number     Number       Type             X           Y           Z
 ---------------------------------------------------------------------
      1          6           0        2.248490   -2.161576    0.079343
      2          6           0        1.992328   -0.749116    0.598333
      3          7           0        1.697330    0.191976   -0.487349
      4          6           0        1.686971    1.594930   -0.055427
      5          6           0        0.270797    1.880079    0.497062
      6          6           0       -0.636137    0.902107   -0.289840
      7          6           0        0.369098    0.026057   -1.097026
      8          7           0       -1.495871    0.180786    0.660583
      9          8           0       -2.191882   -0.852411   -0.070377
     10          6           0       -3.581626   -0.578701   -0.011314
     11          1           0        1.353909   -2.596699   -0.378390
     12          1           0        2.553229   -2.820352    0.900201
     13          1           0        3.041386   -2.145674   -0.674928
     14          1           0        1.208351   -0.784459    1.380510
     15          1           0        2.898478   -0.384969    1.096473
     16          1           0        1.874130    2.226148   -0.934754
     17          1           0        2.486211    1.786969    0.666172
     18          1           0        0.214181    1.654261    1.568868
     19          1           0       -0.033231    2.923166    0.375189
     20          1           0       -1.313004    1.431460   -0.968121
     21          1           0        0.058782   -1.019102   -1.134249
     22          1           0        0.416685    0.390778   -2.131472
     23          1           0       -0.894296   -0.361609    1.283698
     24          1           0       -3.952198   -0.594595    1.021690
     25          1           0       -3.823198    0.395186   -0.458205
     26          1           0       -4.064095   -1.373233   -0.589088
 ---------------------------------------------------------------------

 SCF Done:  E(UB3LYP) =  -461.179200646     A.U. after   26 cycles

 The electronic state is 2-A.
 Alpha  occ. eigenvalues --  -19.04483 -14.24507 -14.19604 -10.10551 -10.09268
 Alpha  occ. eigenvalues --  -10.08944 -10.08461 -10.07942 -10.06279 -10.05716
 Alpha  occ. eigenvalues --   -0.96239  -0.82938  -0.74995  -0.66933  -0.62185
 Alpha  occ. eigenvalues --   -0.60880  -0.55856  -0.52441  -0.48307  -0.46225
 Alpha  occ. eigenvalues --   -0.41116  -0.39564  -0.37500  -0.36088  -0.35429
 Alpha  occ. eigenvalues --   -0.34488  -0.32681  -0.31819  -0.29091  -0.28420
 Alpha  occ. eigenvalues --   -0.27666  -0.26212  -0.25048  -0.24466  -0.24212
 Alpha  occ. eigenvalues --   -0.23770  -0.22563  -0.16783  -0.15416  -0.10708
 Alpha  occ. eigenvalues --    0.04772
 Alpha virt. eigenvalues --    0.06782   0.07326   0.08275   0.09183   0.09781
 Alpha virt. eigenvalues --    0.10081   0.10396   0.10835   0.12002   0.12165
 Alpha virt. eigenvalues --    0.12425   0.13859   0.14049   0.14862   0.15758

  Beta  occ. eigenvalues --  -19.04475 -14.24492 -14.19606 -10.10515 -10.09254
  Beta  occ. eigenvalues --  -10.08914 -10.08438 -10.07930 -10.06258 -10.05694
  Beta  occ. eigenvalues --   -0.96223  -0.82922  -0.74969  -0.66895  -0.62142
  Beta  occ. eigenvalues --   -0.60839  -0.55789  -0.52369  -0.48253  -0.46163
  Beta  occ. eigenvalues --   -0.41072  -0.39533  -0.37457  -0.36058  -0.35391
  Beta  occ. eigenvalues --   -0.34449  -0.32639  -0.31780  -0.29056  -0.28389
  Beta  occ. eigenvalues --   -0.27618  -0.26169  -0.25010  -0.24429  -0.24177
  Beta  occ. eigenvalues --   -0.23734  -0.22527  -0.16764  -0.15393  -0.10693
  Beta virt. eigenvalues --    0.07025   0.07761   0.08231   0.08751   0.09937
  Beta virt. eigenvalues --    0.10347   0.10634   0.10779   0.11253   0.12447
  Beta virt. eigenvalues --    0.12535   0.12966   0.14233   0.14434   0.15001

 Mulliken charges and spin densities:
               1          2
     1  C    0.954497  -1.406159
     2  C   -0.110161  -0.147413
     3  N   -0.010240   0.168839
     4  C   -0.350868   0.140340
     5  C    0.706041  -1.245191
     6  C   -0.753045   0.956092
     7  C    0.509253  -1.357941
     8  N   -0.147794  -0.048915
     9  O   -0.111792   0.051486
    10  C    0.868540  -1.101369
    11  H   -0.102876   0.240060
    12  H   -0.288443   0.409722
    13  H    0.041086   0.101615
    14  H   -0.228366   0.307651
    15  H   -0.397974   0.568431
    16  H   -0.197413   0.359165
    17  H   -0.312521   0.461836
    18  H    0.078105   0.066565
    19  H   -0.554820   0.720481
    20  H   -0.031604   0.235803
    21  H    0.426607  -0.272462
    22  H   -0.300889   0.464418
    23  H    0.228654   0.016044
    24  H   -0.277201   0.410203
    25  H   -0.428839   0.564176
    26  H   -0.207936   0.336523
 Sum of Mulliken charges =  -1.00000   1.00000

 Dipole moment (field-independent basis, Debye):
    X=              0.6020    Y=             -1.6667    Z=             -0.2887  Tot=              1.7954
 Quadrupole moment (field-independent basis, Debye-Ang):
   XX=           -128.5614   YY=           -107.9163   ZZ=            -96.8037
   XY=              0.9306   XZ=             -4.8052   YZ=              3.7556

 Summary of Natural Population Analysis:

                                       Natural Population
                Natural  -----------------------------------------------
    Atom  No    Charge         Core      Valence    Rydberg      Total
 -----------------------------------------------------------------------
      C    1   -0.28860      0.99966     2.28264    0.00630     3.28860
      C    2   -0.08327      0.99961     2.07202    0.01164     3.08327
      N    3   -0.28259      0.99974     2.76838    0.01448     3.78259
      C    4   -0.08428      0.99962     2.07350    0.01116     3.08428
      C    5   -0.20482      0.99961     2.19645    0.00875     3.20482
      C    6   -0.02595      0.99960     2.01216    0.01419     3.02595
      C    7   -0.09888      0.99960     2.08730    0.01198     3.09888
      N    8   -0.17628      0.99972     2.66346    0.01310     3.67628
      O    9   -0.23643      0.99990     3.22649    0.01004     4.23643
      C   10   -0.09143      0.99963     2.08258    0.00922     3.09143
      H   11    0.09608      0.00000     0.40273    0.00119     0.40392
      H   12    0.09902      0.00000     0.39998    0.00101     0.40098
      H   13    0.09902      0.00000     0.39954    0.00144     0.40098
      H   14    0.07296      0.00000     0.42464    0.00240     0.42704
      H   15    0.09532      0.00000     0.40270    0.00198     0.40468
      H   16    0.09281      0.00000     0.40564    0.00155     0.40719
      H   17    0.09826      0.00000     0.40030    0.00144     0.40174
      H   18    0.09898      0.00000     0.39949    0.00152     0.40102
      H   19    0.10657      0.00000     0.39170    0.00173     0.39343
      H   20    0.09736      0.00000     0.40063    0.00202     0.40264
      H   21    0.10506      0.00000     0.39310    0.00184     0.39494
      H   22    0.09652      0.00000     0.40204    0.00144     0.40348
      H   23    0.16690      0.00000     0.32891    0.00418     0.33310
      H   24    0.07989      0.00000     0.41787    0.00224     0.42011
      H   25    0.08131      0.00000     0.41639    0.00230     0.41869
      H   26    0.08647      0.00000     0.41178    0.00175     0.41353
 =======================================================================
   * Total *   -0.00000      9.99669    29.86240    0.14090    40.00000

 Normal termination of Gaussian 16 at Tue Dec  8 10:31:13 2020.
