 Gaussian 16, Revision A.03,

 -----------------------------------------------------------
 # opt freq B3LYP/6-31G(d) empiricaldispersion=gd3bj scf=xqc
 -----------------------------------------------------------

 ------------------------------
 CID_70340611_JID_6679_neutraal
 ------------------------------
 Symbolic Z-matrix:
 Charge =  0 Multiplicity = 1

 SCF Done:  E(RB3LYP) =  -726.929278368     A.U. after   15 cycles
 SCF Done:  E(RB3LYP) =  -726.934795108     A.U. after   12 cycles
 SCF Done:  E(RB3LYP) =  -726.935629579     A.U. after   12 cycles
 SCF Done:  E(RB3LYP) =  -726.936250878     A.U. after   11 cycles
 SCF Done:  E(RB3LYP) =  -726.936544107     A.U. after   12 cycles
 SCF Done:  E(RB3LYP) =  -726.936726106     A.U. after   10 cycles
 SCF Done:  E(RB3LYP) =  -726.936758295     A.U. after   11 cycles
 SCF Done:  E(RB3LYP) =  -726.936783351     A.U. after    9 cycles
 SCF Done:  E(RB3LYP) =  -726.936798097     A.U. after   10 cycles
 SCF Done:  E(RB3LYP) =  -726.936920657     A.U. after   12 cycles
 SCF Done:  E(RB3LYP) =  -726.938589549     A.U. after   11 cycles
 SCF Done:  E(RB3LYP) =  -726.938591678     A.U. after    8 cycles
 SCF Done:  E(RB3LYP) =  -726.938593061     A.U. after    8 cycles
 SCF Done:  E(RB3LYP) =  -726.938593243     A.U. after    7 cycles
 SCF Done:  E(RB3LYP) =  -726.938593419     A.U. after    7 cycles
 Optimization completed.
    -- Stationary point found.
 Normal termination of Gaussian 16 at Fri Dec 11 00:28:45 2020.

 --------------------------------------------------------------------
 #N Geom=AllCheck Guess=TCheck SCRF=Check GenChk RB3LYP/6-31G(d) Freq
 --------------------------------------------------------------------

 Structure from the checkpoint file:  "JID_6679.chk"
 ------------------------------
 CID_70340611_JID_6679_neutraal
 ------------------------------
 Charge =  0 Multiplicity = 1

 SCF Done:  E(RB3LYP) =  -726.938593419     A.U. after    1 cycles

  Exact polarizability: 226.128   1.114 138.966   2.159  -0.242  81.899
 Approx polarizability: 280.305   4.263 240.382   7.443  -0.729 121.743

                      1                      2                      3
                      A                      A                      A
 Frequencies --     29.6290                43.1292                62.9188
 Red. masses --      3.8725                 3.9468                 3.9438
 Frc consts  --      0.0020                 0.0043                 0.0092
 IR Inten    --      0.2871                 3.3569                 0.1138

                      4                      5                      6
                      A                      A                      A
 Frequencies --    103.4354               115.4683               155.3942
 Red. masses --      3.3807                 4.1712                 2.2958
 Frc consts  --      0.0213                 0.0328                 0.0327
 IR Inten    --      1.1704                 1.2915                 4.1914

                      7                      8                      9
                      A                      A                      A
 Frequencies --    158.7834               184.0872               199.2336
 Red. masses --      1.4737                 2.9301                 1.3729
 Frc consts  --      0.0219                 0.0585                 0.0321
 IR Inten    --      0.7710                 0.3116                 3.1286

                     10                     11                     12
                      A                      A                      A
 Frequencies --    218.1753               232.3202               268.7996
 Red. masses --      2.7647                 1.9992                 2.4066
 Frc consts  --      0.0775                 0.0636                 0.1024
 IR Inten    --      4.8144                 6.9950                 1.4314

                     13                     14                     15
                      A                      A                      A
 Frequencies --    293.1540               330.8087               358.8864
 Red. masses --      5.2363                 3.1612                 4.5109
 Frc consts  --      0.2651                 0.2038                 0.3423
 IR Inten    --      1.9260                 9.8936                 4.5742

                     16                     17                     18
                      A                      A                      A
 Frequencies --    388.5431               412.0479               425.5606
 Red. masses --      5.3178                 4.2968                 3.3959
 Frc consts  --      0.4730                 0.4298                 0.3623
 IR Inten    --      0.2680                 3.2095                 0.1575

                     19                     20                     21
                      A                      A                      A
 Frequencies --    516.0408               537.7092               552.8423
 Red. masses --      3.0404                 2.9116                 3.5174
 Frc consts  --      0.4770                 0.4960                 0.6334
 IR Inten    --      3.8662                 4.1599                10.4953

                     22                     23                     24
                      A                      A                      A
 Frequencies --    598.1711               646.0201               679.7331
 Red. masses --      5.2107                 5.7588                 4.0245
 Frc consts  --      1.0985                 1.4160                 1.0956
 IR Inten    --     24.4967                 4.4141                15.6567

                     25                     26                     27
                      A                      A                      A
 Frequencies --    715.9395               743.5349               747.8867
 Red. masses --      4.4310                10.9618                 5.5570
 Frc consts  --      1.3382                 3.5706                 1.8313
 IR Inten    --      0.2647                17.0435                 3.1653

                     28                     29                     30
                      A                      A                      A
 Frequencies --    803.4959               805.6920               832.9021
 Red. masses --      2.6384                 1.3997                 1.4024
 Frc consts  --      1.0036                 0.5353                 0.5732
 IR Inten    --     10.2988                17.5159                 0.6537

                     31                     32                     33
                      A                      A                      A
 Frequencies --    851.3238               871.3701               910.1001
 Red. masses --      1.5428                 1.8876                 1.3200
 Frc consts  --      0.6588                 0.8444                 0.6442
 IR Inten    --     42.0100                 5.1310                 0.5698

                     34                     35                     36
                      A                      A                      A
 Frequencies --    920.4701               951.4847               971.1183
 Red. masses --      2.3791                 2.5640                 1.2754
 Frc consts  --      1.1876                 1.3676                 0.7087
 IR Inten    --     10.0557                22.7373                 0.9182

                     37                     38                     39
                      A                      A                      A
 Frequencies --   1002.7869              1032.7800              1050.6874
 Red. masses --      2.1035                 2.7963                 2.2162
 Frc consts  --      1.2463                 1.7573                 1.4415
 IR Inten    --      6.3171                 1.1669                11.1706

                     40                     41                     42
                      A                      A                      A
 Frequencies --   1078.3411              1131.5801              1133.6991
 Red. masses --      3.6851                 2.0884                 1.6817
 Frc consts  --      2.5247                 1.5755                 1.2735
 IR Inten    --     48.0331                23.5230                18.6157

                     43                     44                     45
                      A                      A                      A
 Frequencies --   1139.5367              1155.3550              1177.3920
 Red. masses --      2.0864                 1.4405                 1.4341
 Frc consts  --      1.5963                 1.1329                 1.1713
 IR Inten    --    117.7124                31.9858                 2.9659

                     46                     47                     48
                      A                      A                      A
 Frequencies --   1190.4669              1205.9489              1224.1008
 Red. masses --      2.2615                 1.6387                 1.2049
 Frc consts  --      1.8884                 1.4041                 1.0637
 IR Inten    --     17.2047                 5.6990                39.3927

                     49                     50                     51
                      A                      A                      A
 Frequencies --   1239.9503              1264.4404              1280.9653
 Red. masses --      1.2277                 1.6872                 2.8491
 Frc consts  --      1.1121                 1.5893                 2.7544
 IR Inten    --     13.9669                15.3664               466.9749

                     52                     53                     54
                      A                      A                      A
 Frequencies --   1300.3580              1325.4440              1330.7416
 Red. masses --      2.8920                 2.0496                 1.4014
 Frc consts  --      2.8812                 2.1215                 1.4621
 IR Inten    --    112.0934                78.3357                 9.4729

                     55                     56                     57
                      A                      A                      A
 Frequencies --   1355.6085              1361.8026              1368.6888
 Red. masses --      1.4641                 4.2283                 1.9677
 Frc consts  --      1.5853                 4.6200                 2.1718
 IR Inten    --     15.6989               132.3294                11.2998

                     58                     59                     60
                      A                      A                      A
 Frequencies --   1420.4130              1431.4329              1443.2899
 Red. masses --      1.2785                 2.2336                 1.3124
 Frc consts  --      1.5198                 2.6965                 1.6107
 IR Inten    --      0.3539                 3.6773                30.2218

                     61                     62                     63
                      A                      A                      A
 Frequencies --   1449.4802              1473.4392              1481.5459
 Red. masses --      1.8488                 1.4856                 2.8466
 Frc consts  --      2.2886                 1.9003                 3.6814
 IR Inten    --    292.2843               109.7352                54.4260

                     64                     65                     66
                      A                      A                      A
 Frequencies --   1516.4142              1521.2824              1531.8806
 Red. masses --      1.0448                 1.0471                 1.0516
 Frc consts  --      1.4156                 1.4277                 1.4540
 IR Inten    --      4.3304                16.1758                 2.7336

                     67                     68                     69
                      A                      A                      A
 Frequencies --   1538.0871              1547.0538              1554.1321
 Red. masses --      1.0773                 1.1062                 1.1581
 Frc consts  --      1.5015                 1.5599                 1.6481
 IR Inten    --      8.3635                16.1209               129.3430

                     70                     71                     72
                      A                      A                      A
 Frequencies --   1563.4561              1568.3195              1633.9653
 Red. masses --      1.1271                 2.2859                 6.7182
 Frc consts  --      1.6233                 3.3127                10.5680
 IR Inten    --      4.9885               297.9063                15.3974

                     73                     74                     75
                      A                      A                      A
 Frequencies --   1683.4529              1811.2552              2990.4520
 Red. masses --      5.8437                11.1856                 1.0732
 Frc consts  --      9.7575                21.6207                 5.6545
 IR Inten    --      1.8791               305.0767                55.9694

                     76                     77                     78
                      A                      A                      A
 Frequencies --   3007.8979              3021.2918              3039.4848
 Red. masses --      1.0533                 1.0694                 1.0683
 Frc consts  --      5.6146                 5.7515                 5.8152
 IR Inten    --    105.9173                36.1164                47.6717

                     79                     80                     81
                      A                      A                      A
 Frequencies --   3060.5145              3091.9113              3092.5994
 Red. masses --      1.0365                 1.0878                 1.0902
 Frc consts  --      5.7199                 6.1270                 6.1433
 IR Inten    --     17.7977                36.1899                51.4633

                     82                     83                     84
                      A                      A                      A
 Frequencies --   3106.1348              3108.6960              3129.5785
 Red. masses --      1.0968                 1.0972                 1.1009
 Frc consts  --      6.2349                 6.2472                 6.3527
 IR Inten    --     26.5274                21.3111                33.5883

                     85                     86                     87
                      A                      A                      A
 Frequencies --   3144.9938              3171.4921              3210.9284
 Red. masses --      1.1033                 1.0981                 1.0880
 Frc consts  --      6.4293                 6.5077                 6.6088
 IR Inten    --     41.9174                 1.6189                25.2502

                     88                     89                     90
                      A                      A                      A
 Frequencies --   3213.0040              3229.9656              3272.7241
 Red. masses --      1.0893                 1.0925                 1.0920
 Frc consts  --      6.6253                 6.7154                 6.8910
 IR Inten    --      2.6448                13.0974                 3.7176

 - Thermochemistry -
 -------------------
 Temperature   298.150 Kelvin.  Pressure   1.00000 Atm.
 Atom     1 has atomic number  6 and mass  12.00000

 Molecular mass:   220.12118 amu.
 Principal axes and moments of inertia in atomic units:
                           1         2         3
     Eigenvalues --  1058.979128094.699668819.01853
           X            0.99998  -0.00243  -0.00646
           Y            0.00246   0.99998   0.00492
           Z            0.00645  -0.00493   0.99997
 This molecule is an asymmetric top.
 Rotational symmetry number  1.
 Warning -- assumption of classical behavior for rotation
           may cause significant error
 Rotational temperatures (Kelvin)      0.08179     0.01070     0.00982
 Rotational constants (GHZ):           1.70423     0.22295     0.20464
 Zero-point vibrational energy     712061.9 (Joules/Mol)
                                  170.18688 (Kcal/Mol)
 Warning -- explicit consideration of  22 degrees of freedom as
           vibrations may cause significant error
 Vibrational temperatures:     42.63    62.05    90.53   148.82   166.13
          (Kelvin)            223.58   228.45   264.86   286.65   313.91
                              334.26   386.74   421.78   475.96   516.36
                              559.03   592.85   612.29   742.47   773.64
                              795.42   860.63   929.48   977.98  1030.08
                             1069.78  1076.04  1156.05  1159.21  1198.36
                             1224.87  1253.71  1309.43  1324.35  1368.97
                             1397.22  1442.79  1485.94  1511.70  1551.49
                             1628.09  1631.14  1639.54  1662.30  1694.00
                             1712.82  1735.09  1761.21  1784.01  1819.25
                             1843.02  1870.93  1907.02  1914.64  1950.42
                             1959.33  1969.24  2043.66  2059.51  2076.57
                             2085.48  2119.95  2131.61  2181.78  2188.79
                             2204.03  2212.96  2225.87  2236.05  2249.46
                             2256.46  2350.91  2422.11  2605.99  4302.59
                             4327.69  4346.97  4373.14  4403.40  4448.57
                             4449.56  4469.04  4472.72  4502.77  4524.94
                             4563.07  4619.81  4622.80  4647.20  4708.72

 Zero-point correction=                           0.271210 (Hartree/Particle)
 Thermal correction to Energy=                    0.286296
 Thermal correction to Enthalpy=                  0.287240
 Thermal correction to Gibbs Free Energy=         0.228075
 Sum of electronic and zero-point Energies=           -726.667383
 Sum of electronic and thermal Energies=              -726.652298
 Sum of electronic and thermal Enthalpies=            -726.651353
 Sum of electronic and thermal Free Energies=         -726.710519

                     E (Thermal)             CV                S
                      KCal/Mol        Cal/Mol-Kelvin    Cal/Mol-Kelvin
 Total                  179.653             56.859            124.524
 Electronic               0.000              0.000              0.000
 Translational            0.889              2.981             42.070
 Rotational               0.889              2.981             32.691
 Vibrational            177.876             50.897             49.763
 Vibration     1          0.593              1.984              5.854
 Vibration     2          0.595              1.980              5.110
 Vibration     3          0.597              1.972              4.363
 Vibration     4          0.605              1.946              3.389
 Vibration     5          0.608              1.937              3.175
 Vibration     6          0.620              1.897              2.605
 Vibration     7          0.621              1.893              2.564
 Vibration     8          0.631              1.862              2.287
 Vibration     9          0.637              1.841              2.140
 Vibration    10          0.646              1.813              1.974
 Vibration    11          0.653              1.792              1.861
 Vibration    12          0.673              1.731              1.604
 Vibration    13          0.688              1.686              1.456
 Vibration    14          0.713              1.614              1.256
 Vibration    15          0.734              1.557              1.127
 Vibration    16          0.757              1.495              1.006
 Vibration    17          0.776              1.444              0.919
 Vibration    18          0.787              1.415              0.873
 Vibration    19          0.871              1.214              0.619
 Vibration    20          0.893              1.167              0.570
 Vibration    21          0.908              1.133              0.538
 Vibration    22          0.956              1.036              0.453

                           ! Non-Optimized Parameters !
 Normal termination of Gaussian 16 at Fri Dec 11 00:37:37 2020.

 ----------------------------------------------------------------------
 # B3LYP/6-311++G(d,p) empiricaldispersion=gd3bj scf=xqc pop=npa geom=c
 heck
 ----------------------------------------------------------------------

 --------------------------------------
 CID_70340611_JID_6679_Energie_neutraal
 --------------------------------------
 Structure from the checkpoint file:  "JID_6679.chk"
 Charge =  0 Multiplicity = 1

 SCF Done:  E(RB3LYP) =  -727.136817396     A.U. after   15 cycles
 Normal termination of Gaussian 16 at Fri Dec 11 00:41:29 2020.

 ----------------------------------------------------------------------
 # B3LYP/6-311++G(d,p) empiricaldispersion=gd3bj scf=xqc pop=npa geom=c
 heck
 ----------------------------------------------------------------------

 ------------------------------------
 CID_70340611_JID_6679_Energie_kation
 ------------------------------------
 Structure from the checkpoint file:  "JID_6679.chk"
 Charge =  1 Multiplicity = 2

 SCF Done:  E(UB3LYP) =  -726.875620213     A.U. after   21 cycles
 Normal termination of Gaussian 16 at Fri Dec 11 00:49:57 2020.
 Gaussian 16:  ES64L-G16RevA.03 25-Dec-2016

 ----------------------------------------------------------------------
 # B3LYP/6-311++G(d,p) empiricaldispersion=gd3bj scf=xqc pop=npa geom=c
 heck
 ----------------------------------------------------------------------

 -----------------------------------
 CID_70340611_JID_6679_Energie_anion
 -----------------------------------
 Structure from the checkpoint file:  "JID_6679.chk"
 Charge = -1 Multiplicity = 2

                         Standard orientation:
 ---------------------------------------------------------------------
 Center     Atomic      Atomic             Coordinates (Angstroms)
 Number     Number       Type             X           Y           Z
 ---------------------------------------------------------------------
      1          6           0       -5.104101    0.642030    1.197049
      2          6           0       -4.899193    0.216941   -0.252868
      3          8           0       -3.901471   -0.792403   -0.390062
      4          6           0       -2.581269   -0.440041   -0.307249
      5          6           0       -2.094040    0.864704   -0.217243
      6          6           0       -0.716486    1.094975   -0.161331
      7          6           0        0.198199    0.037291   -0.197318
      8          6           0       -0.299641   -1.276123   -0.293150
      9          6           0       -1.666408   -1.501375   -0.339989
     10          7           0        1.583815    0.305774   -0.171489
     11          6           0        2.103298    1.667986   -0.177896
     12          6           0        3.620098    1.444850   -0.257173
     13          7           0        3.761979    0.125810    0.328450
     14          6           0        2.581487   -0.595732    0.203704
     15          8           0        2.464880   -1.796338    0.395420
     16          6           0        5.033001   -0.562724    0.311973
     17          1           0       -5.368856   -0.226076    1.808634
     18          1           0       -5.915233    1.376027    1.264955
     19          1           0       -4.198553    1.089682    1.616602
     20          1           0       -5.809204   -0.245159   -0.645750
     21          1           0       -4.663166    1.075467   -0.895920
     22          1           0       -2.763484    1.715808   -0.184399
     23          1           0       -0.372120    2.119816   -0.081422
     24          1           0        0.393197   -2.104913   -0.314053
     25          1           0       -2.053861   -2.512639   -0.411790
     26          1           0        1.718647    2.233091   -1.031461
     27          1           0        1.824699    2.198256    0.744167
     28          1           0        4.182634    2.199704    0.301427
     29          1           0        3.973134    1.455211   -1.301699
     30          1           0        5.455507   -0.615318   -0.703869
     31          1           0        5.749843   -0.050063    0.962281
     32          1           0        4.869315   -1.576749    0.679660
 ---------------------------------------------------------------------

 SCF Done:  E(UB3LYP) =  -727.126943293     A.U. after   33 cycles
 SCF Done:  E(UB3LYP) =  -727.126943293     a.u. after    1 cycles

 The electronic state is 2-A.
 Alpha  occ. eigenvalues --  -19.06095 -18.99698 -14.25934 -14.24620 -10.20310
 Alpha  occ. eigenvalues --  -10.14122 -10.13988 -10.12459 -10.12291 -10.11945
 Alpha  occ. eigenvalues --  -10.11005 -10.08475 -10.08331 -10.08063 -10.08055
 Alpha  occ. eigenvalues --  -10.07890  -0.97679  -0.96683  -0.88494  -0.83321
 Alpha  occ. eigenvalues --   -0.75982  -0.69243  -0.67426  -0.65856  -0.64328
 Alpha  occ. eigenvalues --   -0.61471  -0.56711  -0.55661  -0.51623  -0.50877
 Alpha  occ. eigenvalues --   -0.47099  -0.44353  -0.42757  -0.42322  -0.40729
 Alpha  occ. eigenvalues --   -0.39063  -0.37022  -0.36723  -0.36112  -0.34978
 Alpha  occ. eigenvalues --   -0.34768  -0.33911  -0.32675  -0.32499  -0.31495
 Alpha  occ. eigenvalues --   -0.30787  -0.30460  -0.29383  -0.29132  -0.28482
 Alpha  occ. eigenvalues --   -0.28275  -0.26575  -0.24270  -0.23702  -0.18797
 Alpha  occ. eigenvalues --   -0.18221  -0.16705  -0.15627  -0.10988   0.03835
 Alpha virt. eigenvalues --    0.05137   0.06658   0.07454   0.07583   0.07844
 Alpha virt. eigenvalues --    0.08173   0.08385   0.09099   0.09681   0.10093
 Alpha virt. eigenvalues --    0.10364   0.10985   0.11513   0.12227   0.12326

  Beta  occ. eigenvalues --  -19.06091 -18.99696 -14.25931 -14.24620 -10.20305
  Beta  occ. eigenvalues --  -10.14105 -10.13989 -10.12460 -10.12259 -10.11900
  Beta  occ. eigenvalues --  -10.10982 -10.08464 -10.08317 -10.08054 -10.08037
  Beta  occ. eigenvalues --  -10.07889  -0.97669  -0.96677  -0.88482  -0.83309
  Beta  occ. eigenvalues --   -0.75972  -0.69220  -0.67391  -0.65839  -0.64288
  Beta  occ. eigenvalues --   -0.61433  -0.56660  -0.55608  -0.51591  -0.50842
  Beta  occ. eigenvalues --   -0.47077  -0.44326  -0.42716  -0.42292  -0.40701
  Beta  occ. eigenvalues --   -0.39034  -0.36980  -0.36693  -0.36074  -0.34952
  Beta  occ. eigenvalues --   -0.34744  -0.33895  -0.32652  -0.32474  -0.31468
  Beta  occ. eigenvalues --   -0.30737  -0.30435  -0.29357  -0.29103  -0.28453
  Beta  occ. eigenvalues --   -0.28228  -0.26559  -0.24247  -0.23683  -0.18778
  Beta  occ. eigenvalues --   -0.18213  -0.16696  -0.15608  -0.10973
  Beta virt. eigenvalues --    0.05947   0.06355   0.07385   0.07564   0.07880
  Beta virt. eigenvalues --    0.08360   0.08708   0.08737   0.09267   0.10110
  Beta virt. eigenvalues --    0.10414   0.10878   0.11169   0.11864   0.12364

 Mulliken charges and spin densities:
               1          2
     1  C    0.465716  -0.843478
     2  C   -0.234038  -0.006500
     3  O   -0.123658   0.009462
     4  C   -1.255667   0.660897
     5  C   -0.281385   0.593938
     6  C    0.813981  -0.298455
     7  C    1.585956  -1.931847
     8  C   -0.333478   0.164552
     9  C   -0.619409   0.114611
    10  N   -0.112510   0.134395
    11  C   -0.873647   0.863968
    12  C    2.473401  -3.144547
    13  N   -0.274016   0.268063
    14  C   -0.014156   0.139813
    15  O   -0.398264   0.006376
    16  C    0.326035  -0.633196
    17  H    0.068848   0.075562
    18  H   -0.310106   0.438464
    19  H   -0.003963   0.140473
    20  H   -0.206843   0.389023
    21  H   -0.093982   0.218480
    22  H   -0.006100   0.233688
    23  H   -0.658506   0.865200
    24  H    0.198738   0.041558
    25  H    0.174929  -0.001231
    26  H   -0.252683   0.420295
    27  H    0.017485   0.173408
    28  H   -0.732510   0.924057
    29  H   -0.235794   0.415916
    30  H   -0.070055   0.210322
    31  H   -0.170711   0.323158
    32  H    0.136394   0.033573
 Sum of Mulliken charges =  -1.00000   1.00000

 Dipole moment (field-independent basis, Debye):
    X=             -1.9007    Y=             -4.9249    Z=             -0.1515  Tot=              5.2811
 Quadrupole moment (field-independent basis, Debye-Ang):
   XX=           -203.8062   YY=           -145.4948   ZZ=           -124.6315
   XY=             -5.5932   XZ=              0.7393   YZ=              1.2950

 Summary of Natural Population Analysis:

                                       Natural Population
                Natural  -----------------------------------------------
    Atom  No    Charge         Core      Valence    Rydberg      Total
 -----------------------------------------------------------------------
      C    1   -0.30116      0.99966     2.29671    0.00479     3.30116
      C    2   -0.01236      0.99959     2.00044    0.01234     3.01236
      O    3   -0.27932      0.99986     3.27023    0.00923     4.27932
      C    4    0.14792      0.99937     1.83860    0.01411     2.85208
      C    5   -0.13804      0.99952     2.12968    0.00883     3.13804
      C    6   -0.11073      0.99954     2.10214    0.00904     3.11073
      C    7    0.07320      0.99948     1.91571    0.01161     2.92680
      C    8   -0.10369      0.99954     2.09655    0.00760     3.10369
      C    9   -0.11457      0.99953     2.10640    0.00864     3.11457
      N   10   -0.24905      0.99961     2.74054    0.00891     3.74905
      C   11   -0.08365      0.99963     2.07258    0.01145     3.08365
      C   12   -0.07849      0.99963     2.06756    0.01130     3.07849
      N   13   -0.26323      0.99965     2.75284    0.01073     3.76323
      C   14    0.41744      0.99965     1.55866    0.02425     2.58256
      O   15   -0.33380      0.99987     3.32913    0.00479     4.33380
      C   16   -0.17688      0.99965     2.16893    0.00830     3.17688
      H   17    0.09987      0.00000     0.39925    0.00088     0.40013
      H   18    0.10304      0.00000     0.39551    0.00145     0.39696
      H   19    0.10322      0.00000     0.39559    0.00119     0.39678
      H   20    0.09051      0.00000     0.40828    0.00122     0.40949
      H   21    0.08385      0.00000     0.41457    0.00158     0.41615
      H   22    0.10594      0.00000     0.39258    0.00149     0.39406
      H   23    0.10641      0.00000     0.39204    0.00155     0.39359
      H   24    0.12147      0.00000     0.37751    0.00102     0.37853
      H   25    0.10424      0.00000     0.39486    0.00091     0.39576
      H   26    0.10438      0.00000     0.39355    0.00207     0.39562
      H   27    0.09483      0.00000     0.40334    0.00182     0.40517
      H   28    0.10353      0.00000     0.39257    0.00389     0.39647
      H   29    0.08936      0.00000     0.40841    0.00223     0.41064
      H   30    0.08851      0.00000     0.41030    0.00119     0.41149
      H   31    0.09633      0.00000     0.40253    0.00114     0.40367
      H   32    0.11090      0.00000     0.38812    0.00097     0.38910
 =======================================================================
   * Total *    0.00000     15.99377    42.81570    0.19053    59.00000

 Normal termination of Gaussian 16 at Fri Dec 11 01:01:30 2020.
