 Gaussian 16, Revision A.03,

 -----------------------------------------------------------
 # opt freq B3LYP/6-31G(d) empiricaldispersion=gd3bj scf=xqc
 -----------------------------------------------------------

 -------------------------------
 CID_130151627_JID_4310_neutraal
 -------------------------------
 Symbolic Z-matrix:
 Charge =  0 Multiplicity = 1

 SCF Done:  E(RB3LYP) =  -663.106459519     A.U. after   15 cycles
 SCF Done:  E(RB3LYP) =  -663.109715861     A.U. after   13 cycles
 SCF Done:  E(RB3LYP) =  -663.110436016     A.U. after   14 cycles
 SCF Done:  E(RB3LYP) =  -663.111640766     A.U. after   13 cycles
 SCF Done:  E(RB3LYP) =  -663.111748165     A.U. after   13 cycles
 SCF Done:  E(RB3LYP) =  -663.112021001     A.U. after   13 cycles
 SCF Done:  E(RB3LYP) =  -663.112035426     A.U. after   11 cycles
 SCF Done:  E(RB3LYP) =  -663.112050259     A.U. after   11 cycles
 SCF Done:  E(RB3LYP) =  -663.112057920     A.U. after   10 cycles
 SCF Done:  E(RB3LYP) =  -663.112064370     A.U. after   10 cycles
 SCF Done:  E(RB3LYP) =  -663.112081200     A.U. after   12 cycles
 SCF Done:  E(RB3LYP) =  -663.112089938     A.U. after   12 cycles
 SCF Done:  E(RB3LYP) =  -663.112093979     A.U. after   11 cycles
 SCF Done:  E(RB3LYP) =  -663.112096083     A.U. after   11 cycles
 SCF Done:  E(RB3LYP) =  -663.112096140     A.U. after    8 cycles
 SCF Done:  E(RB3LYP) =  -663.112096143     A.U. after    7 cycles
 Optimization completed.
    -- Stationary point found.
 Normal termination of Gaussian 16 at Thu Dec 10 09:24:22 2020.

 --------------------------------------------------------------------
 #N Geom=AllCheck Guess=TCheck SCRF=Check GenChk RB3LYP/6-31G(d) Freq
 --------------------------------------------------------------------

 Structure from the checkpoint file:  "JID_4310.chk"
 -------------------------------
 CID_130151627_JID_4310_neutraal
 -------------------------------
 Charge =  0 Multiplicity = 1

 SCF Done:  E(RB3LYP) =  -663.112096143     A.U. after    1 cycles

  Exact polarizability: 107.443  -8.252 135.981 -17.614   2.524  83.196
 Approx polarizability: 154.690 -10.359 249.264 -35.380  -0.861 127.070

                      1                      2                      3
                      A                      A                      A
 Frequencies --     22.7411                43.2935                68.5519
 Red. masses --      8.2674                 6.5707                 8.5205
 Frc consts  --      0.0025                 0.0073                 0.0236
 IR Inten    --      1.4095                 4.3648                 1.7297

                      4                      5                      6
                      A                      A                      A
 Frequencies --    115.5118               133.5281               175.2877
 Red. masses --      5.4040                 8.8899                 3.9199
 Frc consts  --      0.0425                 0.0934                 0.0710
 IR Inten    --      0.2659                 5.8377                 0.7329

                      7                      8                      9
                      A                      A                      A
 Frequencies --    217.0620               244.3900               313.7116
 Red. masses --      6.0984                 4.6994                 3.3661
 Frc consts  --      0.1693                 0.1654                 0.1952
 IR Inten    --      2.1296                 0.7801                 2.7183

                     10                     11                     12
                      A                      A                      A
 Frequencies --    331.9431               347.0654               393.6764
 Red. masses --      5.0807                 1.1271                 5.2620
 Frc consts  --      0.3298                 0.0800                 0.4805
 IR Inten    --     13.6810                55.2879                 3.3313

                     13                     14                     15
                      A                      A                      A
 Frequencies --    418.5516               484.7761               486.3616
 Red. masses --      5.3294                 7.0715                 2.6611
 Frc consts  --      0.5501                 0.9791                 0.3709
 IR Inten    --      3.1427                 4.4845                 2.9809

                     16                     17                     18
                      A                      A                      A
 Frequencies --    537.7422               562.0780               591.8336
 Red. masses --      2.3420                 4.2676                 4.1988
 Frc consts  --      0.3990                 0.7944                 0.8665
 IR Inten    --     15.3013                36.7401                 2.8760

                     19                     20                     21
                      A                      A                      A
 Frequencies --    602.4921               618.4916               694.1623
 Red. masses --      4.1725                 7.2281                 1.7639
 Frc consts  --      0.8924                 1.6291                 0.5008
 IR Inten    --      9.2833                 4.4762                83.7268

                     22                     23                     24
                      A                      A                      A
 Frequencies --    731.2248               741.0151               796.5967
 Red. masses --      3.3990                 3.5943                 2.8821
 Frc consts  --      1.0708                 1.1628                 1.0775
 IR Inten    --     20.4243                19.6834                 8.2380

                     25                     26                     27
                      A                      A                      A
 Frequencies --    827.9785               832.5190               869.4584
 Red. masses --      1.7770                 5.2687                 3.3640
 Frc consts  --      0.7177                 2.1515                 1.4983
 IR Inten    --     29.4595                 9.0354                13.7204

                     28                     29                     30
                      A                      A                      A
 Frequencies --    923.4189               949.3308               971.2890
 Red. masses --      1.9212                 1.7586                 1.5385
 Frc consts  --      0.9652                 0.9338                 0.8552
 IR Inten    --    126.7808                26.3501                 4.3504

                     31                     32                     33
                      A                      A                      A
 Frequencies --   1000.5281              1024.4757              1086.5408
 Red. masses --      1.3724                 2.3884                 3.0165
 Frc consts  --      0.8094                 1.4769                 2.0982
 IR Inten    --      1.0003                63.2711                10.2132

                     34                     35                     36
                      A                      A                      A
 Frequencies --   1102.4817              1135.9672              1173.2731
 Red. masses --      2.3992                 1.8823                 1.6735
 Frc consts  --      1.7181                 1.4311                 1.3573
 IR Inten    --     18.1967                15.8511               167.7801

                     37                     38                     39
                      A                      A                      A
 Frequencies --   1200.0591              1221.5681              1248.3476
 Red. masses --      1.4996                 1.5537                 1.9228
 Frc consts  --      1.2724                 1.3660                 1.7654
 IR Inten    --      6.8687                35.8310                32.8293

                     40                     41                     42
                      A                      A                      A
 Frequencies --   1272.6039              1309.4529              1313.7294
 Red. masses --      2.0414                 1.8621                 1.9720
 Frc consts  --      1.9479                 1.8812                 2.0052
 IR Inten    --      3.4213                 5.3652                19.6085

                     43                     44                     45
                      A                      A                      A
 Frequencies --   1329.6356              1345.2529              1434.7634
 Red. masses --      3.0319                 1.4832                 1.9825
 Frc consts  --      3.1581                 1.5814                 2.4045
 IR Inten    --      7.7452                22.3885                62.5048

                     46                     47                     48
                      A                      A                      A
 Frequencies --   1445.5013              1473.9069              1493.5533
 Red. masses --      1.5594                 2.1724                 1.2578
 Frc consts  --      1.9198                 2.7806                 1.6531
 IR Inten    --     22.5149                13.7844                10.5725

                     49                     50                     51
                      A                      A                      A
 Frequencies --   1500.4606              1616.5163              1642.5012
 Red. masses --      1.8519                 5.6303                 5.9294
 Frc consts  --      2.4565                 8.6684                 9.4248
 IR Inten    --      9.4027                20.9651                 0.6873

                     52                     53                     54
                      A                      A                      A
 Frequencies --   1701.6068              1822.0739              2350.7959
 Red. masses --      1.0992                 8.4277                12.6914
 Frc consts  --      1.8753                16.4851                41.3229
 IR Inten    --     41.3199               199.4611                 9.0873

                     55                     56                     57
                      A                      A                      A
 Frequencies --   3056.2388              3074.0658              3136.5766
 Red. masses --      1.0702                 1.0851                 1.0926
 Frc consts  --      5.8896                 6.0414                 6.3333
 IR Inten    --     11.9937                 9.2465                 2.0827

                     58                     59                     60
                      A                      A                      A
 Frequencies --   3186.3060              3214.8374              3250.4796
 Red. masses --      1.0894                 1.0934                 1.0926
 Frc consts  --      6.5167                 6.6578                 6.8014
 IR Inten    --     15.8519                16.7181                 1.4961

                     61                     62                     63
                      A                      A                      A
 Frequencies --   3483.6166              3570.1053              3673.9352
 Red. masses --      1.0498                 1.0929                 1.0638
 Frc consts  --      7.5060                 8.2072                 8.4602
 IR Inten    --     11.9226                13.7034                49.0034

 - Thermochemistry -
 -------------------
 Temperature   298.150 Kelvin.  Pressure   1.00000 Atm.
 Atom     1 has atomic number  6 and mass  12.00000

 Molecular mass:   191.06948 amu.
 Principal axes and moments of inertia in atomic units:
                           1         2         3
     Eigenvalues --  2027.853423081.653103679.69990
           X            0.99869  -0.04759  -0.01903
           Y            0.04777   0.99881   0.00941
           Z            0.01856  -0.01031   0.99977
 This molecule is an asymmetric top.
 Rotational symmetry number  1.
 Warning -- assumption of classical behavior for rotation
           may cause significant error
 Rotational temperatures (Kelvin)      0.04271     0.02811     0.02354
 Rotational constants (GHZ):           0.88998     0.58564     0.49046
 Zero-point vibrational energy     466171.8 (Joules/Mol)
                                  111.41774 (Kcal/Mol)
 Warning -- explicit consideration of  20 degrees of freedom as
           vibrations may cause significant error
 Vibrational temperatures:     32.72    62.29    98.63   166.20   192.12
          (Kelvin)            252.20   312.30   351.62   451.36   477.59
                              499.35   566.41   602.20   697.48   699.77
                              773.69   808.70   851.52   866.85   889.87
                              998.74  1052.07  1066.16  1146.12  1191.28
                             1197.81  1250.96  1328.59  1365.88  1397.47
                             1439.54  1473.99  1563.29  1586.23  1634.40
                             1688.08  1726.62  1757.56  1796.09  1830.99
                             1884.01  1890.16  1913.05  1935.52  2064.30
                             2079.75  2120.62  2148.89  2158.83  2325.81
                             2363.19  2448.23  2621.56  3382.27  4397.25
                             4422.90  4512.83  4584.38  4625.43  4676.72
                             5012.15  5136.59  5285.97

 Zero-point correction=                           0.177555 (Hartree/Particle)
 Thermal correction to Energy=                    0.190040
 Thermal correction to Enthalpy=                  0.190984
 Thermal correction to Gibbs Free Energy=         0.137217
 Sum of electronic and zero-point Energies=           -662.934541
 Sum of electronic and thermal Energies=              -662.922056
 Sum of electronic and thermal Enthalpies=            -662.921112
 Sum of electronic and thermal Free Energies=         -662.974879

                     E (Thermal)             CV                S
                      KCal/Mol        Cal/Mol-Kelvin    Cal/Mol-Kelvin
 Total                  119.252             46.588            113.163
 Electronic               0.000              0.000              0.000
 Translational            0.889              2.981             41.648
 Rotational               0.889              2.981             31.509
 Vibrational            117.475             40.627             40.007
 Vibration     1          0.593              1.985              6.379
 Vibration     2          0.595              1.980              5.102
 Vibration     3          0.598              1.969              4.195
 Vibration     4          0.608              1.937              3.174
 Vibration     5          0.613              1.920              2.895
 Vibration     6          0.627              1.873              2.378
 Vibration     7          0.646              1.815              1.983
 Vibration     8          0.660              1.772              1.771
 Vibration     9          0.702              1.648              1.343
 Vibration    10          0.714              1.612              1.251
 Vibration    11          0.725              1.581              1.179
 Vibration    12          0.761              1.484              0.986
 Vibration    13          0.781              1.430              0.897
 Vibration    14          0.841              1.284              0.697
 Vibration    15          0.842              1.280              0.693
 Vibration    16          0.893              1.167              0.570
 Vibration    17          0.918              1.113              0.520
 Vibration    18          0.949              1.049              0.464
 Vibration    19          0.961              1.027              0.445
 Vibration    20          0.978              0.993              0.419

 Optimization completed.
    -- Stationary point found.
 Normal termination of Gaussian 16 at Thu Dec 10 09:31:10 2020.

 ----------------------------------------------------------------------
 # B3LYP/6-311++G(d,p) empiricaldispersion=gd3bj scf=xqc pop=npa geom=c
 heck
 ----------------------------------------------------------------------

 ---------------------------------------
 CID_130151627_JID_4310_Energie_neutraal
 ---------------------------------------
 Structure from the checkpoint file:  "JID_4310.chk"
 Charge =  0 Multiplicity = 1

 SCF Done:  E(RB3LYP) =  -663.309875346     A.U. after   16 cycles
 Normal termination of Gaussian 16 at Thu Dec 10 09:34:14 2020.

 ----------------------------------------------------------------------
 # B3LYP/6-311++G(d,p) empiricaldispersion=gd3bj scf=xqc pop=npa geom=c
 heck
 ----------------------------------------------------------------------

 -------------------------------------
 CID_130151627_JID_4310_Energie_kation
 -------------------------------------
 Structure from the checkpoint file:  "JID_4310.chk"
 Charge =  1 Multiplicity = 2

 SCF Done:  E(UB3LYP) =  -662.970327156     A.U. after   28 cycles
 Normal termination of Gaussian 16 at Thu Dec 10 09:41:42 2020.
 Gaussian 16:  ES64L-G16RevA.03 25-Dec-2016

 ----------------------------------------------------------------------
 # B3LYP/6-311++G(d,p) empiricaldispersion=gd3bj scf=xqc pop=npa geom=c
 heck
 ----------------------------------------------------------------------

 ------------------------------------
 CID_130151627_JID_4310_Energie_anion
 ------------------------------------
 Structure from the checkpoint file:  "JID_4310.chk"
 Charge = -1 Multiplicity = 2

                         Standard orientation:
 ---------------------------------------------------------------------
 Center     Atomic      Atomic             Coordinates (Angstroms)
 Number     Number       Type             X           Y           Z
 ---------------------------------------------------------------------
      1          6           0        1.932987   -2.045776   -0.219022
      2          6           0        0.807699   -1.597869    0.464642
      3          6           0        0.558384   -0.227180    0.559868
      4          6           0        1.504437    0.623361   -0.042844
      5          7           0        2.600132    0.209655   -0.702001
      6          6           0        2.795942   -1.105774   -0.787760
      7          6           0        1.331084    2.053640    0.045790
      8          7           0        1.136237    3.195393    0.146324
      9          6           0       -0.675983    0.324104    1.262294
     10          6           0       -1.672929    0.905562    0.221569
     11          6           0       -2.197104   -0.138031   -0.737736
     12          8           0       -2.322772   -1.324868   -0.501232
     13          8           0       -2.544651    0.397943   -1.925371
     14          7           0       -1.252849   -0.674488    2.160531
     15          1           0        2.144749   -3.106679   -0.307703
     16          1           0        0.127299   -2.293788    0.938858
     17          1           0        3.685624   -1.421010   -1.328174
     18          1           0       -0.350091    1.169715    1.878038
     19          1           0       -2.536365    1.323882    0.756275
     20          1           0       -1.232388    1.729047   -0.345503
     21          1           0       -2.895392   -0.334777   -2.467492
     22          1           0       -1.855730   -0.212502    2.837091
     23          1           0       -1.840072   -1.304632    1.616659
 ---------------------------------------------------------------------

 SCF Done:  E(UB3LYP) =  -663.322235818     A.U. after   31 cycles

 The electronic state is 2-A.
 Alpha  occ. eigenvalues --  -19.07692 -19.01764 -14.18395 -14.15867 -14.14980
 Alpha  occ. eigenvalues --  -10.20972 -10.09900 -10.07756 -10.06607 -10.06425
 Alpha  occ. eigenvalues --  -10.04929 -10.04726 -10.03995 -10.02579  -1.01653
 Alpha  occ. eigenvalues --   -0.92453  -0.80547  -0.78460  -0.75057  -0.67484
 Alpha  occ. eigenvalues --   -0.65623  -0.63329  -0.55597  -0.51702  -0.50116
 Alpha  occ. eigenvalues --   -0.46143  -0.42115  -0.40438  -0.39503  -0.37522
 Alpha  occ. eigenvalues --   -0.36667  -0.34962  -0.33661  -0.31228  -0.31040
 Alpha  occ. eigenvalues --   -0.30472  -0.28603  -0.27459  -0.26534  -0.25539
 Alpha  occ. eigenvalues --   -0.23316  -0.23121  -0.21571  -0.20541  -0.18636
 Alpha  occ. eigenvalues --   -0.18429  -0.14912  -0.14091  -0.12238  -0.12051
 Alpha  occ. eigenvalues --    0.04356
 Alpha virt. eigenvalues --    0.06422   0.07505   0.09186   0.09684   0.10494
 Alpha virt. eigenvalues --    0.11175   0.11263   0.11982   0.13019   0.14228
 Alpha virt. eigenvalues --    0.14912   0.15789   0.16293   0.16449   0.17110

  Beta  occ. eigenvalues --  -19.07671 -19.01737 -14.18384 -14.15580 -14.14637
  Beta  occ. eigenvalues --  -10.20962 -10.09906 -10.07740 -10.06511 -10.06252
  Beta  occ. eigenvalues --  -10.04938 -10.04636 -10.03964 -10.02237  -1.01609
  Beta  occ. eigenvalues --   -0.92407  -0.80043  -0.78353  -0.74557  -0.67288
  Beta  occ. eigenvalues --   -0.65286  -0.62814  -0.55461  -0.50993  -0.49996
  Beta  occ. eigenvalues --   -0.46019  -0.41972  -0.40325  -0.39362  -0.37439
  Beta  occ. eigenvalues --   -0.36627  -0.34801  -0.33436  -0.31146  -0.30917
  Beta  occ. eigenvalues --   -0.30397  -0.28200  -0.27283  -0.26070  -0.24840
  Beta  occ. eigenvalues --   -0.23127  -0.23004  -0.21087  -0.19225  -0.18510
  Beta  occ. eigenvalues --   -0.18257  -0.14127  -0.13432  -0.11751  -0.10470
  Beta virt. eigenvalues --    0.06753   0.07782   0.09155   0.09744   0.10270
  Beta virt. eigenvalues --    0.10629   0.11243   0.11457   0.11979   0.12967
  Beta virt. eigenvalues --    0.14119   0.14866   0.15731   0.16247   0.16466

 Mulliken charges and spin densities:
               1          2
     1  C   -0.650735   0.246457
     2  C   -0.100549   0.000608
     3  C    0.929948   0.008023
     4  C   -0.186391   0.463245
     5  N   -0.002855   0.128126
     6  C    0.108484  -0.023174
     7  C   -1.110167  -0.169212
     8  N   -0.350742   0.190074
     9  C    0.286738  -0.084085
    10  C   -0.282796  -0.306135
    11  C   -0.040751  -0.057856
    12  O   -0.302371   0.014690
    13  O   -0.131791   0.024784
    14  N   -0.390916   0.008541
    15  H    0.119540  -0.023251
    16  H    0.118093   0.026117
    17  H    0.137021   0.007709
    18  H    0.240939   0.007836
    19  H   -0.027107   0.198959
    20  H    0.187828   0.052929
    21  H    0.022892   0.248422
    22  H    0.196080   0.048478
    23  H    0.229609  -0.011283
 Sum of Mulliken charges =  -1.00000   1.00000

 Dipole moment (field-independent basis, Debye):
    X=             -4.4913    Y=             -4.0936    Z=              0.7736  Tot=              6.1259
 Quadrupole moment (field-independent basis, Debye-Ang):
   XX=           -110.1284   YY=           -118.1286   ZZ=            -94.3788
   XY=             -9.3583   XZ=             -2.3073   YZ=              3.4652

 Summary of Natural Population Analysis:

                                       Natural Population
                Natural  -----------------------------------------------
    Atom  No    Charge         Core      Valence    Rydberg      Total
 -----------------------------------------------------------------------
      C    1   -0.06205      0.99957     2.05406    0.00842     3.06205
      C    2   -0.08311      0.99952     2.07477    0.00883     3.08311
      C    3   -0.00307      0.99947     1.99223    0.01138     3.00307
      C    4    0.08272      0.99937     1.90403    0.01388     2.91728
      N    5   -0.18384      0.99969     2.67245    0.01170     3.68384
      C    6   -0.00142      0.99960     1.98784    0.01399     3.00142
      C    7    0.13918      0.99964     1.84135    0.01983     2.86082
      N    8   -0.15807      0.99979     2.64735    0.01093     3.65807
      C    9   -0.02115      0.99957     2.00771    0.01387     3.02115
      C   10   -0.24645      0.99955     2.23732    0.00958     3.24645
      C   11    0.41122      0.99972     1.56283    0.02623     2.58878
      O   12   -0.31541      0.99986     3.30937    0.00617     4.31541
      O   13   -0.34113      0.99987     3.33501    0.00624     4.34113
      N   14   -0.42157      0.99976     2.91275    0.00905     3.92157
      H   15    0.08920      0.00000     0.40976    0.00104     0.41080
      H   16    0.10187      0.00000     0.39681    0.00132     0.39813
      H   17    0.08022      0.00000     0.41850    0.00128     0.41978
      H   18    0.10415      0.00000     0.39400    0.00185     0.39585
      H   19    0.11016      0.00000     0.38827    0.00156     0.38984
      H   20    0.12644      0.00000     0.37214    0.00142     0.37356
      H   21    0.23810      0.00000     0.25738    0.00452     0.26190
      H   22    0.16991      0.00000     0.32860    0.00149     0.33009
      H   23    0.18410      0.00000     0.31410    0.00180     0.31590
 =======================================================================
   * Total *    0.00000     13.99498    35.81865    0.18636    50.00000

 Normal termination of Gaussian 16 at Thu Dec 10 09:49:58 2020.
