 Gaussian 16, Revision A.03,

 -----------------------------------------------------------
 # opt freq B3LYP/6-31G(d) empiricaldispersion=gd3bj scf=xqc
 -----------------------------------------------------------

 ------------------------------
 CID_67913313_JID_7220_neutraal
 ------------------------------
 Symbolic Z-matrix:
 Charge =  0 Multiplicity = 1

 SCF Done:  E(RB3LYP) =  -770.055027927     A.U. after   15 cycles
 SCF Done:  E(RB3LYP) =  -770.058394462     A.U. after   12 cycles
 SCF Done:  E(RB3LYP) =  -770.057530881     A.U. after   13 cycles
 SCF Done:  E(RB3LYP) =  -770.059555599     A.U. after   13 cycles
 SCF Done:  E(RB3LYP) =  -770.059791330     A.U. after   13 cycles
 SCF Done:  E(RB3LYP) =  -770.060012870     A.U. after   12 cycles
 SCF Done:  E(RB3LYP) =  -770.060136012     A.U. after   11 cycles
 SCF Done:  E(RB3LYP) =  -770.060225231     A.U. after   11 cycles
 SCF Done:  E(RB3LYP) =  -770.060256695     A.U. after   12 cycles
 SCF Done:  E(RB3LYP) =  -770.060217291     A.U. after   12 cycles
 SCF Done:  E(RB3LYP) =  -770.060525755     A.U. after    8 cycles
 SCF Done:  E(RB3LYP) =  -770.060527187     A.U. after    9 cycles
 SCF Done:  E(RB3LYP) =  -770.060527315     A.U. after    8 cycles
 SCF Done:  E(RB3LYP) =  -770.060527412     A.U. after    7 cycles
 SCF Done:  E(RB3LYP) =  -770.060527458     A.U. after    7 cycles
 Optimization completed.
    -- Stationary point found.
 Normal termination of Gaussian 16 at Fri Dec 11 12:15:39 2020.

 --------------------------------------------------------------------
 #N Geom=AllCheck Guess=TCheck SCRF=Check GenChk RB3LYP/6-31G(d) Freq
 --------------------------------------------------------------------

 Structure from the checkpoint file:  "JID_7220.chk"
 ------------------------------
 CID_67913313_JID_7220_neutraal
 ------------------------------
 Charge =  0 Multiplicity = 1

 SCF Done:  E(RB3LYP) =  -770.060527458     A.U. after    1 cycles

  Exact polarizability: 168.064   4.412 158.354 -24.302   9.262 122.728
 Approx polarizability: 234.322   6.243 238.377 -53.609  21.184 205.589

                      1                      2                      3
                      A                      A                      A
 Frequencies --     18.9215                41.1430                47.2496
 Red. masses --      4.4219                 7.1501                 4.9249
 Frc consts  --      0.0009                 0.0071                 0.0065
 IR Inten    --      0.1081                 1.1413                 0.1852

                      4                      5                      6
                      A                      A                      A
 Frequencies --     54.9590                61.7684                75.7253
 Red. masses --      3.7781                 4.2904                 3.0789
 Frc consts  --      0.0067                 0.0096                 0.0104
 IR Inten    --      0.0371                 0.1689                 0.5572

                      7                      8                      9
                      A                      A                      A
 Frequencies --    105.8443               133.9663               158.0845
 Red. masses --      3.8537                 1.8347                 4.1689
 Frc consts  --      0.0254                 0.0194                 0.0614
 IR Inten    --      1.5319                 0.0583                 0.4175

                     10                     11                     12
                      A                      A                      A
 Frequencies --    170.6667               196.6559               258.8723
 Red. masses --      4.3757                 4.2629                 1.3294
 Frc consts  --      0.0751                 0.0971                 0.0525
 IR Inten    --      0.6828                 0.0885                 1.5535

                     13                     14                     15
                      A                      A                      A
 Frequencies --    275.7111               288.8202               303.7097
 Red. masses --      4.6444                 2.4042                 2.6008
 Frc consts  --      0.2080                 0.1182                 0.1413
 IR Inten    --      1.9310                 7.9211                15.3839

                     16                     17                     18
                      A                      A                      A
 Frequencies --    315.2235               329.3044               358.7192
 Red. masses --      1.7372                 1.4010                 4.0325
 Frc consts  --      0.1017                 0.0895                 0.3057
 IR Inten    --     17.1970               100.0297                 3.2060

                     19                     20                     21
                      A                      A                      A
 Frequencies --    408.4871               453.5815               480.5395
 Red. masses --      3.3308                 2.5414                 3.6025
 Frc consts  --      0.3275                 0.3081                 0.4901
 IR Inten    --      4.3483                 2.5607                 3.5352

                     22                     23                     24
                      A                      A                      A
 Frequencies --    503.2175               541.8291               548.5613
 Red. masses --      4.0364                 4.0132                 3.2422
 Frc consts  --      0.6022                 0.6942                 0.5748
 IR Inten    --     10.7973                 5.8358                 1.9220

                     25                     26                     27
                      A                      A                      A
 Frequencies --    565.6310               601.3398               634.5847
 Red. masses --      4.3260                 2.4913                 2.6638
 Frc consts  --      0.8155                 0.5308                 0.6320
 IR Inten    --      2.6229                31.2582                65.2637

                     28                     29                     30
                      A                      A                      A
 Frequencies --    649.2782               735.6477               744.5178
 Red. masses --      2.2069                 3.3736                 3.3663
 Frc consts  --      0.5481                 1.0757                 1.0994
 IR Inten    --     47.8068                19.7661                 1.8177

                     31                     32                     33
                      A                      A                      A
 Frequencies --    763.7946               768.1352               804.2524
 Red. masses --      1.3668                 1.2454                 3.1762
 Frc consts  --      0.4698                 0.4330                 1.2104
 IR Inten    --     57.6774                 6.3476                11.5622

                     34                     35                     36
                      A                      A                      A
 Frequencies --    833.8156               849.0643               855.0907
 Red. masses --      3.1028                 2.4785                 1.9261
 Frc consts  --      1.2710                 1.0527                 0.8298
 IR Inten    --     14.3832                 5.6705                 5.1669

                     37                     38                     39
                      A                      A                      A
 Frequencies --    879.1701               888.8854               926.5070
 Red. masses --      2.3802                 1.4756                 3.1037
 Frc consts  --      1.0840                 0.6869                 1.5698
 IR Inten    --      0.3336                 3.1993                 6.3168

                     40                     41                     42
                      A                      A                      A
 Frequencies --    942.3518               947.0110               974.3782
 Red. masses --      1.6172                 1.5342                 1.2633
 Frc consts  --      0.8461                 0.8107                 0.7067
 IR Inten    --      5.2677                 1.4872                 0.7110

                     43                     44                     45
                      A                      A                      A
 Frequencies --   1006.8938              1020.8685              1027.1821
 Red. masses --      1.5739                 1.2888                 2.4790
 Frc consts  --      0.9402                 0.7914                 1.5411
 IR Inten    --     11.4805                17.7707                 1.9498

                     46                     47                     48
                      A                      A                      A
 Frequencies --   1058.9322              1079.6065              1101.9891
 Red. masses --      2.1472                 2.1442                 2.7519
 Frc consts  --      1.4186                 1.4725                 1.9690
 IR Inten    --      0.8089                 4.6228                 0.8659

                     49                     50                     51
                      A                      A                      A
 Frequencies --   1115.7619              1127.8000              1148.2683
 Red. masses --      2.3566                 1.7532                 1.8720
 Frc consts  --      1.7285                 1.3139                 1.4543
 IR Inten    --     15.0025                 4.7142                 1.6485

                     52                     53                     54
                      A                      A                      A
 Frequencies --   1188.4465              1193.9024              1202.2011
 Red. masses --      2.2212                 1.1694                 1.3603
 Frc consts  --      1.8484                 0.9821                 1.1584
 IR Inten    --    290.4189                11.1634                36.1481

                     55                     56                     57
                      A                      A                      A
 Frequencies --   1219.7542              1221.5809              1268.0522
 Red. masses --      1.3621                 1.7922                 1.2923
 Frc consts  --      1.1940                 1.5757                 1.2243
 IR Inten    --      4.3011                30.4339                 0.6148

                     58                     59                     60
                      A                      A                      A
 Frequencies --   1292.6624              1303.8906              1311.3046
 Red. masses --      1.9490                 1.2896                 1.6302
 Frc consts  --      1.9188                 1.2918                 1.6515
 IR Inten    --     39.6993                 0.2581                16.4896

                     61                     62                     63
                      A                      A                      A
 Frequencies --   1329.8358              1346.0043              1359.9495
 Red. masses --      1.7620                 1.2740                 1.3148
 Frc consts  --      1.8359                 1.3599                 1.4327
 IR Inten    --     46.1971                 1.4115                10.6432

                     64                     65                     66
                      A                      A                      A
 Frequencies --   1367.4866              1378.8439              1381.5400
 Red. masses --      2.2201                 1.4589                 1.7267
 Frc consts  --      2.4460                 1.6342                 1.9417
 IR Inten    --     41.5986                 1.5687                10.7364

                     67                     68                     69
                      A                      A                      A
 Frequencies --   1384.8116              1395.9243              1402.2370
 Red. masses --      1.5113                 1.3801                 1.4935
 Frc consts  --      1.7076                 1.5844                 1.7302
 IR Inten    --     12.7171                 5.0759                 5.0975

                     70                     71                     72
                      A                      A                      A
 Frequencies --   1440.9455              1506.2253              1513.9617
 Red. masses --      1.2746                 2.3641                 1.0996
 Frc consts  --      1.5592                 3.1600                 1.4849
 IR Inten    --      9.4224                43.3967                 1.1341

                     73                     74                     75
                      A                      A                      A
 Frequencies --   1519.1630              1520.4095              1532.4991
 Red. masses --      1.0923                 1.0977                 1.0559
 Frc consts  --      1.4853                 1.4951                 1.4611
 IR Inten    --      0.5757                 3.2572                 2.6076

                     76                     77                     78
                      A                      A                      A
 Frequencies --   1543.7310              1556.1999              1655.4982
 Red. masses --      1.0533                 2.4935                 5.9028
 Frc consts  --      1.4790                 3.5579                 9.5316
 IR Inten    --      3.7566                28.2622                12.9733

                     79                     80                     81
                      A                      A                      A
 Frequencies --   1667.5317              1756.2152              1848.5838
 Red. masses --      5.9946                 6.0108                 9.5410
 Frc consts  --      9.8211                10.9230                19.2098
 IR Inten    --     12.2559                 0.4024               299.0490

                     82                     83                     84
                      A                      A                      A
 Frequencies --   3028.1649              3035.5386              3043.2901
 Red. masses --      1.0624                 1.0608                 1.0387
 Frc consts  --      5.7396                 5.7590                 5.6681
 IR Inten    --     32.8316                35.7092                27.8854

                     85                     86                     87
                      A                      A                      A
 Frequencies --   3056.3884              3069.3734              3078.7686
 Red. masses --      1.0629                 1.0985                 1.1027
 Frc consts  --      5.8502                 6.0973                 6.1583
 IR Inten    --     32.2497                28.3378                39.7245

                     88                     89                     90
                      A                      A                      A
 Frequencies --   3101.6406              3107.0281              3128.6091
 Red. masses --      1.1016                 1.0991                 1.1002
 Frc consts  --      6.2438                 6.2515                 6.3451
 IR Inten    --     48.3601                 9.1520                41.4555

                     91                     92                     93
                      A                      A                      A
 Frequencies --   3140.1506              3148.1726              3154.2601
 Red. masses --      1.0907                 1.0854                 1.0881
 Frc consts  --      6.3363                 6.3383                 6.3784
 IR Inten    --     15.4567                 0.5054                31.2526

                     94                     95                     96
                      A                      A                      A
 Frequencies --   3166.3432              3193.8179              3207.4849
 Red. masses --      1.0886                 1.0876                 1.0923
 Frc consts  --      6.4303                 6.5366                 6.6212
 IR Inten    --     14.5981                 7.3380                18.1694

                     97                     98                     99
                      A                      A                      A
 Frequencies --   3219.3100              3681.2729              3762.8172
 Red. masses --      1.0954                 1.0640                 1.0661
 Frc consts  --      6.6888                 8.4953                 8.8933
 IR Inten    --     11.8680                52.5058                39.5094

 - Thermochemistry -
 -------------------
 Temperature   298.150 Kelvin.  Pressure   1.00000 Atm.
 Atom     1 has atomic number  6 and mass  12.00000

 Molecular mass:   234.12559 amu.
 Principal axes and moments of inertia in atomic units:
                           1         2         3
     Eigenvalues --  3166.348915153.154166506.96621
           X            0.99969  -0.01726  -0.01794
           Y            0.01713   0.99983  -0.00714
           Z            0.01806   0.00683   0.99981
 This molecule is an asymmetric top.
 Rotational symmetry number  1.
 Warning -- assumption of classical behavior for rotation
           may cause significant error
 Rotational temperatures (Kelvin)      0.02735     0.01681     0.01331
 Rotational constants (GHZ):           0.56998     0.35022     0.27736
 Zero-point vibrational energy     778255.4 (Joules/Mol)
                                  186.00750 (Kcal/Mol)
 Warning -- explicit consideration of  26 degrees of freedom as
           vibrations may cause significant error
 Vibrational temperatures:     27.22    59.20    67.98    79.07    88.87
          (Kelvin)            108.95   152.29   192.75   227.45   245.55
                              282.94   372.46   396.69   415.55   436.97
                              453.54   473.80   516.12   587.72   652.60
                              691.39   724.02   779.57   789.26   813.82
                              865.19   913.03   934.17  1058.43  1071.20
                             1098.93  1105.18  1157.14  1199.67  1221.61
                             1230.28  1264.93  1278.91  1333.04  1355.83
                             1362.54  1401.91  1448.70  1468.80  1477.89
                             1523.57  1553.31  1585.52  1605.33  1622.65
                             1652.10  1709.91  1717.76  1729.70  1754.95
                             1757.58  1824.44  1859.85  1876.01  1886.67
                             1913.34  1936.60  1956.66  1967.51  1983.85
                             1987.73  1992.43  2008.42  2017.51  2073.20
                             2167.12  2178.25  2185.74  2187.53  2204.92
                             2221.08  2239.02  2381.89  2399.21  2526.80
                             2659.70  4356.85  4367.46  4378.62  4397.46
                             4416.14  4429.66  4462.57  4470.32  4501.37
                             4517.98  4529.52  4538.28  4555.66  4595.19
                             4614.86  4631.87  5296.53  5413.85

 Zero-point correction=                           0.296422 (Hartree/Particle)
 Thermal correction to Energy=                    0.313846
 Thermal correction to Enthalpy=                  0.314790
 Thermal correction to Gibbs Free Energy=         0.249201
 Sum of electronic and zero-point Energies=           -769.764106
 Sum of electronic and thermal Energies=              -769.746681
 Sum of electronic and thermal Enthalpies=            -769.745737
 Sum of electronic and thermal Free Energies=         -769.811326

                     E (Thermal)             CV                S
                      KCal/Mol        Cal/Mol-Kelvin    Cal/Mol-Kelvin
 Total                  196.941             64.816            138.044
 Electronic               0.000              0.000              0.000
 Translational            0.889              2.981             42.254
 Rotational               0.889              2.981             33.029
 Vibrational            195.164             58.854             62.762
 Vibration     1          0.593              1.986              6.744
 Vibration     2          0.594              1.981              5.203
 Vibration     3          0.595              1.979              4.929
 Vibration     4          0.596              1.976              4.630
 Vibration     5          0.597              1.973              4.400
 Vibration     6          0.599              1.965              3.999
 Vibration     7          0.605              1.945              3.344
 Vibration     8          0.613              1.919              2.888
 Vibration     9          0.621              1.894              2.573
 Vibration    10          0.626              1.879              2.428
 Vibration    11          0.636              1.845              2.164
 Vibration    12          0.668              1.748              1.669
 Vibration    13          0.677              1.718              1.560
 Vibration    14          0.685              1.695              1.481
 Vibration    15          0.695              1.667              1.396
 Vibration    16          0.703              1.645              1.335
 Vibration    17          0.712              1.617              1.263
 Vibration    18          0.734              1.557              1.128
 Vibration    19          0.773              1.452              0.932
 Vibration    20          0.812              1.353              0.785
 Vibration    21          0.837              1.293              0.709
 Vibration    22          0.859              1.243              0.650
 Vibration    23          0.897              1.158              0.561
 Vibration    24          0.904              1.143              0.547
 Vibration    25          0.921              1.106              0.513
 Vibration    26          0.960              1.029              0.447

                           ! Non-Optimized Parameters !
 Normal termination of Gaussian 16 at Fri Dec 11 12:29:22 2020.

 ----------------------------------------------------------------------
 # B3LYP/6-311++G(d,p) empiricaldispersion=gd3bj scf=xqc pop=npa geom=c
 heck
 ----------------------------------------------------------------------

 --------------------------------------
 CID_67913313_JID_7220_Energie_neutraal
 --------------------------------------
 Structure from the checkpoint file:  "JID_7220.chk"
 Charge =  0 Multiplicity = 1

 SCF Done:  E(RB3LYP) =  -770.291129853     A.U. after   16 cycles
 Normal termination of Gaussian 16 at Fri Dec 11 12:37:07 2020.

 ----------------------------------------------------------------------
 # B3LYP/6-311++G(d,p) empiricaldispersion=gd3bj scf=xqc pop=npa geom=c
 heck
 ----------------------------------------------------------------------

 ------------------------------------
 CID_67913313_JID_7220_Energie_kation
 ------------------------------------
 Structure from the checkpoint file:  "JID_7220.chk"
 Charge =  1 Multiplicity = 2

 SCF Done:  E(UB3LYP) =  -769.994005524     A.U. after   24 cycles
 Normal termination of Gaussian 16 at Fri Dec 11 12:54:09 2020.
 Gaussian 16:  ES64L-G16RevA.03 25-Dec-2016

 ----------------------------------------------------------------------
 # B3LYP/6-311++G(d,p) empiricaldispersion=gd3bj scf=xqc pop=npa geom=c
 heck
 ----------------------------------------------------------------------

 -----------------------------------
 CID_67913313_JID_7220_Energie_anion
 -----------------------------------
 Structure from the checkpoint file:  "JID_7220.chk"
 Charge = -1 Multiplicity = 2

                         Standard orientation:
 ---------------------------------------------------------------------
 Center     Atomic      Atomic             Coordinates (Angstroms)
 Number     Number       Type             X           Y           Z
 ---------------------------------------------------------------------
      1          6           0       -3.893736    0.354174    1.304786
      2          6           0       -3.739079   -0.260217   -0.088353
      3          6           0       -3.369617    0.763323   -1.183334
      4          6           0       -2.080890    1.485785   -0.895737
      5          6           0       -0.892597    1.117959   -1.377619
      6          6           0        0.420959    1.736782   -0.980644
      7          6           0        1.029684    1.008592    0.251190
      8          6           0        1.077233   -0.498938    0.044435
      9          6           0        1.942357   -1.097231   -0.875684
     10          6           0        1.926930   -2.473379   -1.104522
     11          6           0        1.027172   -3.275646   -0.404650
     12          6           0        0.155119   -2.702032    0.518523
     13          6           0        0.180843   -1.323596    0.745319
     14          8           0       -0.664558   -0.728807    1.644837
     15          6           0        2.395719    1.547934    0.636597
     16          8           0        2.755976    1.798980    1.764009
     17          8           0        3.216921    1.725712   -0.435331
     18          1           0       -2.944758    0.771057    1.656198
     19          1           0       -4.222181   -0.396365    2.033917
     20          1           0       -4.639484    1.158894    1.303281
     21          1           0       -2.956547   -1.029357   -0.061953
     22          1           0       -4.671518   -0.763212   -0.377565
     23          1           0       -3.286809    0.235923   -2.141910
     24          1           0       -4.191342    1.485875   -1.287229
     25          1           0       -2.129386    2.325161   -0.200277
     26          1           0       -0.838983    0.262544   -2.051046
     27          1           0        1.132803    1.692649   -1.810716
     28          1           0        0.286043    2.794677   -0.724218
     29          1           0        0.392756    1.205664    1.113354
     30          1           0        2.640528   -0.467351   -1.417504
     31          1           0        2.611253   -2.912605   -1.823740
     32          1           0        0.999811   -4.348516   -0.571913
     33          1           0       -0.547924   -3.323284    1.070364
     34          1           0       -1.244459   -1.403855    2.028379
     35          1           0        4.062903    2.043965   -0.067406
 ---------------------------------------------------------------------

 SCF Done:  E(UB3LYP) =  -770.280438133     A.U. after   33 cycles
 SCF Done:  E(UB3LYP) =  -770.280438133     a.u. after    1 cycles

 The electronic state is 2-A.
 Alpha  occ. eigenvalues --  -19.07654 -19.05445 -19.02171 -10.21163 -10.13992
 Alpha  occ. eigenvalues --  -10.09847 -10.08606 -10.08449 -10.07948 -10.07642
 Alpha  occ. eigenvalues --  -10.07517 -10.07440 -10.07409 -10.07270 -10.07134
 Alpha  occ. eigenvalues --  -10.06578 -10.05581  -1.01640  -0.96566  -0.92688
 Alpha  occ. eigenvalues --   -0.76513  -0.72834  -0.70483  -0.66502  -0.64494
 Alpha  occ. eigenvalues --   -0.63374  -0.59774  -0.55130  -0.54022  -0.51729
 Alpha  occ. eigenvalues --   -0.49535  -0.48289  -0.45122  -0.44668  -0.41058
 Alpha  occ. eigenvalues --   -0.40008  -0.39166  -0.37352  -0.36808  -0.36571
 Alpha  occ. eigenvalues --   -0.35558  -0.34368  -0.33431  -0.32597  -0.31677
 Alpha  occ. eigenvalues --   -0.31394  -0.30494  -0.30213  -0.29160  -0.28733
 Alpha  occ. eigenvalues --   -0.27471  -0.26346  -0.25405  -0.24628  -0.24465
 Alpha  occ. eigenvalues --   -0.24156  -0.23412  -0.23007  -0.22691  -0.19255
 Alpha  occ. eigenvalues --   -0.15930  -0.15154  -0.13162   0.04269
 Alpha virt. eigenvalues --    0.05444   0.06843   0.07170   0.07561   0.08105
 Alpha virt. eigenvalues --    0.08635   0.08921   0.09199   0.09783   0.10226
 Alpha virt. eigenvalues --    0.10367   0.10803   0.11095   0.11666   0.12400

  Beta  occ. eigenvalues --  -19.07609 -19.05411 -19.02154 -10.21148 -10.14002
  Beta  occ. eigenvalues --  -10.09843 -10.08569 -10.08439 -10.07897 -10.07603
  Beta  occ. eigenvalues --  -10.07527 -10.07436 -10.07350 -10.07263 -10.07114
  Beta  occ. eigenvalues --  -10.06552 -10.05553  -1.01574  -0.96499  -0.92630
  Beta  occ. eigenvalues --   -0.76438  -0.72785  -0.70439  -0.66444  -0.64416
  Beta  occ. eigenvalues --   -0.63304  -0.59723  -0.55083  -0.53909  -0.51654
  Beta  occ. eigenvalues --   -0.49458  -0.48223  -0.45062  -0.44606  -0.41004
  Beta  occ. eigenvalues --   -0.39970  -0.39123  -0.37321  -0.36766  -0.36533
  Beta  occ. eigenvalues --   -0.35506  -0.34307  -0.33372  -0.32553  -0.31640
  Beta  occ. eigenvalues --   -0.31339  -0.30448  -0.30177  -0.29114  -0.28701
  Beta  occ. eigenvalues --   -0.27442  -0.26317  -0.25356  -0.24587  -0.24327
  Beta  occ. eigenvalues --   -0.24119  -0.23373  -0.22955  -0.22657  -0.19195
  Beta  occ. eigenvalues --   -0.15699  -0.15011  -0.13047
  Beta virt. eigenvalues --    0.06557   0.06817   0.07164   0.07606   0.08062
  Beta virt. eigenvalues --    0.08425   0.08738   0.09073   0.09485   0.10063
  Beta virt. eigenvalues --    0.10423   0.10587   0.10931   0.11158   0.11849

 Mulliken charges and spin densities:
               1          2
     1  C    0.337672  -1.013825
     2  C   -0.157513   0.112159
     3  C   -0.308503  -0.180561
     4  C   -0.131714   0.120574
     5  C    0.111293  -0.128120
     6  C   -0.462750  -0.144955
     7  C   -0.043347   0.059916
     8  C    1.381433  -0.332773
     9  C   -0.402079   0.015861
    10  C   -0.831370   0.191109
    11  C    0.081035  -0.340692
    12  C    0.598805  -0.770457
    13  C   -0.108112   0.026955
    14  O   -0.135030  -0.009349
    15  C   -0.139599  -0.230664
    16  O   -0.266381   0.010446
    17  O   -0.177634   0.024392
    18  H    0.192062  -0.028727
    19  H   -0.463151   0.612184
    20  H    0.063816   0.048940
    21  H    0.181835  -0.078215
    22  H   -0.448663   0.615800
    23  H    0.052765   0.105324
    24  H    0.057737   0.067953
    25  H    0.146629   0.010816
    26  H    0.140936   0.009506
    27  H    0.178043  -0.014708
    28  H    0.081459   0.106086
    29  H    0.344239   0.003970
    30  H    0.180490   0.037437
    31  H    0.144753  -0.001176
    32  H    0.021563   0.125229
    33  H   -0.914228   1.079350
    34  H   -0.012735   0.302760
    35  H   -0.293757   0.587455
 Sum of Mulliken charges =  -1.00000   1.00000

 Dipole moment (field-independent basis, Debye):
    X=              1.6948    Y=              2.5322    Z=             -4.3127  Tot=              5.2805
 Quadrupole moment (field-independent basis, Debye-Ang):
   XX=           -182.8507   YY=           -146.3486   ZZ=           -136.3794
   XY=            -24.9492   XZ=              3.6645   YZ=              8.2540

 Summary of Natural Population Analysis:

                                       Natural Population
                Natural  -----------------------------------------------
    Atom  No    Charge         Core      Valence    Rydberg      Total
 -----------------------------------------------------------------------
      C    1   -0.28983      0.99966     2.28422    0.00594     3.28983
      C    2   -0.18633      0.99964     2.17794    0.00876     3.18633
      C    3   -0.20384      0.99962     2.19437    0.00986     3.20384
      C    4   -0.08483      0.99950     2.07568    0.00965     3.08483
      C    5   -0.09003      0.99951     2.08079    0.00973     3.09003
      C    6   -0.19765      0.99960     2.18779    0.01025     3.19765
      C    7   -0.15927      0.99950     2.14788    0.01189     3.15927
      C    8   -0.03391      0.99942     2.02367    0.01082     3.03391
      C    9   -0.08632      0.99948     2.07779    0.00905     3.08632
      C   10   -0.12174      0.99957     2.11291    0.00926     3.12174
      C   11   -0.08719      0.99957     2.07796    0.00966     3.08719
      C   12   -0.12987      0.99951     2.11951    0.01084     3.12987
      C   13    0.16224      0.99932     1.82454    0.01391     2.83776
      O   14   -0.34283      0.99987     3.33600    0.00695     4.34283
      C   15    0.41838      0.99967     1.55600    0.02595     2.58162
      O   16   -0.30383      0.99987     3.29813    0.00584     4.30383
      O   17   -0.35164      0.99988     3.34466    0.00710     4.35164
      H   18    0.10153      0.00000     0.39749    0.00098     0.39847
      H   19    0.10271      0.00000     0.39571    0.00158     0.39729
      H   20    0.09046      0.00000     0.40863    0.00091     0.40954
      H   21    0.09846      0.00000     0.39974    0.00181     0.40154
      H   22    0.09399      0.00000     0.40447    0.00154     0.40601
      H   23    0.09938      0.00000     0.39971    0.00091     0.40062
      H   24    0.09435      0.00000     0.40469    0.00095     0.40565
      H   25    0.08911      0.00000     0.40997    0.00092     0.41089
      H   26    0.09441      0.00000     0.40442    0.00116     0.40559
      H   27    0.10641      0.00000     0.39256    0.00103     0.39359
      H   28    0.10063      0.00000     0.39828    0.00109     0.39937
      H   29    0.12503      0.00000     0.37373    0.00124     0.37497
      H   30    0.10674      0.00000     0.39230    0.00096     0.39326
      H   31    0.09724      0.00000     0.40202    0.00074     0.40276
      H   32    0.09872      0.00000     0.40057    0.00071     0.40128
      H   33    0.10510      0.00000     0.39257    0.00233     0.39490
      H   34    0.24162      0.00000     0.25395    0.00443     0.25838
      H   35    0.24258      0.00000     0.24371    0.01371     0.25742
 =======================================================================
   * Total *    0.00001     16.99320    45.79433    0.21247    62.99999

 Normal termination of Gaussian 16 at Fri Dec 11 13:17:08 2020.
