 Gaussian 16, Revision A.03,

 -----------------------------------------------------------
 # opt freq B3LYP/6-31G(d) empiricaldispersion=gd3bj scf=xqc
 -----------------------------------------------------------

 ------------------------------
 CID_64526026_JID_4343_neutraal
 ------------------------------
 Symbolic Z-matrix:
 Charge =  0 Multiplicity = 1

 SCF Done:  E(RB3LYP) =  -702.615732549     A.U. after   15 cycles
 SCF Done:  E(RB3LYP) =  -702.621824953     A.U. after   13 cycles
 SCF Done:  E(RB3LYP) =  -702.623238406     A.U. after   12 cycles
 SCF Done:  E(RB3LYP) =  -702.623631401     A.U. after   12 cycles
 SCF Done:  E(RB3LYP) =  -702.624291505     A.U. after   12 cycles
 SCF Done:  E(RB3LYP) =  -702.624421029     A.U. after   11 cycles
 SCF Done:  E(RB3LYP) =  -702.624450610     A.U. after   10 cycles
 SCF Done:  E(RB3LYP) =  -702.624468105     A.U. after   10 cycles
 SCF Done:  E(RB3LYP) =  -702.624481839     A.U. after   10 cycles
 SCF Done:  E(RB3LYP) =  -702.624488810     A.U. after   10 cycles
 SCF Done:  E(RB3LYP) =  -702.624492580     A.U. after    9 cycles
 SCF Done:  E(RB3LYP) =  -702.624493167     A.U. after    8 cycles
 SCF Done:  E(RB3LYP) =  -702.624493284     A.U. after    7 cycles
 SCF Done:  E(RB3LYP) =  -702.624493302     A.U. after    6 cycles
 Optimization completed.
    -- Stationary point found.
 Normal termination of Gaussian 16 at Thu Dec 10 09:23:19 2020.

 --------------------------------------------------------------------
 #N Geom=AllCheck Guess=TCheck SCRF=Check GenChk RB3LYP/6-31G(d) Freq
 --------------------------------------------------------------------

 Structure from the checkpoint file:  "JID_4343.chk"
 ------------------------------
 CID_64526026_JID_4343_neutraal
 ------------------------------
 Charge =  0 Multiplicity = 1

 SCF Done:  E(RB3LYP) =  -702.624493302     A.U. after    1 cycles

  Exact polarizability: 144.037 -14.050 119.114   9.946  10.489  75.384
 Approx polarizability: 187.709 -17.488 188.142  22.945  25.167 116.260

                      1                      2                      3
                      A                      A                      A
 Frequencies --     23.8986                35.7746                59.4297
 Red. masses --      4.6494                 3.9815                 3.6539
 Frc consts  --      0.0016                 0.0030                 0.0076
 IR Inten    --      0.1094                 1.6277                 0.8032

                      4                      5                      6
                      A                      A                      A
 Frequencies --     84.7279                99.3018               112.4382
 Red. masses --      3.1953                 6.2328                 3.0940
 Frc consts  --      0.0135                 0.0362                 0.0230
 IR Inten    --      2.3074                 1.2653                 3.5771

                      7                      8                      9
                      A                      A                      A
 Frequencies --    148.4541               162.0565               222.9037
 Red. masses --      4.7165                 3.4744                 1.8200
 Frc consts  --      0.0612                 0.0538                 0.0533
 IR Inten    --      0.9401                 0.9844                 0.4168

                     10                     11                     12
                      A                      A                      A
 Frequencies --    251.0879               261.5193               300.7756
 Red. masses --      1.0896                 1.8699                 2.7894
 Frc consts  --      0.0405                 0.0753                 0.1487
 IR Inten    --     35.5549                 7.8541                18.5307

                     13                     14                     15
                      A                      A                      A
 Frequencies --    328.9969               341.4880               369.6227
 Red. masses --      4.3732                 5.1774                 3.8794
 Frc consts  --      0.2789                 0.3557                 0.3123
 IR Inten    --      5.6961                 5.0544                 0.7445

                     16                     17                     18
                      A                      A                      A
 Frequencies --    387.8164               461.2409               501.6874
 Red. masses --      3.2621                 2.5431                 1.7001
 Frc consts  --      0.2891                 0.3188                 0.2521
 IR Inten    --     13.4950                 0.3743                72.0133

                     19                     20                     21
                      A                      A                      A
 Frequencies --    519.1443               563.7982               646.2943
 Red. masses --      4.4435                 2.8226                 2.5409
 Frc consts  --      0.7056                 0.5286                 0.6253
 IR Inten    --      4.5409                 8.4226                33.3747

                     22                     23                     24
                      A                      A                      A
 Frequencies --    674.2973               721.7641               755.2951
 Red. masses --      2.4195                 5.8515                 2.8912
 Frc consts  --      0.6481                 1.7960                 0.9718
 IR Inten    --     77.1444                34.2832                28.6035

                     25                     26                     27
                      A                      A                      A
 Frequencies --    772.2914               782.5264               806.6093
 Red. masses --      1.7859                 1.7900                 1.8484
 Frc consts  --      0.6276                 0.6458                 0.7086
 IR Inten    --    146.8786                 4.5234                77.1992

                     28                     29                     30
                      A                      A                      A
 Frequencies --    829.0878               883.7182               953.6348
 Red. masses --      3.8604                 3.1386                 2.1277
 Frc consts  --      1.5635                 1.4441                 1.1400
 IR Inten    --     10.0686                 0.6187                21.2855

                     31                     32                     33
                      A                      A                      A
 Frequencies --    960.6893              1007.2049              1037.8954
 Red. masses --      3.2517                 3.1470                 3.9320
 Frc consts  --      1.7682                 1.8810                 2.4956
 IR Inten    --      8.0978                62.1565                18.8055

                     34                     35                     36
                      A                      A                      A
 Frequencies --   1070.6397              1107.5559              1112.1839
 Red. masses --      2.6734                 1.5558                 1.9444
 Frc consts  --      1.8055                 1.1245                 1.4171
 IR Inten    --     37.1601                62.4064                22.7437

                     37                     38                     39
                      A                      A                      A
 Frequencies --   1131.2925              1161.1602              1173.7188
 Red. masses --      2.1825                 2.0366                 4.5657
 Frc consts  --      1.6457                 1.6178                 3.7058
 IR Inten    --     13.7281                82.5904               135.3650

                     40                     41                     42
                      A                      A                      A
 Frequencies --   1194.6120              1217.1301              1232.8876
 Red. masses --      1.3025                 4.6910                 1.5980
 Frc consts  --      1.0952                 4.0944                 1.4311
 IR Inten    --      4.8426               170.7585                39.4348

                     43                     44                     45
                      A                      A                      A
 Frequencies --   1263.9980              1271.0795              1300.9800
 Red. masses --      1.3054                 1.7446                 1.3448
 Frc consts  --      1.2288                 1.6607                 1.3411
 IR Inten    --     42.1666                85.7351                31.0251

                     46                     47                     48
                      A                      A                      A
 Frequencies --   1336.6180              1352.7762              1404.8618
 Red. masses --      1.1302                 2.5614                 1.4386
 Frc consts  --      1.1897                 2.7617                 1.6728
 IR Inten    --     13.3528               269.3222                10.5199

                     49                     50                     51
                      A                      A                      A
 Frequencies --   1425.0739              1444.8491              1454.7838
 Red. masses --      1.5390                 1.6892                 2.3393
 Frc consts  --      1.8414                 2.0776                 2.9170
 IR Inten    --      2.0325                36.7781               106.8410

                     52                     53                     54
                      A                      A                      A
 Frequencies --   1502.3802              1504.4883              1510.2267
 Red. masses --      1.1186                 1.1501                 3.0921
 Frc consts  --      1.4877                 1.5338                 4.1552
 IR Inten    --      6.3231                 5.6783                 4.4309

                     55                     56                     57
                      A                      A                      A
 Frequencies --   1513.9433              1515.1880              1533.0307
 Red. masses --      1.2910                 1.0606                 1.0618
 Frc consts  --      1.7434                 1.4346                 1.4703
 IR Inten    --     31.0162                 3.0076                11.8818

                     58                     59                     60
                      A                      A                      A
 Frequencies --   1552.9131              1557.8997              1618.5629
 Red. masses --      3.8813                 1.1161                 4.0497
 Frc consts  --      5.5146                 1.5960                 6.2507
 IR Inten    --    206.6761                14.7670                46.8133

                     61                     62                     63
                      A                      A                      A
 Frequencies --   1683.2942              1787.0669              2982.0938
 Red. masses --      1.2525                11.4800                 1.0486
 Frc consts  --      2.0910                21.6010                 5.4941
 IR Inten    --    114.8429               224.8321                31.2864

                     64                     65                     66
                      A                      A                      A
 Frequencies --   2994.7029              3016.4225              3033.8243
 Red. masses --      1.0453                 1.1039                 1.1051
 Frc consts  --      5.5234                 5.9181                 5.9928
 IR Inten    --     83.6425                63.2215                60.7045

                     67                     68                     69
                      A                      A                      A
 Frequencies --   3066.7029              3108.6654              3118.7770
 Red. masses --      1.0646                 1.0646                 1.0956
 Frc consts  --      5.8992                 6.0616                 6.2787
 IR Inten    --     26.3665                12.1341                28.6788

                     70                     71                     72
                      A                      A                      A
 Frequencies --   3136.6461              3176.0295              3293.5673
 Red. masses --      1.0967                 1.1079                 1.0975
 Frc consts  --      6.3573                 6.5845                 7.0144
 IR Inten    --     34.3397                10.8135                 0.3559

                     73                     74                     75
                      A                      A                      A
 Frequencies --   3533.0995              3631.2835              3666.2898
 Red. masses --      1.0481                 1.0967                 1.0813
 Frc consts  --      7.7087                 8.5204                 8.5638
 IR Inten    --     10.9166                12.2575               105.6875

 - Thermochemistry -
 -------------------
 Temperature   298.150 Kelvin.  Pressure   1.00000 Atm.
 Atom     1 has atomic number  6 and mass  12.00000

 Molecular mass:   199.09569 amu.
 Principal axes and moments of inertia in atomic units:
                           1         2         3
     Eigenvalues --  1527.893535712.417836839.12971
           X            0.99997   0.00262  -0.00668
           Y           -0.00261   0.99999   0.00266
           Z            0.00669  -0.00264   0.99997
 This molecule is an asymmetric top.
 Rotational symmetry number  1.
 Warning -- assumption of classical behavior for rotation
           may cause significant error
 Rotational temperatures (Kelvin)      0.05669     0.01516     0.01266
 Rotational constants (GHZ):           1.18120     0.31593     0.26388
 Zero-point vibrational energy     584739.3 (Joules/Mol)
                                  139.75604 (Kcal/Mol)
 Warning -- explicit consideration of  20 degrees of freedom as
           vibrations may cause significant error
 Vibrational temperatures:     34.38    51.47    85.51   121.90   142.87
          (Kelvin)            161.77   213.59   233.16   320.71   361.26
                              376.27   432.75   473.35   491.33   531.80
                              557.98   663.62   721.82   746.93   811.18
                              929.87   970.16  1038.46  1086.70  1111.16
                             1125.88  1160.53  1192.87  1271.47  1372.07
                             1382.22  1449.14  1493.30  1540.41  1593.53
                             1600.18  1627.68  1670.65  1688.72  1718.78
                             1751.18  1773.85  1818.61  1828.80  1871.82
                             1923.10  1946.34  2021.28  2050.36  2078.82
                             2093.11  2161.59  2164.62  2172.88  2178.23
                             2180.02  2205.69  2234.30  2241.47  2328.75
                             2421.88  2571.19  4290.57  4308.71  4339.96
                             4365.00  4412.30  4472.68  4487.22  4512.93
                             4569.60  4738.71  5083.34  5224.61  5274.97

 Zero-point correction=                           0.222715 (Hartree/Particle)
 Thermal correction to Energy=                    0.237078
 Thermal correction to Enthalpy=                  0.238023
 Thermal correction to Gibbs Free Energy=         0.179409
 Sum of electronic and zero-point Energies=           -702.401778
 Sum of electronic and thermal Energies=              -702.387415
 Sum of electronic and thermal Enthalpies=            -702.386471
 Sum of electronic and thermal Free Energies=         -702.445084

                     E (Thermal)             CV                S
                      KCal/Mol        Cal/Mol-Kelvin    Cal/Mol-Kelvin
 Total                  148.769             51.627            123.363
 Electronic               0.000              0.000              0.000
 Translational            0.889              2.981             41.771
 Rotational               0.889              2.981             32.457
 Vibrational            146.991             45.665             49.135
 Vibration     1          0.593              1.985              6.281
 Vibration     2          0.594              1.982              5.480
 Vibration     3          0.597              1.974              4.476
 Vibration     4          0.601              1.960              3.778
 Vibration     5          0.604              1.950              3.468
 Vibration     6          0.607              1.939              3.226
 Vibration     7          0.618              1.904              2.692
 Vibration     8          0.622              1.889              2.526
 Vibration     9          0.649              1.806              1.935
 Vibration    10          0.663              1.761              1.723
 Vibration    11          0.669              1.743              1.652
 Vibration    12          0.693              1.672              1.413
 Vibration    13          0.712              1.618              1.265
 Vibration    14          0.721              1.593              1.205
 Vibration    15          0.742              1.535              1.081
 Vibration    16          0.756              1.496              1.009
 Vibration    17          0.819              1.336              0.763
 Vibration    18          0.857              1.246              0.654
 Vibration    19          0.874              1.208              0.612
 Vibration    20          0.920              1.110              0.516

 Optimization completed.
    -- Stationary point found.
 Normal termination of Gaussian 16 at Thu Dec 10 09:30:00 2020.

 ----------------------------------------------------------------------
 # B3LYP/6-311++G(d,p) empiricaldispersion=gd3bj scf=xqc pop=npa geom=c
 heck
 ----------------------------------------------------------------------

 --------------------------------------
 CID_64526026_JID_4343_Energie_neutraal
 --------------------------------------
 Structure from the checkpoint file:  "JID_4343.chk"
 Charge =  0 Multiplicity = 1

 SCF Done:  E(RB3LYP) =  -702.838318833     A.U. after   14 cycles
 Normal termination of Gaussian 16 at Thu Dec 10 09:33:00 2020.

 ----------------------------------------------------------------------
 # B3LYP/6-311++G(d,p) empiricaldispersion=gd3bj scf=xqc pop=npa geom=c
 heck
 ----------------------------------------------------------------------

 ------------------------------------
 CID_64526026_JID_4343_Energie_kation
 ------------------------------------
 Structure from the checkpoint file:  "JID_4343.chk"
 Charge =  1 Multiplicity = 2

 SCF Done:  E(UB3LYP) =  -702.537654546     A.U. after   28 cycles
 Normal termination of Gaussian 16 at Thu Dec 10 09:41:32 2020.
 Gaussian 16:  ES64L-G16RevA.03 25-Dec-2016

 ----------------------------------------------------------------------
 # B3LYP/6-311++G(d,p) empiricaldispersion=gd3bj scf=xqc pop=npa geom=c
 heck
 ----------------------------------------------------------------------

 -----------------------------------
 CID_64526026_JID_4343_Energie_anion
 -----------------------------------
 Structure from the checkpoint file:  "JID_4343.chk"
 Charge = -1 Multiplicity = 2

                         Standard orientation:
 ---------------------------------------------------------------------
 Center     Atomic      Atomic             Coordinates (Angstroms)
 Number     Number       Type             X           Y           Z
 ---------------------------------------------------------------------
      1          6           0        3.981150    2.282869   -0.152791
      2          8           0        3.745261    0.925817    0.149385
      3          6           0        2.973146    0.272862   -0.842384
      4          6           0        2.695866   -1.147832   -0.372443
      5          6           0        1.904511   -1.195954    0.929230
      6          8           0        0.628151   -0.522886    0.795399
      7          6           0       -0.357250   -1.225521    0.207087
      8          8           0       -0.259783   -2.376897   -0.183392
      9          6           0       -1.586735   -0.439600    0.083203
     10          6           0       -1.940594    0.859787    0.420659
     11          6           0       -3.289822    0.974175    0.009426
     12          7           0       -3.738964   -0.166521   -0.536504
     13          7           0       -2.682304   -1.000983   -0.488166
     14          7           0       -4.105838    2.104193    0.059461
     15          1           0        4.575613    2.698914    0.664678
     16          1           0        3.040010    2.849605   -0.237398
     17          1           0        4.539289    2.398989   -1.095939
     18          1           0        2.025846    0.812163   -1.004628
     19          1           0        3.514561    0.258603   -1.803031
     20          1           0        2.154011   -1.695065   -1.150604
     21          1           0        3.649664   -1.664544   -0.208672
     22          1           0        1.728012   -2.226693    1.244031
     23          1           0        2.417770   -0.641603    1.714777
     24          1           0       -1.309676    1.604207    0.881069
     25          1           0       -2.748036   -1.943599   -0.842767
     26          1           0       -5.078229    1.867823   -0.107866
     27          1           0       -4.009748    2.631392    0.919765
 ---------------------------------------------------------------------

 SCF Done:  E(UB3LYP) =  -702.833505152     A.U. after   33 cycles
 SCF Done:  E(UB3LYP) =  -702.833505152     a.u. after    1 cycles

 The electronic state is 2-A.
 Alpha  occ. eigenvalues --  -19.02902 -19.02211 -18.95915 -14.24187 -14.21123
 Alpha  occ. eigenvalues --  -14.19320 -10.14343 -10.10867 -10.10820 -10.10765
 Alpha  occ. eigenvalues --  -10.10199 -10.07145 -10.06259 -10.03243  -0.96839
 Alpha  occ. eigenvalues --   -0.93538  -0.91752  -0.87710  -0.80332  -0.68771
 Alpha  occ. eigenvalues --   -0.67533  -0.65103  -0.60573  -0.56083  -0.51721
 Alpha  occ. eigenvalues --   -0.48898  -0.47259  -0.44744  -0.41362  -0.40069
 Alpha  occ. eigenvalues --   -0.39089  -0.38239  -0.35508  -0.35107  -0.34738
 Alpha  occ. eigenvalues --   -0.33506  -0.32617  -0.31993  -0.30225  -0.29441
 Alpha  occ. eigenvalues --   -0.29047  -0.26837  -0.26296  -0.24558  -0.22539
 Alpha  occ. eigenvalues --   -0.21878  -0.21573  -0.17751  -0.17394  -0.15926
 Alpha  occ. eigenvalues --   -0.14631  -0.12905  -0.09971   0.04902
 Alpha virt. eigenvalues --    0.06475   0.07458   0.08477   0.09161   0.10132
 Alpha virt. eigenvalues --    0.10611   0.11160   0.11597   0.11786   0.12456
 Alpha virt. eigenvalues --    0.14118   0.14441   0.14601   0.15072   0.16077

  Beta  occ. eigenvalues --  -19.02820 -19.02202 -18.95625 -14.23950 -14.21132
  Beta  occ. eigenvalues --  -14.19124 -10.14020 -10.10853 -10.10824 -10.10726
  Beta  occ. eigenvalues --  -10.10266 -10.07067 -10.06246 -10.03117  -0.96509
  Beta  occ. eigenvalues --   -0.93521  -0.91431  -0.87259  -0.80316  -0.68599
  Beta  occ. eigenvalues --   -0.67266  -0.64827  -0.60470  -0.55919  -0.51368
  Beta  occ. eigenvalues --   -0.48708  -0.47216  -0.44503  -0.41243  -0.39979
  Beta  occ. eigenvalues --   -0.39000  -0.38142  -0.35409  -0.34967  -0.34452
  Beta  occ. eigenvalues --   -0.33134  -0.32422  -0.31361  -0.30066  -0.29178
  Beta  occ. eigenvalues --   -0.28645  -0.26731  -0.25944  -0.24258  -0.22435
  Beta  occ. eigenvalues --   -0.21746  -0.21299  -0.17136  -0.16787  -0.15903
  Beta  occ. eigenvalues --   -0.14359  -0.11713  -0.09220
  Beta virt. eigenvalues --    0.07239   0.07507   0.08709   0.09451   0.10177
  Beta virt. eigenvalues --    0.10292   0.10618   0.11496   0.11675   0.11992
  Beta virt. eigenvalues --    0.12495   0.14022   0.14378   0.14768   0.15032

 Mulliken charges and spin densities:
               1          2
     1  C    0.908730  -1.147203
     2  O   -0.189041   0.056018
     3  C   -0.336050  -0.086226
     4  C    0.020405  -0.140487
     5  C   -0.237458  -0.004376
     6  O   -0.021961   0.016344
     7  C   -0.083468   0.126328
     8  O   -0.370639   0.104846
     9  C   -0.311886   0.036031
    10  C    0.405344   0.115244
    11  C   -0.473708  -0.075104
    12  N   -0.216494   0.099380
    13  N   -0.205884   0.090093
    14  N   -0.353301  -0.001366
    15  H   -0.307762   0.438141
    16  H   -0.163519   0.290324
    17  H   -0.422326   0.549944
    18  H    0.231456  -0.048988
    19  H   -0.150136   0.270403
    20  H    0.076383   0.097800
    21  H   -0.000730   0.153423
    22  H    0.181365  -0.009049
    23  H    0.125797   0.042666
    24  H    0.143143   0.028809
    25  H    0.295149  -0.003775
    26  H    0.234248   0.000712
    27  H    0.222341   0.000069
 Sum of Mulliken charges =  -1.00000   1.00000

 Dipole moment (field-independent basis, Debye):
    X=             -3.5627    Y=             -1.1310    Z=              2.2849  Tot=              4.3810
 Quadrupole moment (field-independent basis, Debye-Ang):
   XX=           -152.4413   YY=           -114.9591   ZZ=            -99.0938
   XY=            -18.7560   XZ=             -1.1192   YZ=              4.6197

 Summary of Natural Population Analysis:

                                       Natural Population
                Natural  -----------------------------------------------
    Atom  No    Charge         Core      Valence    Rydberg      Total
 -----------------------------------------------------------------------
      C    1   -0.09602      0.99962     2.08706    0.00934     3.09602
      O    2   -0.30337      0.99988     3.29262    0.01087     4.30337
      C    3   -0.01040      0.99959     1.99797    0.01284     3.01040
      C    4   -0.21497      0.99962     2.20522    0.01013     3.21497
      C    5   -0.01624      0.99956     2.00526    0.01142     3.01624
      O    6   -0.27803      0.99986     3.26973    0.00844     4.27803
      C    7    0.42368      0.99962     1.55315    0.02354     2.57632
      O    8   -0.30537      0.99988     3.30035    0.00514     4.30537
      C    9    0.04339      0.99952     1.94485    0.01223     2.95661
      C   10   -0.14465      0.99949     2.13707    0.00810     3.14465
      C   11    0.13776      0.99960     1.84744    0.01519     2.86224
      N   12   -0.16446      0.99969     2.64990    0.01487     3.66446
      N   13   -0.13077      0.99966     2.61916    0.01195     3.63077
      N   14   -0.41149      0.99972     2.90161    0.01016     3.91149
      H   15    0.08893      0.00000     0.40966    0.00140     0.41107
      H   16    0.07891      0.00000     0.41948    0.00161     0.42109
      H   17    0.07788      0.00000     0.41961    0.00251     0.42212
      H   18    0.08520      0.00000     0.41301    0.00180     0.41480
      H   19    0.07829      0.00000     0.42028    0.00143     0.42171
      H   20    0.11012      0.00000     0.38884    0.00104     0.38988
      H   21    0.09897      0.00000     0.39980    0.00123     0.40103
      H   22    0.09372      0.00000     0.40497    0.00131     0.40628
      H   23    0.09353      0.00000     0.40501    0.00146     0.40647
      H   24    0.10724      0.00000     0.39167    0.00109     0.39276
      H   25    0.19780      0.00000     0.30019    0.00201     0.30220
      H   26    0.18220      0.00000     0.31603    0.00177     0.31780
      H   27    0.17815      0.00000     0.32030    0.00156     0.32185
 =======================================================================
   * Total *   -0.00000     13.99532    38.82022    0.18445    53.00000

 Normal termination of Gaussian 16 at Thu Dec 10 09:51:29 2020.
