 Gaussian 16, Revision A.03,

 -----------------------------------------------------------
 # opt freq B3LYP/6-31G(d) empiricaldispersion=gd3bj scf=xqc
 -----------------------------------------------------------

 ------------------------------
 CID_82405638_JID_1831_neutraal
 ------------------------------
 Symbolic Z-matrix:
 Charge =  0 Multiplicity = 1

 SCF Done:  E(RB3LYP) =  -1178.66512070     A.U. after   15 cycles
 SCF Done:  E(RB3LYP) =  -1178.66992886     A.U. after   12 cycles
 SCF Done:  E(RB3LYP) =  -1178.67124514     A.U. after   13 cycles
 SCF Done:  E(RB3LYP) =  -1178.67224704     A.U. after   12 cycles
 SCF Done:  E(RB3LYP) =  -1178.67275947     A.U. after   13 cycles
 SCF Done:  E(RB3LYP) =  -1178.67303139     A.U. after   12 cycles
 SCF Done:  E(RB3LYP) =  -1178.67304730     A.U. after   11 cycles
 SCF Done:  E(RB3LYP) =  -1178.67309392     A.U. after   10 cycles
 SCF Done:  E(RB3LYP) =  -1178.67309603     A.U. after    9 cycles
 SCF Done:  E(RB3LYP) =  -1178.67309637     A.U. after    8 cycles
 Optimization completed.
    -- Stationary point found.
 Normal termination of Gaussian 16 at Tue Dec  8 21:16:02 2020.

 --------------------------------------------------------------------
 #N Geom=AllCheck Guess=TCheck SCRF=Check GenChk RB3LYP/6-31G(d) Freq
 --------------------------------------------------------------------

 Structure from the checkpoint file:  "JID_1831.chk"
 ------------------------------
 CID_82405638_JID_1831_neutraal
 ------------------------------
 Charge =  0 Multiplicity = 1

 SCF Done:  E(RB3LYP) =  -1178.67309637     A.U. after    1 cycles

  Exact polarizability: 133.063   3.555 108.846  -6.027   6.385  89.863
 Approx polarizability: 188.197   4.223 192.304 -18.573  20.893 148.699

                      1                      2                      3
                      A                      A                      A
 Frequencies --     50.2522                73.1143               135.2122
 Red. masses --      5.0076                 5.3097                 3.8278
 Frc consts  --      0.0075                 0.0167                 0.0412
 IR Inten    --      1.1743                 0.6536                 1.4140

                      4                      5                      6
                      A                      A                      A
 Frequencies --    196.5221               231.6215               275.9157
 Red. masses --      6.1461                 4.1836                 3.1361
 Frc consts  --      0.1399                 0.1322                 0.1407
 IR Inten    --      2.9485                 1.7116                 1.6642

                      7                      8                      9
                      A                      A                      A
 Frequencies --    337.6580               387.1991               410.7014
 Red. masses --      4.7831                 3.7111                 2.7634
 Frc consts  --      0.3213                 0.3278                 0.2746
 IR Inten    --      0.8021                 2.2741                 3.6537

                     10                     11                     12
                      A                      A                      A
 Frequencies --    464.3482               490.6497               522.6864
 Red. masses --      3.2590                 4.2501                 2.7715
 Frc consts  --      0.4140                 0.6028                 0.4461
 IR Inten    --      4.3427                 3.0715                19.4139

                     13                     14                     15
                      A                      A                      A
 Frequencies --    619.3365               646.6055               667.7287
 Red. masses --      4.9779                 7.2415                 4.6976
 Frc consts  --      1.1250                 1.7838                 1.2340
 IR Inten    --     16.9932                 0.4603                 3.1440

                     16                     17                     18
                      A                      A                      A
 Frequencies --    735.0055               740.5466               752.5596
 Red. masses --      3.6673                 2.2494                 1.3315
 Frc consts  --      1.1673                 0.7268                 0.4443
 IR Inten    --     26.2071                23.4336                 6.5355

                     19                     20                     21
                      A                      A                      A
 Frequencies --    795.1260               826.8049               831.9897
 Red. masses --      1.7322                 2.8703                 1.6490
 Frc consts  --      0.6452                 1.1561                 0.6725
 IR Inten    --     20.1590                19.1328                22.2792

                     22                     23                     24
                      A                      A                      A
 Frequencies --    873.9680               888.4755               929.6013
 Red. masses --      2.8853                 3.7612                 3.4034
 Frc consts  --      1.2985                 1.7493                 1.7328
 IR Inten    --     16.1893                21.8563                 9.6505

                     25                     26                     27
                      A                      A                      A
 Frequencies --    975.1684               979.6946              1034.5706
 Red. masses --      2.9684                 2.3317                 1.6557
 Frc consts  --      1.6632                 1.3186                 1.0441
 IR Inten    --     26.6340                14.6572                12.7414

                     28                     29                     30
                      A                      A                      A
 Frequencies --   1064.2633              1082.4344              1153.2629
 Red. masses --      1.8730                 1.6662                 1.7045
 Frc consts  --      1.2499                 1.1502                 1.3357
 IR Inten    --      4.9376                 3.8079                 4.4402

                     31                     32                     33
                      A                      A                      A
 Frequencies --   1175.1730              1203.8130              1228.5268
 Red. masses --      2.4813                 1.3342                 1.1013
 Frc consts  --      2.0190                 1.1392                 0.9793
 IR Inten    --     23.3952                 1.3134                 3.3324

                     34                     35                     36
                      A                      A                      A
 Frequencies --   1241.6585              1282.1909              1292.6556
 Red. masses --      1.5030                 1.3120                 1.3411
 Frc consts  --      1.3652                 1.2708                 1.3203
 IR Inten    --     11.9770                11.3205                 2.4405

                     37                     38                     39
                      A                      A                      A
 Frequencies --   1321.4238              1339.9718              1364.6154
 Red. masses --      1.3076                 1.7781                 1.4263
 Frc consts  --      1.3453                 1.8811                 1.5649
 IR Inten    --     15.1375                 8.3298                 3.4719

                     40                     41                     42
                      A                      A                      A
 Frequencies --   1379.5251              1444.2921              1485.8959
 Red. masses --      1.3661                 1.4382                 1.1060
 Frc consts  --      1.5318                 1.7676                 1.4388
 IR Inten    --     24.2885                 3.3191                 6.1001

                     43                     44                     45
                      A                      A                      A
 Frequencies --   1494.9256              1505.9965              1513.8488
 Red. masses --      5.8736                 1.1941                 1.1971
 Frc consts  --      7.7339                 1.5957                 1.6164
 IR Inten    --     47.5255                 1.7191                 2.2268

                     46                     47                     48
                      A                      A                      A
 Frequencies --   1525.8894              1570.1506              2950.5042
 Red. masses --      1.1220                 8.5132                 1.0718
 Frc consts  --      1.5392                12.3659                 5.4976
 IR Inten    --      6.6813                35.2018                68.3709

                     49                     50                     51
                      A                      A                      A
 Frequencies --   2963.8725              3062.6494              3067.5759
 Red. masses --      1.0720                 1.0840                 1.0843
 Frc consts  --      5.5484                 5.9905                 6.0117
 IR Inten    --     90.4901                12.0578                19.7797

                     52                     53                     54
                      A                      A                      A
 Frequencies --   3084.0020              3114.4950              3136.8933
 Red. masses --      1.0633                 1.0899                 1.1083
 Frc consts  --      5.9584                 6.2289                 6.4256
 IR Inten    --     37.6330                11.3907                12.8757

                     55                     56                     57
                      A                      A                      A
 Frequencies --   3245.2544              3296.5615              3526.1702
 Red. masses --      1.0939                 1.0942                 1.0750
 Frc consts  --      6.7878                 7.0063                 7.8749
 IR Inten    --      2.5206                 2.7267                 0.0467

 - Thermochemistry -
 -------------------
 Temperature   298.150 Kelvin.  Pressure   1.00000 Atm.
 Atom     1 has atomic number  6 and mass  12.00000

 Molecular mass:   186.02854 amu.
 Principal axes and moments of inertia in atomic units:
                           1         2         3
     Eigenvalues --  1129.865473168.950373500.59991
           X            0.99985  -0.00593   0.01630
           Y            0.00519   0.99898   0.04479
           Z           -0.01655  -0.04469   0.99886
 This molecule is an asymmetric top.
 Rotational symmetry number  1.
 Warning -- assumption of classical behavior for rotation
           may cause significant error
 Rotational temperatures (Kelvin)      0.07666     0.02733     0.02474
 Rotational constants (GHZ):           1.59731     0.56951     0.51555
 Zero-point vibrational energy     442567.8 (Joules/Mol)
                                  105.77624 (Kcal/Mol)
 Warning -- explicit consideration of  13 degrees of freedom as
           vibrations may cause significant error
 Vibrational temperatures:     72.30   105.20   194.54   282.75   333.25
          (Kelvin)            396.98   485.81   557.09   590.91   668.09
                              705.94   752.03   891.09   930.32   960.71
                             1057.51  1065.48  1082.77  1144.01  1189.59
                             1197.05  1257.44  1278.32  1337.49  1403.05
                             1409.56  1488.52  1531.24  1557.38  1659.29
                             1690.81  1732.02  1767.58  1786.47  1844.79
                             1859.84  1901.23  1927.92  1963.38  1984.83
                             2078.01  2137.87  2150.86  2166.79  2178.09
                             2195.41  2259.10  4245.12  4264.35  4406.47
                             4413.56  4437.19  4481.06  4513.29  4669.20
                             4743.02  5073.37

 Zero-point correction=                           0.168565 (Hartree/Particle)
 Thermal correction to Energy=                    0.178339
 Thermal correction to Enthalpy=                  0.179283
 Thermal correction to Gibbs Free Energy=         0.132343
 Sum of electronic and zero-point Energies=          -1178.504531
 Sum of electronic and thermal Energies=             -1178.494757
 Sum of electronic and thermal Enthalpies=           -1178.493813
 Sum of electronic and thermal Free Energies=        -1178.540753

                     E (Thermal)             CV                S
                      KCal/Mol        Cal/Mol-Kelvin    Cal/Mol-Kelvin
 Total                  111.909             38.079             98.793
 Electronic               0.000              0.000              0.000
 Translational            0.889              2.981             41.568
 Rotational               0.889              2.981             30.906
 Vibrational            110.132             32.118             26.319
 Vibration     1          0.595              1.977              4.807
 Vibration     2          0.599              1.967              4.068
 Vibration     3          0.613              1.918              2.871
 Vibration     4          0.636              1.845              2.165
 Vibration     5          0.653              1.793              1.866
 Vibration     6          0.678              1.718              1.559
 Vibration     7          0.718              1.600              1.223
 Vibration     8          0.756              1.498              1.011
 Vibration     9          0.775              1.447              0.924
 Vibration    10          0.822              1.329              0.754
 Vibration    11          0.846              1.271              0.682
 Vibration    12          0.878              1.200              0.604
 Vibration    13          0.979              0.991              0.418

 Optimization completed.
    -- Stationary point found.
 Normal termination of Gaussian 16 at Tue Dec  8 21:20:50 2020.

 ----------------------------------------------------------------------
 # B3LYP/6-311++G(d,p) empiricaldispersion=gd3bj scf=xqc pop=npa geom=c
 heck
 ----------------------------------------------------------------------

 --------------------------------------
 CID_82405638_JID_1831_Energie_neutraal
 --------------------------------------
 Structure from the checkpoint file:  "JID_1831.chk"
 Charge =  0 Multiplicity = 1

 SCF Done:  E(RB3LYP) =  -1178.83244546     A.U. after   15 cycles
 Normal termination of Gaussian 16 at Tue Dec  8 21:23:08 2020.

 ----------------------------------------------------------------------
 # B3LYP/6-311++G(d,p) empiricaldispersion=gd3bj scf=xqc pop=npa geom=c
 heck
 ----------------------------------------------------------------------

 ------------------------------------
 CID_82405638_JID_1831_Energie_kation
 ------------------------------------
 Structure from the checkpoint file:  "JID_1831.chk"
 Charge =  1 Multiplicity = 2

 SCF Done:  E(UB3LYP) =  -1178.53341863     A.U. after   25 cycles
 Normal termination of Gaussian 16 at Tue Dec  8 21:29:50 2020.
 Gaussian 16:  ES64L-G16RevA.03 25-Dec-2016

 ----------------------------------------------------------------------
 # B3LYP/6-311++G(d,p) empiricaldispersion=gd3bj scf=xqc pop=npa geom=c
 heck
 ----------------------------------------------------------------------

 -----------------------------------
 CID_82405638_JID_1831_Energie_anion
 -----------------------------------
 Structure from the checkpoint file:  "JID_1831.chk"
 Charge = -1 Multiplicity = 2

                         Standard orientation:
 ---------------------------------------------------------------------
 Center     Atomic      Atomic             Coordinates (Angstroms)
 Number     Number       Type             X           Y           Z
 ---------------------------------------------------------------------
      1          6           0       -2.616548    0.425710   -1.160251
      2          6           0       -2.071137   -0.981160   -0.932778
      3         16           0       -1.643963   -1.274421    0.830365
      4          6           0       -0.596490    0.218402    1.099607
      5          6           0       -1.324472    1.484379    0.618237
      6          7           0       -1.602880    1.417460   -0.812886
      7          6           0        0.788374    0.106639    0.503604
      8          6           0        1.369606   -0.997409   -0.053576
      9         16           0        2.984067   -0.636640   -0.573395
     10          6           0        2.757224    0.994117    0.012996
     11          7           0        1.593594    1.232792    0.537961
     12          1           0       -2.857396    0.541831   -2.224081
     13          1           0       -3.553949    0.544773   -0.585139
     14          1           0       -2.820252   -1.737407   -1.184855
     15          1           0       -1.183892   -1.138010   -1.552653
     16          1           0       -0.503900    0.283561    2.190526
     17          1           0       -0.664303    2.337615    0.797153
     18          1           0       -2.235352    1.606198    1.231515
     19          1           0       -1.888013    2.334368   -1.144190
     20          1           0        0.941781   -1.981027   -0.173818
     21          1           0        3.549274    1.729234   -0.068541
 ---------------------------------------------------------------------

 SCF Done:  E(UB3LYP) =  -1178.81666950     A.U. after   33 cycles
 SCF Done:  E(UB3LYP) =  -1178.81666950     a.u. after    1 cycles

 The electronic state is 2-A.
 Alpha  occ. eigenvalues --  -88.76597 -88.72856 -14.19794 -14.18339 -10.11180
 Alpha  occ. eigenvalues --  -10.10074 -10.09374 -10.08596 -10.08221 -10.08181
 Alpha  occ. eigenvalues --  -10.07822  -7.85254  -7.81500  -5.81518  -5.81177
 Alpha  occ. eigenvalues --   -5.80889  -5.77877  -5.77542  -5.76863  -0.84937
 Alpha  occ. eigenvalues --   -0.80121  -0.69809  -0.68413  -0.66439  -0.61293
 Alpha  occ. eigenvalues --   -0.54013  -0.52400  -0.48114  -0.46481  -0.42192
 Alpha  occ. eigenvalues --   -0.40102  -0.38398  -0.34806  -0.34030  -0.31211
 Alpha  occ. eigenvalues --   -0.30608  -0.29720  -0.29453  -0.28577  -0.27530
 Alpha  occ. eigenvalues --   -0.26957  -0.24218  -0.21973  -0.19471  -0.17305
 Alpha  occ. eigenvalues --   -0.16471  -0.13413  -0.12291  -0.11489   0.05166
 Alpha virt. eigenvalues --    0.06890   0.07761   0.08258   0.08739   0.09422
 Alpha virt. eigenvalues --    0.10246   0.10830   0.11349   0.11849   0.12719
 Alpha virt. eigenvalues --    0.13368   0.13527   0.14027   0.14317   0.14620

  Beta  occ. eigenvalues --  -88.76572 -88.72851 -14.19758 -14.18302 -10.10996
  Beta  occ. eigenvalues --  -10.10077 -10.09371 -10.08585 -10.08187 -10.08160
  Beta  occ. eigenvalues --  -10.07685  -7.85231  -7.81494  -5.81509  -5.81168
  Beta  occ. eigenvalues --   -5.80801  -5.77872  -5.77539  -5.76858  -0.84784
  Beta  occ. eigenvalues --   -0.80071  -0.69756  -0.68248  -0.66377  -0.61105
  Beta  occ. eigenvalues --   -0.53940  -0.52329  -0.47858  -0.46351  -0.42100
  Beta  occ. eigenvalues --   -0.40005  -0.38301  -0.34761  -0.33936  -0.31108
  Beta  occ. eigenvalues --   -0.30465  -0.29603  -0.29353  -0.28421  -0.27305
  Beta  occ. eigenvalues --   -0.26882  -0.24121  -0.21911  -0.19445  -0.16804
  Beta  occ. eigenvalues --   -0.16392  -0.12746  -0.12227  -0.11418
  Beta virt. eigenvalues --    0.07654   0.08062   0.08382   0.08974   0.09185
  Beta virt. eigenvalues --    0.10124   0.10862   0.11074   0.11614   0.12080
  Beta virt. eigenvalues --    0.12879   0.13450   0.13577   0.14313   0.14625

 Mulliken charges and spin densities:
               1          2
     1  C    1.471230  -1.819358
     2  C   -0.797633   0.312933
     3  S    0.255720  -0.420769
     4  C    0.102875   0.275954
     5  C    0.707871  -1.270107
     6  N   -0.497937   0.364296
     7  C   -1.380764  -0.229439
     8  C    0.613370   0.287575
     9  S   -0.331137  -0.127334
    10  C    0.178679   0.180708
    11  N    0.046281   0.041689
    12  H   -0.849641   1.014861
    13  H   -0.138159   0.251168
    14  H   -0.423585   0.640686
    15  H    0.265426  -0.075901
    16  H    0.159268   0.115743
    17  H    0.039869   0.167989
    18  H   -0.240593   0.339723
    19  H   -0.247882   0.519121
    20  H    0.116116   0.140357
    21  H   -0.049374   0.290105
 Sum of Mulliken charges =  -1.00000   1.00000

 Dipole moment (field-independent basis, Debye):
    X=              5.5178    Y=             -3.1273    Z=              2.4811  Tot=              6.8104
 Quadrupole moment (field-independent basis, Debye-Ang):
   XX=           -136.6824   YY=           -114.4397   ZZ=           -112.1489
   XY=              4.4568   XZ=            -11.3293   YZ=              4.7795

 Summary of Natural Population Analysis:

                                       Natural Population
                Natural  -----------------------------------------------
    Atom  No    Charge         Core      Valence    Rydberg      Total
 -----------------------------------------------------------------------
      C    1   -0.09253      0.99961     2.07910    0.01382     3.09253
      C    2   -0.25200      0.99958     2.24102    0.01139     3.25200
      S    3    0.08470      4.99964     2.89933    0.01633     7.91530
      C    4   -0.17407      0.99950     2.15983    0.01473     3.17407
      C    5   -0.09003      0.99959     2.07702    0.01343     3.09003
      N    6   -0.34174      0.99973     2.82796    0.01406     3.84174
      C    7    0.05681      0.99945     1.92812    0.01562     2.94319
      C    8   -0.18519      0.99944     2.17629    0.00946     3.18519
      S    9    0.17505      4.99948     2.80396    0.02152     7.82495
      C   10   -0.02333      0.99965     2.00771    0.01597     3.02333
      N   11   -0.24100      0.99966     2.72932    0.01203     3.74100
      H   12    0.10043      0.00000     0.39648    0.00310     0.39957
      H   13    0.08069      0.00000     0.41649    0.00282     0.41931
      H   14    0.10574      0.00000     0.39298    0.00128     0.39426
      H   15    0.10234      0.00000     0.39558    0.00208     0.39766
      H   16    0.11286      0.00000     0.38600    0.00115     0.38714
      H   17    0.10799      0.00000     0.38996    0.00205     0.39201
      H   18    0.08257      0.00000     0.41533    0.00211     0.41743
      H   19    0.18134      0.00000     0.31357    0.00510     0.31866
      H   20    0.11596      0.00000     0.38256    0.00148     0.38404
      H   21    0.09344      0.00000     0.40538    0.00118     0.40656
 =======================================================================
   * Total *    0.00000     18.99532    29.82399    0.18069    49.00000

 Normal termination of Gaussian 16 at Tue Dec  8 21:41:40 2020.
