 Gaussian 16, Revision A.03,

 -----------------------------------------------------------
 # opt freq B3LYP/6-31G(d) empiricaldispersion=gd3bj scf=xqc
 -----------------------------------------------------------

 ------------------------------
 CID_101996605_JID_979_neutraal
 ------------------------------
 Symbolic Z-matrix:
 Charge =  0 Multiplicity = 1

 SCF Done:  E(RB3LYP) =  -462.477105725     A.U. after   13 cycles
 SCF Done:  E(RB3LYP) =  -462.482946976     A.U. after   11 cycles
 SCF Done:  E(RB3LYP) =  -462.484031014     A.U. after   11 cycles
 SCF Done:  E(RB3LYP) =  -462.484236643     A.U. after   10 cycles
 SCF Done:  E(RB3LYP) =  -462.484374091     A.U. after   11 cycles
 SCF Done:  E(RB3LYP) =  -462.484402217     A.U. after   10 cycles
 SCF Done:  E(RB3LYP) =  -462.484408552     A.U. after    9 cycles
 SCF Done:  E(RB3LYP) =  -462.484408838     A.U. after    7 cycles
 Optimization completed.
    -- Stationary point found.

 1\1\GINC-NODE200\FOpt\RB3LYP\6-31G(d)\C8H12O2\VSC10255\08-Dec-2020\0\\
 # opt freq B3LYP/6-31G(d) empiricaldispersion=gd3bj scf=xqc\\CID_10199
 6605_JID_979_neutraal\\0,1\C,0.9754289466,-0.1267804462,-0.0323990569\
 C,0.2039029551,0.6522525059,-0.7958430024\C,-1.2686572949,0.6959384056
 ,-0.7358520726\C,-2.0110657851,2.0289398259,-0.973327847\C,-2.09418794
 54,0.9658469942,-1.9893996215\O,-3.3103746596,0.2988826881,-2.11661023
 52\C,-3.1160384673,-1.001718768,-2.6844539353\C,-2.3903769735,-0.88404
 91907,-4.0247839122\C,-1.1119012874,-0.070392451,-3.8245321953\O,-1.42

 Normal termination of Gaussian 16 at Tue Dec  8 13:31:18 2020.

 --------------------------------------------------------------------
 #N Geom=AllCheck Guess=TCheck SCRF=Check GenChk RB3LYP/6-31G(d) Freq
 --------------------------------------------------------------------

 Structure from the checkpoint file:  "JID_979.chk"
 ------------------------------
 CID_101996605_JID_979_neutraal
 ------------------------------
 Charge =  0 Multiplicity = 1

 SCF Done:  E(RB3LYP) =  -462.484408838     A.U. after    1 cycles

  Exact polarizability:  98.122  -8.333  83.975   4.784  -3.125  77.995
 Approx polarizability: 125.785 -18.058 120.952  11.924  -9.429 118.603

                      1                      2                      3
                      A                      A                      A
 Frequencies --     76.4373               124.0597               153.3706
 Red. masses --      3.2337                 2.9427                 2.8665
 Frc consts  --      0.0111                 0.0267                 0.0397
 IR Inten    --      1.2452                 0.4982                 1.8559

                      4                      5                      6
                      A                      A                      A
 Frequencies --    213.1100               251.7936               318.8381
 Red. masses --      2.2130                 2.8464                 2.0348
 Frc consts  --      0.0592                 0.1063                 0.1219
 IR Inten    --      1.5142                 3.3046                 1.8984

                      7                      8                      9
                      A                      A                      A
 Frequencies --    357.8905               414.1979               423.4199
 Red. masses --      2.0913                 2.8466                 3.3527
 Frc consts  --      0.1578                 0.2877                 0.3542
 IR Inten    --      1.9713                 1.5533                 7.9046

                     10                     11                     12
                      A                      A                      A
 Frequencies --    451.7475               493.4757               582.0627
 Red. masses --      3.3800                 4.2688                 2.3739
 Frc consts  --      0.4064                 0.6125                 0.4739
 IR Inten    --      2.5440                 5.4535                 7.0002

                     13                     14                     15
                      A                      A                      A
 Frequencies --    619.3509               682.8591               759.8936
 Red. masses --      2.5689                 2.6784                 2.3584
 Frc consts  --      0.5806                 0.7358                 0.8024
 IR Inten    --      0.3773                 8.2996                 9.8015

                     16                     17                     18
                      A                      A                      A
 Frequencies --    834.8927               872.5724               875.8563
 Red. masses --      1.7692                 2.7013                 1.8722
 Frc consts  --      0.7266                 1.2118                 0.8462
 IR Inten    --      4.4930                 6.4623                12.3770

                     19                     20                     21
                      A                      A                      A
 Frequencies --    913.0521               917.3381               938.4756
 Red. masses --      1.3558                 1.4003                 2.5132
 Frc consts  --      0.6659                 0.6943                 1.3041
 IR Inten    --     37.4485                 4.5941                58.9642

                     22                     23                     24
                      A                      A                      A
 Frequencies --    960.8532               972.1759               989.9113
 Red. masses --      3.4026                 1.9157                 1.6882
 Frc consts  --      1.8509                 1.0668                 0.9747
 IR Inten    --     36.2586                18.5104                16.3112

                     25                     26                     27
                      A                      A                      A
 Frequencies --   1032.9220              1052.1080              1068.8201
 Red. masses --      1.1409                 1.5700                 1.3522
 Frc consts  --      0.7172                 1.0239                 0.9101
 IR Inten    --      4.3066                18.5880                18.0621

                     28                     29                     30
                      A                      A                      A
 Frequencies --   1073.7114              1100.5017              1122.0452
 Red. masses --      3.7227                 2.0933                 3.5623
 Frc consts  --      2.5286                 1.4937                 2.6424
 IR Inten    --      6.6080                33.9548               107.2164

                     31                     32                     33
                      A                      A                      A
 Frequencies --   1185.6952              1207.1396              1232.5640
 Red. masses --      2.2648                 1.9886                 1.9281
 Frc consts  --      1.8760                 1.7073                 1.7258
 IR Inten    --     33.4654                31.5748                20.0257

                     34                     35                     36
                      A                      A                      A
 Frequencies --   1256.1393              1290.8781              1309.5411
 Red. masses --      1.2868                 1.4103                 1.4713
 Frc consts  --      1.1962                 1.3847                 1.4866
 IR Inten    --      5.2005                34.6777                39.9492

                     37                     38                     39
                      A                      A                      A
 Frequencies --   1325.8492              1339.1446              1393.1684
 Red. masses --      1.1614                 1.3723                 1.4821
 Frc consts  --      1.2029                 1.4500                 1.6948
 IR Inten    --     11.2898                11.4971                10.8009

                     40                     41                     42
                      A                      A                      A
 Frequencies --   1399.4811              1425.2777              1431.8579
 Red. masses --      1.7864                 1.3564                 1.3389
 Frc consts  --      2.0614                 1.6234                 1.6173
 IR Inten    --     68.9206                13.2022                11.2417

                     43                     44                     45
                      A                      A                      A
 Frequencies --   1483.1204              1498.3613              1508.3147
 Red. masses --      1.2140                 1.1004                 1.5865
 Frc consts  --      1.5733                 1.4556                 2.1265
 IR Inten    --      2.7840                 4.7521                36.0100

                     46                     47                     48
                      A                      A                      A
 Frequencies --   1525.1094              1540.9080              1723.1230
 Red. masses --      1.1036                 1.1728                 4.4720
 Frc consts  --      1.5123                 1.6407                 7.8232
 IR Inten    --      2.7610                14.1130                26.2180

                     49                     50                     51
                      A                      A                      A
 Frequencies --   3010.2818              3026.5757              3060.0742
 Red. masses --      1.0706                 1.0695                 1.0600
 Frc consts  --      5.7158                 5.7720                 5.8483
 IR Inten    --     32.5006                33.5172                23.9667

                     52                     53                     54
                      A                      A                      A
 Frequencies --   3107.4966              3124.9958              3128.0011
 Red. masses --      1.1026                 1.0951                 1.0990
 Frc consts  --      6.2733                 6.3010                 6.3353
 IR Inten    --     26.3465                44.5084                40.1059

                     55                     56                     57
                      A                      A                      A
 Frequencies --   3156.1090              3160.3005              3164.3598
 Red. masses --      1.0650                 1.0552                 1.0828
 Frc consts  --      6.2501                 6.2091                 6.3882
 IR Inten    --      4.4677                 8.8951                 2.2508

                     58                     59                     60
                      A                      A                      A
 Frequencies --   3170.4504              3240.7635              3251.5589
 Red. masses --      1.0894                 1.1155                 1.1190
 Frc consts  --      6.4519                 6.9026                 6.9705
 IR Inten    --     11.4078                18.8979                 3.3920

 - Thermochemistry -
 -------------------
 Temperature   298.150 Kelvin.  Pressure   1.00000 Atm.
 Atom     1 has atomic number  6 and mass  12.00000

 Molecular mass:   140.08373 amu.
 Principal axes and moments of inertia in atomic units:
                           1         2         3
     Eigenvalues --   845.261941700.745641917.00142
           X            0.99991   0.01326  -0.00338
           Y           -0.01331   0.99983  -0.01310
           Z            0.00321   0.01315   0.99991
 This molecule is an asymmetric top.
 Rotational symmetry number  1.
 Warning -- assumption of classical behavior for rotation
           may cause significant error
 Rotational temperatures (Kelvin)      0.10247     0.05093     0.04518
 Rotational constants (GHZ):           2.13513     1.06115     0.94144
 Zero-point vibrational energy     498390.5 (Joules/Mol)
                                  119.11819 (Kcal/Mol)
 Warning -- explicit consideration of  13 degrees of freedom as
           vibrations may cause significant error
 Vibrational temperatures:    109.98   178.49   220.67   306.62   362.27
          (Kelvin)            458.74   514.92   595.94   609.21   649.96
                              710.00   837.46   891.11   982.48  1093.32
                             1201.22  1255.44  1260.16  1313.68  1319.84
                             1350.26  1382.45  1398.74  1424.26  1486.14
                             1513.75  1537.79  1544.83  1583.38  1614.37
                             1705.95  1736.80  1773.38  1807.30  1857.29
                             1884.14  1907.60  1926.73  2004.46  2013.54
                             2050.66  2060.12  2133.88  2155.81  2170.13
                             2194.29  2217.02  2479.19  4331.12  4354.57
                             4402.76  4470.99  4496.17  4500.50  4540.94
                             4546.97  4552.81  4561.57  4662.74  4678.27

 Zero-point correction=                           0.189827 (Hartree/Particle)
 Thermal correction to Energy=                    0.198929
 Thermal correction to Enthalpy=                  0.199873
 Thermal correction to Gibbs Free Energy=         0.155845
 Sum of electronic and zero-point Energies=           -462.294582
 Sum of electronic and thermal Energies=              -462.285480
 Sum of electronic and thermal Enthalpies=            -462.284536
 Sum of electronic and thermal Free Energies=         -462.328564

                     E (Thermal)             CV                S
                      KCal/Mol        Cal/Mol-Kelvin    Cal/Mol-Kelvin
 Total                  124.830             35.902             92.664
 Electronic               0.000              0.000              0.000
 Translational            0.889              2.981             40.723
 Rotational               0.889              2.981             29.401
 Vibrational            123.052             29.941             22.541
 Vibration     1          0.599              1.965              3.980
 Vibration     2          0.610              1.929              3.036
 Vibration     3          0.619              1.899              2.630
 Vibration     4          0.644              1.821              2.017
 Vibration     5          0.664              1.760              1.718
 Vibration     6          0.705              1.638              1.316
 Vibration     7          0.733              1.559              1.131
 Vibration     8          0.778              1.439              0.912
 Vibration     9          0.786              1.419              0.880
 Vibration    10          0.810              1.357              0.791
 Vibration    11          0.849              1.264              0.675
 Vibration    12          0.939              1.070              0.482
 Vibration    13          0.979              0.991              0.418

 Optimization completed.
    -- Stationary point found.

 1\1\GINC-NODE200\Freq\RB3LYP\6-31G(d)\C8H12O2\VSC10255\08-Dec-2020\0\\
 #N Geom=AllCheck Guess=TCheck SCRF=Check GenChk RB3LYP/6-31G(d) Freq\\
 CID_101996605_JID_979_neutraal\\0,1\C,0.9754289466,-0.1267804462,-0.03
 23990569\C,0.2039029551,0.6522525059,-0.7958430024\C,-1.2686572949,0.6
 959384056,-0.7358520726\C,-2.0110657851,2.0289398259,-0.973327847\C,-2
 .0941879454,0.9658469942,-1.9893996215\O,-3.3103746596,0.2988826881,-2
 .1166102352\C,-3.1160384673,-1.001718768,-2.6844539353\C,-2.3903769735
 ,-0.8840491907,-4.0247839122\C,-1.1119012874,-0.070392451,-3.824532195

 Normal termination of Gaussian 16 at Tue Dec  8 13:35:50 2020.

 ----------------------------------------------------------------------
 # B3LYP/6-311++G(d,p) empiricaldispersion=gd3bj scf=xqc pop=npa geom=c
 heck
 ----------------------------------------------------------------------

 --------------------------------------
 CID_101996605_JID_979_Energie_neutraal
 --------------------------------------
 Structure from the checkpoint file:  "JID_979.chk"
 Charge =  0 Multiplicity = 1

 SCF Done:  E(RB3LYP) =  -462.616279416     A.U. after   13 cycles
 Normal termination of Gaussian 16 at Tue Dec  8 13:37:54 2020.

 ----------------------------------------------------------------------
 # B3LYP/6-311++G(d,p) empiricaldispersion=gd3bj scf=xqc pop=npa geom=c
 heck
 ----------------------------------------------------------------------

 ------------------------------------
 CID_101996605_JID_979_Energie_kation
 ------------------------------------
 Structure from the checkpoint file:  "JID_979.chk"
 Charge =  1 Multiplicity = 2

 SCF Done:  E(UB3LYP) =  -462.309742779     A.U. after   19 cycles
 Normal termination of Gaussian 16 at Tue Dec  8 13:43:47 2020.
 Gaussian 16:  ES64L-G16RevA.03 25-Dec-2016

 -----------------------------------
 CID_101996605_JID_979_Energie_anion
 -----------------------------------
 Structure from the checkpoint file:  "JID_979.chk"
 Charge = -1 Multiplicity = 2

                         Standard orientation:
 ---------------------------------------------------------------------
 Center     Atomic      Atomic             Coordinates (Angstroms)
 Number     Number       Type             X           Y           Z
 ---------------------------------------------------------------------
      1          6           0        3.003756   -1.131881    0.686091
      2          6           0        2.140285   -0.485599   -0.102407
      3          6           0        1.236254    0.590400    0.343570
      4          6           0        0.904290    1.761970   -0.605998
      5          6           0       -0.138253    0.769940   -0.292220
      6          8           0       -1.181977    1.181036    0.533476
      7          6           0       -1.778621    0.056881    1.190795
      8          6           0       -2.243464   -0.967824    0.155993
      9          6           0       -1.071197   -1.306800   -0.764618
     10          8           0       -0.513731   -0.102861   -1.311257
     11          1           0        3.107003   -0.889065    1.741467
     12          1           0        3.640969   -1.923456    0.303276
     13          1           0        2.065027   -0.755656   -1.155033
     14          1           0        1.294059    0.854880    1.397063
     15          1           0        1.335186    1.728998   -1.602094
     16          1           0        0.808750    2.748632   -0.164587
     17          1           0       -2.609273    0.455257    1.778331
     18          1           0       -1.047231   -0.396839    1.877817
     19          1           0       -2.617768   -1.872418    0.650679
     20          1           0       -3.057319   -0.537101   -0.437822
     21          1           0       -0.290157   -1.850906   -0.213196
     22          1           0       -1.381890   -1.910251   -1.620886
 ---------------------------------------------------------------------

 SCF Done:  E(UB3LYP) =  -462.597209084     A.U. after   33 cycles
 SCF Done:  E(UB3LYP) =  -462.597209084     a.u. after    1 cycles

 The electronic state is 2-A.
 Alpha  occ. eigenvalues --  -19.03357 -19.03300 -10.17643 -10.11251 -10.11192
 Alpha  occ. eigenvalues --  -10.08454 -10.07993 -10.07666 -10.06274 -10.05956
 Alpha  occ. eigenvalues --   -0.98519  -0.91491  -0.76597  -0.68055  -0.65711
 Alpha  occ. eigenvalues --   -0.57873  -0.54035  -0.52011  -0.47244  -0.44653
 Alpha  occ. eigenvalues --   -0.41522  -0.40612  -0.38265  -0.34665  -0.34469
 Alpha  occ. eigenvalues --   -0.34049  -0.32492  -0.30555  -0.29971  -0.29294
 Alpha  occ. eigenvalues --   -0.26163  -0.25038  -0.23639  -0.22128  -0.20592
 Alpha  occ. eigenvalues --   -0.17967  -0.17000  -0.13194   0.05039
 Alpha virt. eigenvalues --    0.07339   0.07756   0.08327   0.09222   0.09403
 Alpha virt. eigenvalues --    0.10261   0.10485   0.10728   0.12163   0.12809
 Alpha virt. eigenvalues --    0.13388   0.13658   0.14345   0.16224   0.16737

  Beta  occ. eigenvalues --  -19.03354 -19.03298 -10.17641 -10.11229 -10.11160
  Beta  occ. eigenvalues --  -10.08443 -10.07985 -10.07653 -10.06240 -10.05922
  Beta  occ. eigenvalues --   -0.98511  -0.91484  -0.76580  -0.68009  -0.65669
  Beta  occ. eigenvalues --   -0.57818  -0.53985  -0.51970  -0.47182  -0.44605
  Beta  occ. eigenvalues --   -0.41484  -0.40574  -0.38205  -0.34617  -0.34434
  Beta  occ. eigenvalues --   -0.34022  -0.32443  -0.30515  -0.29934  -0.29261
  Beta  occ. eigenvalues --   -0.26125  -0.25007  -0.23594  -0.22104  -0.20557
  Beta  occ. eigenvalues --   -0.17931  -0.16975  -0.13157
  Beta virt. eigenvalues --    0.07459   0.08387   0.08575   0.08678   0.09667
  Beta virt. eigenvalues --    0.10271   0.10787   0.11012   0.11352   0.12603
  Beta virt. eigenvalues --    0.13506   0.13838   0.14128   0.14712   0.16186

 Mulliken charges and spin densities:
               1          2
     1  C    0.988642  -1.559214
     2  C   -0.966579   1.008380
     3  C    0.317685   0.037245
     4  C    1.477556  -2.118924
     5  C   -0.726249   0.265630
     6  O   -0.095585   0.057857
     7  C    0.287868  -0.469396
     8  C    0.933761  -1.203712
     9  C   -0.104669  -0.077689
    10  O   -0.077659   0.038087
    11  H   -0.233878   0.345811
    12  H   -0.422050   0.544102
    13  H   -0.272917   0.473704
    14  H   -0.304168   0.558701
    15  H    0.097770   0.048595
    16  H    0.040817   0.113807
    17  H   -0.837714   1.043016
    18  H    0.046222   0.087013
    19  H   -1.224355   1.404652
    20  H    0.293543  -0.153213
    21  H    0.401343  -0.245479
    22  H   -0.619384   0.801028
 Sum of Mulliken charges =  -1.00000   1.00000

 Dipole moment (field-independent basis, Debye):
    X=              2.4971    Y=              4.8599    Z=             -2.9037  Tot=              6.1875
 Quadrupole moment (field-independent basis, Debye-Ang):
   XX=           -119.8550   YY=           -102.4425   ZZ=            -98.0139
   XY=             -2.0254   XZ=              5.3798   YZ=             -0.0085

 Summary of Natural Population Analysis:

                                       Natural Population
                Natural  -----------------------------------------------
    Atom  No    Charge         Core      Valence    Rydberg      Total
 -----------------------------------------------------------------------
      C    1   -0.19214      0.99957     2.18538    0.00719     3.19214
      C    2   -0.09079      0.99954     2.07913    0.01211     3.09079
      C    3   -0.14569      0.99953     2.13421    0.01195     3.14569
      C    4   -0.19475      0.99956     2.18604    0.00914     3.19475
      C    5    0.28546      0.99941     1.69302    0.02212     2.71454
      O    6   -0.29700      0.99987     3.28817    0.00896     4.29700
      C    7   -0.01158      0.99957     1.99852    0.01350     3.01158
      C    8   -0.21737      0.99963     2.20870    0.00904     3.21737
      C    9   -0.01355      0.99956     2.00081    0.01317     3.01355
      O   10   -0.29883      0.99987     3.29050    0.00846     4.29883
      H   11    0.09065      0.00000     0.40797    0.00138     0.40935
      H   12    0.09472      0.00000     0.40405    0.00123     0.40528
      H   13    0.09846      0.00000     0.39990    0.00164     0.40154
      H   14    0.10974      0.00000     0.38808    0.00219     0.39026
      H   15    0.10658      0.00000     0.39205    0.00136     0.39342
      H   16    0.10882      0.00000     0.39003    0.00115     0.39118
      H   17    0.09504      0.00000     0.40274    0.00222     0.40496
      H   18    0.08309      0.00000     0.41442    0.00250     0.41691
      H   19    0.11028      0.00000     0.38481    0.00491     0.38972
      H   20    0.09845      0.00000     0.39997    0.00157     0.40155
      H   21    0.08689      0.00000     0.41106    0.00205     0.41311
      H   22    0.09352      0.00000     0.40476    0.00171     0.40648
 =======================================================================
   * Total *    0.00000      9.99611    27.86432    0.13957    38.00000

 Normal termination of Gaussian 16 at Tue Dec  8 13:50:52 2020.
