 Gaussian 16, Revision A.03,

 -----------------------------------------------------------
 # opt freq B3LYP/6-31G(d) empiricaldispersion=gd3bj scf=xqc
 -----------------------------------------------------------

 ------------------------------
 CID_65286214_JID_8586_neutraal
 ------------------------------
 Symbolic Z-matrix:
 Charge =  0 Multiplicity = 1

 SCF Done:  E(RB3LYP) =  -1219.90964320     A.U. after   14 cycles
 SCF Done:  E(RB3LYP) =  -1219.88679254     A.U. after   13 cycles
 SCF Done:  E(RB3LYP) =  -1219.91749297     A.U. after   12 cycles
 SCF Done:  E(RB3LYP) =  -1219.91832709     A.U. after   12 cycles
 SCF Done:  E(RB3LYP) =  -1219.91601899     A.U. after   13 cycles
 SCF Done:  E(RB3LYP) =  -1219.91946173     A.U. after   12 cycles
 SCF Done:  E(RB3LYP) =  -1219.91983872     A.U. after   12 cycles
 SCF Done:  E(RB3LYP) =  -1219.91991936     A.U. after   12 cycles
 SCF Done:  E(RB3LYP) =  -1219.92007568     A.U. after   12 cycles
 SCF Done:  E(RB3LYP) =  -1219.92013764     A.U. after   11 cycles
 SCF Done:  E(RB3LYP) =  -1219.92018505     A.U. after    7 cycles
 SCF Done:  E(RB3LYP) =  -1219.92018530     A.U. after    7 cycles
 SCF Done:  E(RB3LYP) =  -1219.92018538     A.U. after    7 cycles
 SCF Done:  E(RB3LYP) =  -1219.92018543     A.U. after    7 cycles
 SCF Done:  E(RB3LYP) =  -1219.92018545     A.U. after    6 cycles
 Optimization completed.
    -- Stationary point found.
 Normal termination of Gaussian 16 at Fri Dec 11 21:20:54 2020.

 --------------------------------------------------------------------
 #N Geom=AllCheck Guess=TCheck SCRF=Check GenChk RB3LYP/6-31G(d) Freq
 --------------------------------------------------------------------

 Structure from the checkpoint file:  "JID_8586.chk"
 ------------------------------
 CID_65286214_JID_8586_neutraal
 ------------------------------
 Charge =  0 Multiplicity = 1

 SCF Done:  E(RB3LYP) =  -1219.92018545     A.U. after    1 cycles

  Exact polarizability: 176.413 -12.637 149.499   1.913   3.923 139.083
 Approx polarizability: 236.397 -25.931 220.309   8.467  -0.554 232.868

                      1                      2                      3
                      A                      A                      A
 Frequencies --     24.3495                43.0210                53.0951
 Red. masses --      4.6914                 6.3872                 3.6216
 Frc consts  --      0.0016                 0.0070                 0.0060
 IR Inten    --      1.2460                 2.7940                 1.1613

                      4                      5                      6
                      A                      A                      A
 Frequencies --     75.2594                79.4862                84.9456
 Red. masses --      3.4162                 5.6947                 3.9379
 Frc consts  --      0.0114                 0.0212                 0.0167
 IR Inten    --      0.2889                 0.2191                 0.5078

                      7                      8                      9
                      A                      A                      A
 Frequencies --     95.5031               113.8226               163.9851
 Red. masses --      5.5586                 4.6216                 2.9463
 Frc consts  --      0.0299                 0.0353                 0.0467
 IR Inten    --      1.8488                 0.4136                 0.7906

                     10                     11                     12
                      A                      A                      A
 Frequencies --    178.6249               196.9681               208.9553
 Red. masses --      3.2874                 1.0762                 2.1033
 Frc consts  --      0.0618                 0.0246                 0.0541
 IR Inten    --      3.2794                 1.9335                 0.5035

                     13                     14                     15
                      A                      A                      A
 Frequencies --    239.1070               242.6473               255.4895
 Red. masses --      3.1937                 1.3374                 2.1859
 Frc consts  --      0.1076                 0.0464                 0.0841
 IR Inten    --      2.2214                 1.2155                 2.3197

                     16                     17                     18
                      A                      A                      A
 Frequencies --    261.5671               283.6101               299.4600
 Red. masses --      1.5074                 1.7374                 2.9863
 Frc consts  --      0.0608                 0.0823                 0.1578
 IR Inten    --      3.9657                14.4372                 1.2695

                     19                     20                     21
                      A                      A                      A
 Frequencies --    314.4188               325.7157               346.1858
 Red. masses --      2.1944                 2.6771                 3.5635
 Frc consts  --      0.1278                 0.1673                 0.2516
 IR Inten    --      3.5905                 5.2427                 1.7110

                     22                     23                     24
                      A                      A                      A
 Frequencies --    363.2606               373.4500               406.3769
 Red. masses --      2.2316                 3.0289                 2.1853
 Frc consts  --      0.1735                 0.2489                 0.2126
 IR Inten    --      3.4235                 8.2675                 7.1102

                     25                     26                     27
                      A                      A                      A
 Frequencies --    436.1455               449.0492               463.5325
 Red. masses --      3.6146                 3.3172                 3.1974
 Frc consts  --      0.4051                 0.3941                 0.4048
 IR Inten    --     21.0856                16.1010                 5.3658

                     28                     29                     30
                      A                      A                      A
 Frequencies --    493.1062               503.7991               581.7030
 Red. masses --      2.8606                 5.6481                 2.8825
 Frc consts  --      0.4098                 0.8446                 0.5747
 IR Inten    --     11.7931                41.6037                 0.5346

                     31                     32                     33
                      A                      A                      A
 Frequencies --    625.2071               664.9581               692.5847
 Red. masses --      4.3226                 3.9062                 4.0075
 Frc consts  --      0.9955                 1.0176                 1.1326
 IR Inten    --      2.0286                 4.1944                12.4346

                     34                     35                     36
                      A                      A                      A
 Frequencies --    729.8968               772.6762               784.0180
 Red. masses --      2.2436                 3.2155                 3.1940
 Frc consts  --      0.7042                 1.1311                 1.1567
 IR Inten    --      8.9981                18.8935                 4.8905

                     37                     38                     39
                      A                      A                      A
 Frequencies --    800.1346               820.9606               872.1866
 Red. masses --      4.0826                 3.5018                 2.1135
 Frc consts  --      1.5400                 1.3905                 0.9473
 IR Inten    --      7.6134                 5.5170                14.2411

                     40                     41                     42
                      A                      A                      A
 Frequencies --    895.1755               911.2530               926.2638
 Red. masses --      1.9572                 5.5210                 2.5237
 Frc consts  --      0.9241                 2.7011                 1.2757
 IR Inten    --      8.8304                 3.2891                61.6182

                     43                     44                     45
                      A                      A                      A
 Frequencies --    935.4967               951.2950               978.7546
 Red. masses --      1.8854                 1.2484                 1.5776
 Frc consts  --      0.9722                 0.6656                 0.8904
 IR Inten    --     38.1546                61.3660                 1.5274

                     46                     47                     48
                      A                      A                      A
 Frequencies --    992.8266              1002.6654              1011.2130
 Red. masses --      1.8143                 1.4334                 1.4868
 Frc consts  --      1.0537                 0.8491                 0.8958
 IR Inten    --      0.2570                 3.5205                25.0333

                     49                     50                     51
                      A                      A                      A
 Frequencies --   1016.7792              1035.0120              1045.9072
 Red. masses --      2.2493                 3.3064                 1.9727
 Frc consts  --      1.3701                 2.0869                 1.2715
 IR Inten    --      4.7688                 0.4778                11.0539

                     52                     53                     54
                      A                      A                      A
 Frequencies --   1059.6569              1089.0286              1105.0958
 Red. masses --      2.6744                 1.7611                 1.8298
 Frc consts  --      1.7694                 1.2306                 1.3166
 IR Inten    --      1.7230                11.4867                 2.9492

                     55                     56                     57
                      A                      A                      A
 Frequencies --   1118.9509              1152.8000              1156.3629
 Red. masses --      4.8847                 2.3062                 2.2208
 Frc consts  --      3.6034                 1.8057                 1.7496
 IR Inten    --    170.2833                 6.9460                 0.5877

                     58                     59                     60
                      A                      A                      A
 Frequencies --   1181.0338              1193.8068              1202.7911
 Red. masses --      1.3556                 1.5731                 1.5801
 Frc consts  --      1.1141                 1.3209                 1.3469
 IR Inten    --     42.7115                18.6672                 1.3107

                     61                     62                     63
                      A                      A                      A
 Frequencies --   1239.4716              1256.9477              1279.0107
 Red. masses --      2.3177                 1.5187                 1.4000
 Frc consts  --      2.0979                 1.4137                 1.3494
 IR Inten    --     22.1090                 8.9147                17.0217

                     64                     65                     66
                      A                      A                      A
 Frequencies --   1283.3493              1321.3712              1331.6831
 Red. masses --      1.5962                 1.3546                 5.7816
 Frc consts  --      1.5490                 1.3935                 6.0408
 IR Inten    --     34.7351                 2.9780               139.0639

                     67                     68                     69
                      A                      A                      A
 Frequencies --   1345.8877              1374.7210              1383.5886
 Red. masses --      1.2247                 1.2256                 1.3277
 Frc consts  --      1.3071                 1.3647                 1.4974
 IR Inten    --      5.3998                19.8475                 7.9747

                     70                     71                     72
                      A                      A                      A
 Frequencies --   1391.9176              1400.3045              1409.8934
 Red. masses --      3.0019                 1.3645                 1.3677
 Frc consts  --      3.4267                 1.5764                 1.6018
 IR Inten    --     95.5652                16.1016                 8.8882

                     73                     74                     75
                      A                      A                      A
 Frequencies --   1420.8504              1431.8853              1434.4271
 Red. masses --      1.3622                 2.1196                 1.3181
 Frc consts  --      1.6203                 2.5605                 1.5980
 IR Inten    --      0.7704                17.3269                 7.9596

                     76                     77                     78
                      A                      A                      A
 Frequencies --   1443.3856              1446.8119              1469.5612
 Red. masses --      1.3387                 1.3043                 1.1200
 Frc consts  --      1.6433                 1.6086                 1.4251
 IR Inten    --      4.1024                 8.4710                 9.6479

                     79                     80                     81
                      A                      A                      A
 Frequencies --   1479.9597              1495.1824              1512.2805
 Red. masses --      1.0575                 1.0520                 1.0643
 Frc consts  --      1.3647                 1.3856                 1.4342
 IR Inten    --      6.8335                10.4452                 3.8779

                     82                     83                     84
                      A                      A                      A
 Frequencies --   1519.0809              1521.4859              1526.0591
 Red. masses --      1.0650                 1.0629                 1.0630
 Frc consts  --      1.4480                 1.4498                 1.4586
 IR Inten    --      1.2917                 4.4604                 3.6176

                     85                     86                     87
                      A                      A                      A
 Frequencies --   1531.2052              1536.2266              1540.8520
 Red. masses --      1.0909                 1.0688                 1.0821
 Frc consts  --      1.5070                 1.4861                 1.5137
 IR Inten    --      4.0712                16.2443                 0.3463

                     88                     89                     90
                      A                      A                      A
 Frequencies --   1572.8625              1634.3642              1691.9676
 Red. masses --      7.4610                 8.9592                 1.0891
 Frc consts  --     10.8750                14.0999                 1.8370
 IR Inten    --      5.9518                97.2436                28.2307

                     91                     92                     93
                      A                      A                      A
 Frequencies --   3016.8037              3035.2848              3042.8251
 Red. masses --      1.0723                 1.0379                 1.0657
 Frc consts  --      5.7500                 5.6341                 5.8135
 IR Inten    --     27.1482                17.1942                 9.7321

                     94                     95                     96
                      A                      A                      A
 Frequencies --   3048.4367              3058.3730              3068.4788
 Red. masses --      1.0706                 1.0699                 1.0397
 Frc consts  --      5.8616                 5.8961                 5.7675
 IR Inten    --     37.5581                27.5506                16.0393

                     97                     98                     99
                      A                      A                      A
 Frequencies --   3072.8712              3079.3622              3085.4381
 Red. masses --      1.0988                 1.0854                 1.0294
 Frc consts  --      6.1129                 6.0638                 5.7737
 IR Inten    --     21.8186                17.4922                 3.3258

                    100                    101                    102
                      A                      A                      A
 Frequencies --   3093.6772              3094.4805              3107.0821
 Red. masses --      1.0606                 1.1006                 1.0991
 Frc consts  --      5.9808                 6.2094                 6.2517
 IR Inten    --      9.0802                37.5174                46.7937

                    103                    104                    105
                      A                      A                      A
 Frequencies --   3110.0351              3128.0943              3136.0359
 Red. masses --      1.1010                 1.0901                 1.1030
 Frc consts  --      6.2742                 6.2844                 6.3915
 IR Inten    --     33.2115                17.7291                20.5975

                    106                    107                    108
                      A                      A                      A
 Frequencies --   3150.6820              3163.8788              3186.1866
 Red. masses --      1.1018                 1.1042                 1.1068
 Frc consts  --      6.4439                 6.5123                 6.6201
 IR Inten    --     18.2959                 2.4303                 0.8021

                    109                    110                    111
                      A                      A                      A
 Frequencies --   3201.9069              3439.8047              3524.8910
 Red. masses --      1.1080                 1.0498                 1.0913
 Frc consts  --      6.6931                 7.3188                 7.9890
 IR Inten    --      5.1781                 2.1180                 0.1680

 - Thermochemistry -
 -------------------
 Temperature   298.150 Kelvin.  Pressure   1.00000 Atm.
 Atom     1 has atomic number  6 and mass  12.00000

 Molecular mass:   275.13036 amu.
 Principal axes and moments of inertia in atomic units:
                           1         2         3
     Eigenvalues --  3060.484907545.318078575.51290
           X            0.99998   0.00615  -0.00051
           Y           -0.00612   0.99918   0.03992
           Z            0.00075  -0.03991   0.99920
 This molecule is an asymmetric top.
 Rotational symmetry number  1.
 Warning -- assumption of classical behavior for rotation
           may cause significant error
 Rotational temperatures (Kelvin)      0.02830     0.01148     0.01010
 Rotational constants (GHZ):           0.58969     0.23919     0.21045
 Zero-point vibrational energy     871794.5 (Joules/Mol)
                                  208.36388 (Kcal/Mol)
 Warning -- explicit consideration of  30 degrees of freedom as
           vibrations may cause significant error
 Vibrational temperatures:     35.03    61.90    76.39   108.28   114.36
          (Kelvin)            122.22   137.41   163.77   235.94   257.00
                              283.39   300.64   344.02   349.12   367.59
                              376.34   408.05   430.86   452.38   468.63
                              498.08   522.65   537.31   584.69   627.52
                              646.08   666.92   709.47   724.85   836.94
                              899.53   956.73   996.47  1050.16  1111.71
                             1128.03  1151.22  1181.18  1254.88  1287.96
                             1311.09  1332.69  1345.97  1368.70  1408.21
                             1428.46  1442.61  1454.91  1462.92  1489.15
                             1504.83  1524.61  1566.87  1589.99  1609.92
                             1658.62  1663.75  1699.24  1717.62  1730.55
                             1783.32  1808.47  1840.21  1846.45  1901.16
                             1915.99  1936.43  1977.92  1990.68  2002.66
                             2014.73  2028.52  2044.29  2060.16  2063.82
                             2076.71  2081.64  2114.37  2129.33  2151.23
                             2175.83  2185.62  2189.08  2195.66  2203.06
                             2210.29  2216.94  2263.00  2351.49  2434.36
                             4340.51  4367.10  4377.95  4386.02  4400.32
                             4414.86  4421.18  4430.52  4439.26  4451.11
                             4452.27  4470.40  4474.65  4500.63  4512.06
                             4533.13  4552.12  4584.21  4606.83  4949.11
                             5071.53

 Zero-point correction=                           0.332049 (Hartree/Particle)
 Thermal correction to Energy=                    0.351684
 Thermal correction to Enthalpy=                  0.352629
 Thermal correction to Gibbs Free Energy=         0.283487
 Sum of electronic and zero-point Energies=          -1219.588136
 Sum of electronic and thermal Energies=             -1219.568501
 Sum of electronic and thermal Enthalpies=           -1219.567557
 Sum of electronic and thermal Free Energies=        -1219.636698

                     E (Thermal)             CV                S
                      KCal/Mol        Cal/Mol-Kelvin    Cal/Mol-Kelvin
 Total                  220.685             73.346            145.521
 Electronic               0.000              0.000              0.000
 Translational            0.889              2.981             42.735
 Rotational               0.889              2.981             33.648
 Vibrational            218.908             67.384             69.138
 Vibration     1          0.593              1.985              6.244
 Vibration     2          0.595              1.980              5.115
 Vibration     3          0.596              1.976              4.699
 Vibration     4          0.599              1.966              4.011
 Vibration     5          0.600              1.963              3.904
 Vibration     6          0.601              1.960              3.773
 Vibration     7          0.603              1.952              3.544
 Vibration     8          0.607              1.938              3.203
 Vibration     9          0.623              1.887              2.503
 Vibration    10          0.629              1.869              2.343
 Vibration    11          0.636              1.844              2.161
 Vibration    12          0.642              1.827              2.053
 Vibration    13          0.657              1.781              1.810
 Vibration    14          0.659              1.775              1.783
 Vibration    15          0.666              1.754              1.692
 Vibration    16          0.669              1.743              1.651
 Vibration    17          0.682              1.704              1.512
 Vibration    18          0.692              1.675              1.420
 Vibration    19          0.702              1.646              1.339
 Vibration    20          0.710              1.624              1.281
 Vibration    21          0.724              1.583              1.183
 Vibration    22          0.737              1.548              1.108
 Vibration    23          0.745              1.527              1.066
 Vibration    24          0.771              1.456              0.940
 Vibration    25          0.797              1.391              0.839
 Vibration    26          0.808              1.363              0.799
 Vibration    27          0.821              1.331              0.756
 Vibration    28          0.849              1.265              0.676
 Vibration    29          0.859              1.242              0.649
 Vibration    30          0.938              1.071              0.482

 Optimization completed.
    -- Stationary point found.
 Normal termination of Gaussian 16 at Fri Dec 11 21:39:51 2020.

 ----------------------------------------------------------------------
 # B3LYP/6-311++G(d,p) empiricaldispersion=gd3bj scf=xqc pop=npa geom=c
 heck
 ----------------------------------------------------------------------

 --------------------------------------
 CID_65286214_JID_8586_Energie_neutraal
 --------------------------------------
 Structure from the checkpoint file:  "JID_8586.chk"
 Charge =  0 Multiplicity = 1

 SCF Done:  E(RB3LYP) =  -1220.18407092     A.U. after   16 cycles
 Normal termination of Gaussian 16 at Fri Dec 11 21:47:52 2020.

 ----------------------------------------------------------------------
 # B3LYP/6-311++G(d,p) empiricaldispersion=gd3bj scf=xqc pop=npa geom=c
 heck
 ----------------------------------------------------------------------

 ------------------------------------
 CID_65286214_JID_8586_Energie_kation
 ------------------------------------
 Structure from the checkpoint file:  "JID_8586.chk"
 Charge =  1 Multiplicity = 2

 SCF Done:  E(UB3LYP) =  -1219.84955827     A.U. after   30 cycles
 Normal termination of Gaussian 16 at Fri Dec 11 22:07:53 2020.
 Gaussian 16:  ES64L-G16RevA.03 25-Dec-2016

 ----------------------------------------------------------------------
 # B3LYP/6-311++G(d,p) empiricaldispersion=gd3bj scf=xqc pop=npa geom=c
 heck
 ----------------------------------------------------------------------

 -----------------------------------
 CID_65286214_JID_8586_Energie_anion
 -----------------------------------
 Structure from the checkpoint file:  "JID_8586.chk"
 Charge = -1 Multiplicity = 2

                         Standard orientation:
 ---------------------------------------------------------------------
 Center     Atomic      Atomic             Coordinates (Angstroms)
 Number     Number       Type             X           Y           Z
 ---------------------------------------------------------------------
      1          6           0        1.600949   -2.827204   -1.060049
      2          6           0        1.934185   -2.096373    0.244676
      3          6           0        3.242957   -1.255084    0.166218
      4          6           0        3.412542   -0.315214   -1.041271
      5          6           0        2.363525    0.793106   -1.232772
      6          6           0        2.156203    1.738163   -0.040390
      7          6           0        3.410137    2.565641    0.272347
      8          7           0        0.959545    2.560570   -0.309453
      9          6           0        0.788308   -1.251323    0.700139
     10          7           0       -0.184043   -0.735639    0.004726
     11          6           0       -0.835002    0.055965    0.926644
     12          7           0       -0.326837    0.022744    2.132213
     13          8           0        0.767818   -0.858641    1.988438
     14          6           0       -1.963376    0.952608    0.572551
     15         16           0       -3.375978    0.101869   -0.217567
     16          8           0       -3.620587   -1.153658    0.505640
     17          8           0       -4.433665    1.114567   -0.352583
     18          6           0       -2.762839   -0.303548   -1.865138
     19          1           0        1.358348   -2.122705   -1.859362
     20          1           0        0.740659   -3.489729   -0.927529
     21          1           0        2.457307   -3.430843   -1.377542
     22          1           0        2.098187   -2.838879    1.036000
     23          1           0        3.348395   -0.694622    1.102297
     24          1           0        4.073157   -1.971957    0.147280
     25          1           0        4.409662    0.135558   -0.956249
     26          1           0        3.441614   -0.915900   -1.958635
     27          1           0        2.667461    1.397455   -2.101060
     28          1           0        1.393163    0.357466   -1.481983
     29          1           0        1.913555    1.147080    0.849443
     30          1           0        3.699504    3.172829   -0.595528
     31          1           0        3.230471    3.243029    1.115502
     32          1           0        4.263826    1.930671    0.536638
     33          1           0        0.824069    3.211070    0.464769
     34          1           0        1.138244    3.144045   -1.128659
     35          1           0       -2.386035    1.420375    1.464562
     36          1           0       -1.608029    1.728420   -0.113440
     37          1           0       -2.572354    0.623965   -2.408305
     38          1           0       -1.852627   -0.894829   -1.759154
     39          1           0       -3.557640   -0.874696   -2.350059
 ---------------------------------------------------------------------

 SCF Done:  E(UB3LYP) =  -1220.18211494     A.U. after   33 cycles
 SCF Done:  E(UB3LYP) =  -1220.18211494     a.u. after    1 cycles

 The electronic state is 2-A.
 Alpha  occ. eigenvalues --  -88.95679 -19.10355 -19.02445 -19.02313 -14.25427
 Alpha  occ. eigenvalues --  -14.21285 -14.19999 -10.16023 -10.13973 -10.12372
 Alpha  occ. eigenvalues --  -10.11769 -10.10105 -10.09939 -10.07579 -10.07220
 Alpha  occ. eigenvalues --  -10.07083 -10.06529 -10.06261  -8.02150  -5.98401
 Alpha  occ. eigenvalues --   -5.98306  -5.98269  -1.05380  -1.01708  -0.91381
 Alpha  occ. eigenvalues --   -0.83608  -0.79513  -0.78022  -0.71712  -0.70421
 Alpha  occ. eigenvalues --   -0.67488  -0.66015  -0.63016  -0.59321  -0.56508
 Alpha  occ. eigenvalues --   -0.53552  -0.52275  -0.49529  -0.48537  -0.45545
 Alpha  occ. eigenvalues --   -0.42485  -0.40757  -0.40498  -0.39957  -0.38495
 Alpha  occ. eigenvalues --   -0.38243  -0.37486  -0.35835  -0.35304  -0.34623
 Alpha  occ. eigenvalues --   -0.34243  -0.34193  -0.32787  -0.31979  -0.31714
 Alpha  occ. eigenvalues --   -0.31222  -0.30694  -0.29475  -0.27825  -0.27604
 Alpha  occ. eigenvalues --   -0.25487  -0.25414  -0.24599  -0.23931  -0.23656
 Alpha  occ. eigenvalues --   -0.23387  -0.23001  -0.22676  -0.21893  -0.21423
 Alpha  occ. eigenvalues --   -0.20235  -0.19604  -0.17818  -0.15524   0.03753
 Alpha virt. eigenvalues --    0.05835   0.06280   0.06826   0.07703   0.08265
 Alpha virt. eigenvalues --    0.08835   0.09106   0.09990   0.10164   0.10282
 Alpha virt. eigenvalues --    0.11053   0.11256   0.11700   0.12176   0.12311

  Beta  occ. eigenvalues --  -88.95676 -19.10198 -19.02442 -19.02309 -14.25217
  Beta  occ. eigenvalues --  -14.21322 -14.19971 -10.15814 -10.13913 -10.12373
  Beta  occ. eigenvalues --  -10.11761 -10.10098 -10.09952 -10.07537 -10.07203
  Beta  occ. eigenvalues --  -10.07066 -10.06504 -10.06249  -8.02147  -5.98399
  Beta  occ. eigenvalues --   -5.98303  -5.98263  -1.05105  -1.01698  -0.91373
  Beta  occ. eigenvalues --   -0.83483  -0.79460  -0.77731  -0.71654  -0.70362
  Beta  occ. eigenvalues --   -0.67442  -0.65950  -0.62965  -0.59264  -0.56373
  Beta  occ. eigenvalues --   -0.53437  -0.52125  -0.49446  -0.48443  -0.45464
  Beta  occ. eigenvalues --   -0.42352  -0.40657  -0.40341  -0.39920  -0.38309
  Beta  occ. eigenvalues --   -0.38206  -0.37332  -0.35714  -0.35119  -0.34581
  Beta  occ. eigenvalues --   -0.34210  -0.34150  -0.32753  -0.31916  -0.31647
  Beta  occ. eigenvalues --   -0.31170  -0.30609  -0.29435  -0.27726  -0.27546
  Beta  occ. eigenvalues --   -0.25440  -0.25331  -0.24559  -0.23700  -0.23453
  Beta  occ. eigenvalues --   -0.23324  -0.22918  -0.22411  -0.21846  -0.21402
  Beta  occ. eigenvalues --   -0.20139  -0.19500  -0.16964  -0.15474
  Beta virt. eigenvalues --    0.05973   0.06879   0.06982   0.07793   0.08189
  Beta virt. eigenvalues --    0.08546   0.09316   0.09502   0.10160   0.10350
  Beta virt. eigenvalues --    0.10449   0.11278   0.11353   0.11926   0.12400

 Mulliken charges and spin densities:
               1          2
     1  C   -0.095306  -0.673286
     2  C   -1.294709   1.846803
     3  C    0.312962  -0.810860
     4  C    0.158391  -0.684512
     5  C   -0.241626   0.106119
     6  C   -0.313691   0.094299
     7  C    0.568804  -1.135199
     8  N   -0.312135   0.066095
     9  C    0.450153  -1.216443
    10  N    0.202763  -0.005639
    11  C    0.424637   0.159571
    12  N   -0.203670   0.128625
    13  O    0.216148   0.039527
    14  C   -0.843383  -0.406377
    15  S    0.346744   0.006059
    16  O   -0.166223  -0.007463
    17  O   -0.193488   0.012740
    18  C   -0.494330  -0.140416
    19  H    0.099019   0.073001
    20  H    0.138609   0.009281
    21  H   -0.206819   0.364619
    22  H   -0.071864   0.328519
    23  H    0.095088   0.065782
    24  H   -0.543174   0.743015
    25  H   -0.063497   0.223948
    26  H   -0.003129   0.161617
    27  H   -0.194611   0.352100
    28  H    0.087661   0.110635
    29  H    0.257827  -0.067858
    30  H   -0.096788   0.241963
    31  H   -0.097207   0.223924
    32  H   -0.036405   0.187299
    33  H    0.053320   0.161556
    34  H    0.020277   0.205928
    35  H    0.220877   0.048008
    36  H    0.308596   0.049474
    37  H    0.083411   0.114910
    38  H    0.231823  -0.001953
    39  H    0.194945   0.024589
 Sum of Mulliken charges =  -1.00000   1.00000

 Dipole moment (field-independent basis, Debye):
    X=             -2.6374    Y=              0.5669    Z=             -2.0345  Tot=              3.3788
 Quadrupole moment (field-independent basis, Debye-Ang):
   XX=           -208.8474   YY=           -162.2071   ZZ=           -146.6150
   XY=              7.1525   XZ=              8.8203   YZ=              6.2267

 Summary of Natural Population Analysis:

                                       Natural Population
                Natural  -----------------------------------------------
    Atom  No    Charge         Core      Valence    Rydberg      Total
 -----------------------------------------------------------------------
      C    1   -0.28203      0.99965     2.27611    0.00627     3.28203
      C    2   -0.14331      0.99955     2.13277    0.01099     3.14331
      C    3   -0.17984      0.99960     2.17075    0.00949     3.17984
      C    4   -0.19141      0.99962     2.18282    0.00897     3.19141
      C    5   -0.19844      0.99960     2.18917    0.00968     3.19844
      C    6   -0.02466      0.99960     2.01357    0.01149     3.02466
      C    7   -0.29165      0.99965     2.28643    0.00557     3.29165
      N    8   -0.42101      0.99977     2.91039    0.01084     3.92101
      C    9    0.33122      0.99959     1.64927    0.01993     2.66878
      N   10   -0.29395      0.99965     2.78520    0.00910     3.79395
      C   11    0.16818      0.99963     1.81210    0.02010     2.83182
      N   12   -0.06343      0.99966     2.55219    0.01159     3.56343
      O   13   -0.16090      0.99985     3.15365    0.00740     4.16090
      C   14   -0.30910      0.99950     2.29571    0.01389     3.30910
      S   15    1.02035      4.99934     1.88463    0.09568     6.97965
      O   16   -0.46359      0.99991     3.45834    0.00533     4.46359
      O   17   -0.47225      0.99991     3.46641    0.00593     4.47225
      C   18   -0.39592      0.99961     2.38966    0.00665     3.39592
      H   19    0.10288      0.00000     0.39606    0.00105     0.39712
      H   20    0.10213      0.00000     0.39713    0.00074     0.39787
      H   21    0.10081      0.00000     0.39836    0.00083     0.39919
      H   22    0.11302      0.00000     0.38502    0.00196     0.38698
      H   23    0.09958      0.00000     0.39887    0.00155     0.40042
      H   24    0.10453      0.00000     0.39292    0.00255     0.39547
      H   25    0.09851      0.00000     0.40031    0.00118     0.40149
      H   26    0.09743      0.00000     0.40145    0.00112     0.40257
      H   27    0.09356      0.00000     0.40526    0.00118     0.40644
      H   28    0.11014      0.00000     0.38760    0.00226     0.38986
      H   29    0.09211      0.00000     0.40457    0.00332     0.40789
      H   30    0.09554      0.00000     0.40323    0.00124     0.40446
      H   31    0.09716      0.00000     0.40190    0.00094     0.40284
      H   32    0.10076      0.00000     0.39833    0.00091     0.39924
      H   33    0.17313      0.00000     0.32528    0.00159     0.32687
      H   34    0.17073      0.00000     0.32739    0.00189     0.32927
      H   35    0.12690      0.00000     0.37196    0.00113     0.37310
      H   36    0.13436      0.00000     0.36405    0.00159     0.36564
      H   37    0.11374      0.00000     0.38499    0.00127     0.38626
      H   38    0.13127      0.00000     0.36753    0.00120     0.36873
      H   39    0.11346      0.00000     0.38537    0.00117     0.38654
 =======================================================================
   * Total *   -0.00000     21.99368    51.70676    0.29956    74.00000

 Normal termination of Gaussian 16 at Fri Dec 11 22:29:49 2020.
