 Gaussian 16, Revision A.03,

 -----------------------------------------------------------
 # opt freq B3LYP/6-31G(d) empiricaldispersion=gd3bj scf=xqc
 -----------------------------------------------------------

 -------------------------------
 CID_145712059_JID_7512_neutraal
 -------------------------------
 Symbolic Z-matrix:
 Charge =  0 Multiplicity = 1

 SCF Done:  E(RB3LYP) =  -1166.01536660     A.U. after   15 cycles
 SCF Done:  E(RB3LYP) =  -1166.02238295     A.U. after   12 cycles
 SCF Done:  E(RB3LYP) =  -1166.02192962     A.U. after   13 cycles
 SCF Done:  E(RB3LYP) =  -1166.02216613     A.U. after   13 cycles
 SCF Done:  E(RB3LYP) =  -1166.02321050     A.U. after    9 cycles
 SCF Done:  E(RB3LYP) =  -1166.02351084     A.U. after   12 cycles
 SCF Done:  E(RB3LYP) =  -1166.02361205     A.U. after   12 cycles
 SCF Done:  E(RB3LYP) =  -1166.02362908     A.U. after   12 cycles
 SCF Done:  E(RB3LYP) =  -1166.02368818     A.U. after   10 cycles
 SCF Done:  E(RB3LYP) =  -1166.02377524     A.U. after   12 cycles
 SCF Done:  E(RB3LYP) =  -1166.02476843     A.U. after   10 cycles
 SCF Done:  E(RB3LYP) =  -1166.02477170     A.U. after    9 cycles
 SCF Done:  E(RB3LYP) =  -1166.02477218     A.U. after    8 cycles
 SCF Done:  E(RB3LYP) =  -1166.02477230     A.U. after    7 cycles
 SCF Done:  E(RB3LYP) =  -1166.02477233     A.U. after    6 cycles
 Optimization completed.
    -- Stationary point found.
 Normal termination of Gaussian 16 at Thu Dec 17 20:22:19 2020.

 --------------------------------------------------------------------
 #N Geom=AllCheck Guess=TCheck SCRF=Check GenChk RB3LYP/6-31G(d) Freq
 --------------------------------------------------------------------

 Structure from the checkpoint file:  "JID_7512.chk"
 -------------------------------
 CID_145712059_JID_7512_neutraal
 -------------------------------
 Charge =  0 Multiplicity = 1

 SCF Done:  E(RB3LYP) =  -1166.02477233     A.U. after    1 cycles

  Exact polarizability: 184.343  -2.503 147.474 -15.454   0.860 113.438
 Approx polarizability: 256.297  -3.854 252.368 -35.969  -1.573 183.456

                      1                      2                      3
                      A                      A                      A
 Frequencies --     25.4784                44.4732                49.2991
 Red. masses --      4.5976                 5.6520                 4.2150
 Frc consts  --      0.0018                 0.0066                 0.0060
 IR Inten    --      1.1453                 1.0828                 1.7241

                      4                      5                      6
                      A                      A                      A
 Frequencies --     69.4124               101.3309               124.7016
 Red. masses --      4.2586                 4.7848                 1.9262
 Frc consts  --      0.0121                 0.0289                 0.0176
 IR Inten    --      0.1366                 2.2980                 1.2254

                      7                      8                      9
                      A                      A                      A
 Frequencies --    148.6626               170.1172               193.3771
 Red. masses --      1.6848                 3.9229                 4.0492
 Frc consts  --      0.0219                 0.0669                 0.0892
 IR Inten    --      0.1979                 2.3707                 2.1624

                     10                     11                     12
                      A                      A                      A
 Frequencies --    216.3420               225.5938               240.9577
 Red. masses --      3.8865                 2.2686                 1.4410
 Frc consts  --      0.1072                 0.0680                 0.0493
 IR Inten    --      1.2550                 2.3849                 0.4186

                     13                     14                     15
                      A                      A                      A
 Frequencies --    250.1143               264.1287               280.2152
 Red. masses --      3.4313                 2.2447                 2.4167
 Frc consts  --      0.1265                 0.0923                 0.1118
 IR Inten    --      0.0115                 0.6223                 1.5173

                     16                     17                     18
                      A                      A                      A
 Frequencies --    299.5120               322.9718               338.8673
 Red. masses --      2.5615                 4.4327                 2.8263
 Frc consts  --      0.1354                 0.2724                 0.1912
 IR Inten    --      6.8812                 8.8078                 3.5080

                     19                     20                     21
                      A                      A                      A
 Frequencies --    347.5628               358.1351               418.0311
 Red. masses --      2.6092                 4.1141                 2.9852
 Frc consts  --      0.1857                 0.3109                 0.3074
 IR Inten    --     13.8754                 9.9357                 0.1346

                     22                     23                     24
                      A                      A                      A
 Frequencies --    438.9944               445.3666               498.6006
 Red. masses --      4.0484                 3.5010                 4.7036
 Frc consts  --      0.4597                 0.4091                 0.6889
 IR Inten    --     12.7088                 9.3556                38.9224

                     25                     26                     27
                      A                      A                      A
 Frequencies --    522.4976               565.9871               605.7437
 Red. masses --      7.7504                 4.4560                 5.2970
 Frc consts  --      1.2466                 0.8410                 1.1451
 IR Inten    --     27.3314                28.4304                 6.1395

                     28                     29                     30
                      A                      A                      A
 Frequencies --    636.3324               662.0639               711.0410
 Red. masses --      6.2526                 3.5390                 2.6074
 Frc consts  --      1.4917                 0.9140                 0.7767
 IR Inten    --      0.2342                 1.0353                44.4753

                     31                     32                     33
                      A                      A                      A
 Frequencies --    719.8039               777.1034               790.8499
 Red. masses --      2.5398                 3.4491                 2.6996
 Frc consts  --      0.7753                 1.2272                 0.9948
 IR Inten    --      2.9274                 2.8335                43.1458

                     34                     35                     36
                      A                      A                      A
 Frequencies --    840.6715               844.6873               861.7512
 Red. masses --      4.2071                 4.3024                 1.2582
 Frc consts  --      1.7518                 1.8087                 0.5505
 IR Inten    --      0.3887                11.2203                 0.1925

                     37                     38                     39
                      A                      A                      A
 Frequencies --    903.8790               939.1711               954.7381
 Red. masses --      1.7411                 1.5102                 2.7852
 Frc consts  --      0.8381                 0.7848                 1.4958
 IR Inten    --     20.8440                26.1059                11.3181

                     40                     41                     42
                      A                      A                      A
 Frequencies --    972.7434               980.2661               999.1542
 Red. masses --      1.3589                 1.4454                 1.2661
 Frc consts  --      0.7576                 0.8184                 0.7447
 IR Inten    --      0.3227                 1.7388                 1.2960

                     43                     44                     45
                      A                      A                      A
 Frequencies --   1022.6129              1023.3343              1046.6637
 Red. masses --      3.7108                 5.8879                 1.3629
 Frc consts  --      2.2863                 3.6328                 0.8797
 IR Inten    --      9.7975                 0.9990                 7.2023

                     46                     47                     48
                      A                      A                      A
 Frequencies --   1062.6964              1093.7982              1115.3944
 Red. masses --      2.2169                 8.0872                 1.6140
 Frc consts  --      1.4751                 5.7006                 1.1831
 IR Inten    --      3.1353               135.3202                19.2606

                     49                     50                     51
                      A                      A                      A
 Frequencies --   1172.9405              1185.2732              1195.6138
 Red. masses --      1.6398                 1.2859                 1.1059
 Frc consts  --      1.3292                 1.0644                 0.9315
 IR Inten    --     49.9212                 6.8969                 0.3336

                     52                     53                     54
                      A                      A                      A
 Frequencies --   1198.3708              1203.2365              1211.2563
 Red. masses --      1.4950                 2.0140                 2.3748
 Frc consts  --      1.2649                 1.7180                 2.0528
 IR Inten    --     10.3561                69.0384                 3.2469

                     55                     56                     57
                      A                      A                      A
 Frequencies --   1220.7962              1237.4223              1241.2649
 Red. masses --      1.1511                 2.1181                 2.3810
 Frc consts  --      1.0108                 1.9109                 2.1615
 IR Inten    --      1.9365                80.7946                25.7320

                     58                     59                     60
                      A                      A                      A
 Frequencies --   1281.3272              1317.3936              1326.9003
 Red. masses --      3.5019                 2.4345                 3.9310
 Frc consts  --      3.3875                 2.4894                 4.0778
 IR Inten    --     94.1508                20.1868               324.7528

                     61                     62                     63
                      A                      A                      A
 Frequencies --   1364.7310              1376.8098              1426.4933
 Red. masses --      4.8767                 1.2945                 1.2076
 Frc consts  --      5.3514                 1.4458                 1.4479
 IR Inten    --      0.6755                 0.5934                 5.7522

                     64                     65                     66
                      A                      A                      A
 Frequencies --   1449.0457              1475.4162              1491.6164
 Red. masses --      1.2065                 1.1470                 1.2138
 Frc consts  --      1.4926                 1.4711                 1.5911
 IR Inten    --      7.0393                11.2322                 7.4573

                     67                     68                     69
                      A                      A                      A
 Frequencies --   1506.7362              1510.0641              1512.8430
 Red. masses --      1.9824                 1.0852                 1.0476
 Frc consts  --      2.6517                 1.4580                 1.4126
 IR Inten    --      8.2304                 4.2490                 7.8807

                     70                     71                     72
                      A                      A                      A
 Frequencies --   1520.3828              1521.2086              1531.2587
 Red. masses --      1.0489                 1.0485                 1.0559
 Frc consts  --      1.4286                 1.4296                 1.4587
 IR Inten    --      6.0676                12.1968                10.9977

                     73                     74                     75
                      A                      A                      A
 Frequencies --   1542.6624              1550.0790              1646.8531
 Red. masses --      1.0720                 2.1343                 5.5197
 Frc consts  --      1.5030                 3.0214                 8.8201
 IR Inten    --     28.8747                14.9180                 0.6591

                     76                     77                     78
                      A                      A                      A
 Frequencies --   1667.4482              1792.3392              3067.8157
 Red. masses --      5.4484                11.1742                 1.0438
 Frc consts  --      8.9253                21.1498                 5.7880
 IR Inten    --      2.0820               182.0373                16.1960

                     79                     80                     81
                      A                      A                      A
 Frequencies --   3081.7410              3082.7545              3083.8217
 Red. masses --      1.0354                 1.0295                 1.0677
 Frc consts  --      5.7938                 5.7645                 5.9822
 IR Inten    --     16.1413                27.2640                 3.2770

                     82                     83                     84
                      A                      A                      A
 Frequencies --   3143.0879              3153.4728              3161.0586
 Red. masses --      1.0956                 1.1026                 1.1079
 Frc consts  --      6.3770                 6.4602                 6.5227
 IR Inten    --      3.3086                 8.8205                14.9851

                     85                     86                     87
                      A                      A                      A
 Frequencies --   3179.1481              3184.7449              3185.8492
 Red. masses --      1.1031                 1.0967                 1.0859
 Frc consts  --      6.5690                 6.5538                 6.4938
 IR Inten    --      4.0107                 0.2735                 0.1076

                     88                     89                     90
                      A                      A                      A
 Frequencies --   3194.1935              3196.2569              3197.3701
 Red. masses --      1.1076                 1.0892                 1.1001
 Frc consts  --      6.6580                 6.5563                 6.6260
 IR Inten    --     14.2440                12.4824                 2.8057

                     91                     92                     93
                      A                      A                      A
 Frequencies --   3207.1671              3216.3571              3222.3257
 Red. masses --      1.0932                 1.0946                 1.0948
 Frc consts  --      6.6250                 6.6714                 6.6979
 IR Inten    --     27.5185                 9.4210                 4.0178

 - Thermochemistry -
 -------------------
 Temperature   298.150 Kelvin.  Pressure   1.00000 Atm.
 Atom     1 has atomic number  6 and mass  12.00000

 Molecular mass:   256.07693 amu.
 Principal axes and moments of inertia in atomic units:
                           1         2         3
     Eigenvalues --  2453.315375806.005236777.54465
           X            0.99997   0.00832  -0.00014
           Y           -0.00832   0.99963  -0.02603
           Z           -0.00007   0.02603   0.99966
 This molecule is an asymmetric top.
 Rotational symmetry number  1.
 Warning -- assumption of classical behavior for rotation
           may cause significant error
 Rotational temperatures (Kelvin)      0.03530     0.01492     0.01278
 Rotational constants (GHZ):           0.73563     0.31084     0.26628
 Zero-point vibrational energy     704362.3 (Joules/Mol)
                                  168.34663 (Kcal/Mol)
 Warning -- explicit consideration of  27 degrees of freedom as
           vibrations may cause significant error
 Vibrational temperatures:     36.66    63.99    70.93    99.87   145.79
          (Kelvin)            179.42   213.89   244.76   278.23   311.27
                              324.58   346.68   359.86   380.02   403.17
                              430.93   464.68   487.55   500.07   515.28
                              601.45   631.62   640.78   717.38   751.76
                              814.33   871.53   915.54   952.56  1023.03
                             1035.64  1118.08  1137.86  1209.54  1215.32
                             1239.87  1300.48  1351.26  1373.66  1399.56
                             1410.38  1437.56  1471.31  1472.35  1505.92
                             1528.98  1573.73  1604.80  1687.60  1705.34
                             1720.22  1724.19  1731.19  1742.73  1756.45
                             1780.37  1785.90  1843.54  1895.44  1909.11
                             1963.54  1980.92  2052.41  2084.85  2122.79
                             2146.10  2167.86  2172.65  2176.64  2187.49
                             2188.68  2203.14  2219.55  2230.22  2369.45
                             2399.09  2578.78  4413.90  4433.94  4435.40
                             4436.93  4522.20  4537.14  4548.06  4574.09
                             4582.14  4583.73  4595.73  4598.70  4600.30
                             4614.40  4627.62  4636.21

 Zero-point correction=                           0.268277 (Hartree/Particle)
 Thermal correction to Energy=                    0.285727
 Thermal correction to Enthalpy=                  0.286672
 Thermal correction to Gibbs Free Energy=         0.222498
 Sum of electronic and zero-point Energies=          -1165.756495
 Sum of electronic and thermal Energies=             -1165.739045
 Sum of electronic and thermal Enthalpies=           -1165.738101
 Sum of electronic and thermal Free Energies=        -1165.802275

                     E (Thermal)             CV                S
                      KCal/Mol        Cal/Mol-Kelvin    Cal/Mol-Kelvin
 Total                  179.297             65.268            135.065
 Electronic               0.000              0.000              0.000
 Translational            0.889              2.981             42.521
 Rotational               0.889              2.981             32.934
 Vibrational            177.519             59.306             59.610
 Vibration     1          0.593              1.985              6.154
 Vibration     2          0.595              1.980              5.049
 Vibration     3          0.595              1.978              4.845
 Vibration     4          0.598              1.969              4.170
 Vibration     5          0.604              1.948              3.429
 Vibration     6          0.610              1.928              3.026
 Vibration     7          0.618              1.904              2.689
 Vibration     8          0.625              1.879              2.434
 Vibration     9          0.635              1.849              2.195
 Vibration    10          0.645              1.816              1.989
 Vibration    11          0.650              1.802              1.914
 Vibration    12          0.658              1.778              1.796
 Vibration    13          0.663              1.763              1.730
 Vibration    14          0.671              1.739              1.634
 Vibration    15          0.680              1.710              1.532
 Vibration    16          0.692              1.675              1.420
 Vibration    17          0.708              1.629              1.295
 Vibration    18          0.719              1.598              1.217
 Vibration    19          0.725              1.580              1.177
 Vibration    20          0.733              1.559              1.130
 Vibration    21          0.781              1.431              0.899
 Vibration    22          0.799              1.385              0.830
 Vibration    23          0.805              1.371              0.810
 Vibration    24          0.854              1.253              0.662
 Vibration    25          0.877              1.200              0.604
 Vibration    26          0.922              1.105              0.512
 Vibration    27          0.964              1.020              0.440

                           ! Non-Optimized Parameters !
 Normal termination of Gaussian 16 at Thu Dec 17 20:34:46 2020.

 ----------------------------------------------------------------------
 # B3LYP/6-311++G(d,p) empiricaldispersion=gd3bj scf=xqc pop=npa geom=c
 heck
 ----------------------------------------------------------------------

 ---------------------------------------
 CID_145712059_JID_7512_Energie_neutraal
 ---------------------------------------
 Structure from the checkpoint file:  "JID_7512.chk"
 Charge =  0 Multiplicity = 1

 SCF Done:  E(RB3LYP) =  -1166.26979763     A.U. after   16 cycles
 Normal termination of Gaussian 16 at Thu Dec 17 20:40:18 2020.

 ----------------------------------------------------------------------
 # B3LYP/6-311++G(d,p) empiricaldispersion=gd3bj scf=xqc pop=npa geom=c
 heck
 ----------------------------------------------------------------------

 -------------------------------------
 CID_145712059_JID_7512_Energie_kation
 -------------------------------------
 Structure from the checkpoint file:  "JID_7512.chk"
 Charge =  1 Multiplicity = 2

 SCF Done:  E(UB3LYP) =  -1165.94972723     A.U. after   25 cycles
 Normal termination of Gaussian 16 at Thu Dec 17 20:51:43 2020.
 Gaussian 16:  ES64L-G16RevA.03 25-Dec-2016

 ----------------------------------------------------------------------
 # B3LYP/6-311++G(d,p) empiricaldispersion=gd3bj scf=xqc pop=npa geom=c
 heck
 ----------------------------------------------------------------------

 ------------------------------------
 CID_145712059_JID_7512_Energie_anion
 ------------------------------------
 Structure from the checkpoint file:  "JID_7512.chk"
 Charge = -1 Multiplicity = 2

                         Standard orientation:
 ---------------------------------------------------------------------
 Center     Atomic      Atomic             Coordinates (Angstroms)
 Number     Number       Type             X           Y           Z
 ---------------------------------------------------------------------
      1          6           0        2.271173   -1.187475    1.582796
      2          6           0        1.263884   -0.275032    0.873984
      3          6           0        0.176115    0.210969    1.838146
      4          6           0        1.897186    0.905868    0.143242
      5          8           0        1.256349    1.745343   -0.460756
      6          8           0        3.231393    0.921626    0.239277
      7          6           0        3.888508    1.985912   -0.473008
      8         16           0        0.520472   -1.367679   -0.461995
      9          8           0        1.626407   -1.698188   -1.380277
     10          8           0       -0.213477   -2.438855    0.236957
     11          6           0       -0.681960   -0.406425   -1.466265
     12          6           0       -1.905931    0.082137   -0.750576
     13          6           0       -2.109465    1.457251   -0.581526
     14          6           0       -3.243530    1.925421    0.081149
     15          6           0       -4.181223    1.023023    0.585373
     16          6           0       -3.982348   -0.349003    0.419538
     17          6           0       -2.853109   -0.819031   -0.248466
     18          1           0        2.783303   -0.615734    2.361616
     19          1           0        3.016117   -1.576349    0.887642
     20          1           0        1.740844   -2.023148    2.045685
     21          1           0        0.659065    0.665832    2.710367
     22          1           0       -0.479871    0.947816    1.377441
     23          1           0       -0.422158   -0.638261    2.176874
     24          1           0        3.674727    1.907743   -1.541459
     25          1           0        3.546335    2.956582   -0.106456
     26          1           0        4.951845    1.849185   -0.279666
     27          1           0       -0.107327    0.402614   -1.914889
     28          1           0       -0.915018   -1.147926   -2.238627
     29          1           0       -1.362684    2.153177   -0.950681
     30          1           0       -3.392186    2.994235    0.206256
     31          1           0       -5.063924    1.386810    1.103709
     32          1           0       -4.709083   -1.055630    0.810040
     33          1           0       -2.688699   -1.885175   -0.363874
 ---------------------------------------------------------------------

 SCF Done:  E(UB3LYP) =  -1166.26060115     A.U. after   33 cycles
 SCF Done:  E(UB3LYP) =  -1166.26060115     a.u. after    2 cycles

 The electronic state is 2-A.
 Alpha  occ. eigenvalues --  -88.92708 -19.06639 -19.00700 -19.00586 -19.00147
 Alpha  occ. eigenvalues --  -10.19029 -10.12562 -10.12265 -10.10516 -10.08041
 Alpha  occ. eigenvalues --  -10.07430 -10.07158 -10.07123 -10.07066 -10.06876
 Alpha  occ. eigenvalues --  -10.06829 -10.06822  -7.99375  -5.95614  -5.95479
 Alpha  occ. eigenvalues --   -5.95451  -1.00871  -0.99553  -0.91620  -0.89462
 Alpha  occ. eigenvalues --   -0.76031  -0.73065  -0.69083  -0.64560  -0.63166
 Alpha  occ. eigenvalues --   -0.61916  -0.59878  -0.55515  -0.51028  -0.50719
 Alpha  occ. eigenvalues --   -0.48822  -0.45239  -0.42698  -0.40876  -0.39514
 Alpha  occ. eigenvalues --   -0.38137  -0.37574  -0.37332  -0.36685  -0.35836
 Alpha  occ. eigenvalues --   -0.34378  -0.33574  -0.32389  -0.32067  -0.31742
 Alpha  occ. eigenvalues --   -0.31002  -0.29843  -0.29559  -0.29282  -0.27924
 Alpha  occ. eigenvalues --   -0.27031  -0.25900  -0.25375  -0.25029  -0.24316
 Alpha  occ. eigenvalues --   -0.22190  -0.21463  -0.20904  -0.20016  -0.18690
 Alpha  occ. eigenvalues --   -0.17595  -0.15527  -0.14668   0.04559
 Alpha virt. eigenvalues --    0.06200   0.06653   0.07390   0.08172   0.08196
 Alpha virt. eigenvalues --    0.08554   0.09116   0.09356   0.10280   0.10730
 Alpha virt. eigenvalues --    0.10950   0.11332   0.12261   0.12675   0.13248

  Beta  occ. eigenvalues --  -88.92662 -19.06585 -19.00661 -19.00574 -18.99992
  Beta  occ. eigenvalues --  -10.18864 -10.12529 -10.12229 -10.10482 -10.07945
  Beta  occ. eigenvalues --  -10.07453 -10.07153 -10.07106 -10.07048 -10.06798
  Beta  occ. eigenvalues --  -10.06765 -10.06749  -7.99317  -5.95575  -5.95415
  Beta  occ. eigenvalues --   -5.95410  -1.00689  -0.99455  -0.91389  -0.89381
  Beta  occ. eigenvalues --   -0.75884  -0.72923  -0.68909  -0.64456  -0.63044
  Beta  occ. eigenvalues --   -0.61738  -0.59833  -0.55347  -0.50797  -0.50636
  Beta  occ. eigenvalues --   -0.48624  -0.45135  -0.42596  -0.40776  -0.39311
  Beta  occ. eigenvalues --   -0.37992  -0.37416  -0.37185  -0.36579  -0.35742
  Beta  occ. eigenvalues --   -0.34303  -0.33503  -0.32349  -0.31993  -0.31647
  Beta  occ. eigenvalues --   -0.30945  -0.29725  -0.29340  -0.29108  -0.27754
  Beta  occ. eigenvalues --   -0.26822  -0.25753  -0.25287  -0.24913  -0.24252
  Beta  occ. eigenvalues --   -0.22075  -0.21445  -0.20449  -0.19926  -0.18488
  Beta  occ. eigenvalues --   -0.17440  -0.15258  -0.14158
  Beta virt. eigenvalues --    0.06682   0.07156   0.07732   0.08198   0.08322
  Beta virt. eigenvalues --    0.08402   0.08731   0.09642   0.09691   0.10475
  Beta virt. eigenvalues --    0.10862   0.11212   0.11577   0.12293   0.12646

 Mulliken charges and spin densities:
               1          2
     1  C   -0.125403  -0.308402
     2  C    0.438047  -0.251593
     3  C   -0.144309  -0.409020
     4  C   -1.468172   0.844013
     5  O   -0.235141   0.052387
     6  O   -0.022209   0.047216
     7  C    0.810695  -1.035155
     8  S    0.694018  -0.343056
     9  O   -0.080583   0.013296
    10  O   -0.142277   0.010304
    11  C   -0.591259  -0.555709
    12  C    0.869910   0.236209
    13  C   -0.554722   0.197370
    14  C   -0.315966  -0.021610
    15  C    0.464537  -0.681373
    16  C   -0.213171  -0.085647
    17  C   -0.628374   0.467061
    18  H    0.091920   0.096047
    19  H    0.146521   0.058714
    20  H    0.191131  -0.010199
    21  H   -0.037975   0.189955
    22  H    0.201026   0.040287
    23  H    0.113503   0.064333
    24  H   -0.031948   0.197780
    25  H   -0.400112   0.581871
    26  H   -0.470982   0.614635
    27  H    0.214722   0.117775
    28  H    0.253625  -0.007253
    29  H    0.156188   0.044613
    30  H   -0.131117   0.292591
    31  H   -0.158731   0.289990
    32  H   -0.052668   0.211581
    33  H    0.159276   0.040987
 Sum of Mulliken charges =  -1.00000   1.00000

 Dipole moment (field-independent basis, Debye):
    X=             -2.3420    Y=             -2.1243    Z=              0.1054  Tot=              3.1637
 Quadrupole moment (field-independent basis, Debye-Ang):
   XX=           -183.3613   YY=           -153.5263   ZZ=           -128.3770
   XY=             -6.2498   XZ=              6.1365   YZ=             -2.3201

 Summary of Natural Population Analysis:

                                       Natural Population
                Natural  -----------------------------------------------
    Atom  No    Charge         Core      Valence    Rydberg      Total
 -----------------------------------------------------------------------
      C    1   -0.29816      0.99962     2.29092    0.00762     3.29816
      C    2   -0.14371      0.99952     2.12640    0.01779     3.14371
      C    3   -0.29537      0.99961     2.28713    0.00863     3.29537
      C    4    0.42395      0.99958     1.54867    0.02779     2.57605
      O    5   -0.30527      0.99987     3.29953    0.00586     4.30527
      O    6   -0.27105      0.99986     3.26137    0.00982     4.27105
      C    7   -0.10270      0.99959     2.09416    0.00895     3.10270
      S    8    1.03073      4.99920     1.87999    0.09009     6.96927
      O    9   -0.47450      0.99991     3.46883    0.00576     4.47450
      O   10   -0.47117      0.99991     3.46552    0.00573     4.47117
      C   11   -0.28326      0.99953     2.27182    0.01190     3.28326
      C   12   -0.02868      0.99950     2.01805    0.01113     3.02868
      C   13   -0.09810      0.99952     2.08883    0.00975     3.09810
      C   14   -0.10118      0.99957     2.09137    0.01025     3.10118
      C   15   -0.08369      0.99957     2.07376    0.01037     3.08369
      C   16   -0.10835      0.99957     2.09927    0.00952     3.10835
      C   17   -0.08280      0.99951     2.07444    0.00884     3.08280
      H   18    0.10710      0.00000     0.39175    0.00115     0.39290
      H   19    0.11574      0.00000     0.38296    0.00131     0.38426
      H   20    0.10755      0.00000     0.39138    0.00107     0.39245
      H   21    0.10227      0.00000     0.39678    0.00095     0.39773
      H   22    0.11722      0.00000     0.38132    0.00146     0.38278
      H   23    0.11238      0.00000     0.38652    0.00110     0.38762
      H   24    0.09096      0.00000     0.40801    0.00103     0.40904
      H   25    0.09437      0.00000     0.40315    0.00248     0.40563
      H   26    0.09181      0.00000     0.40666    0.00153     0.40819
      H   27    0.12795      0.00000     0.37076    0.00130     0.37205
      H   28    0.11674      0.00000     0.38201    0.00125     0.38326
      H   29    0.10953      0.00000     0.38930    0.00117     0.39047
      H   30    0.09861      0.00000     0.40062    0.00078     0.40139
      H   31    0.09659      0.00000     0.40255    0.00087     0.40341
      H   32    0.09782      0.00000     0.40138    0.00080     0.40218
      H   33    0.10669      0.00000     0.39211    0.00120     0.39331
 =======================================================================
   * Total *    0.00000     20.99343    46.72731    0.27926    68.00000

 Normal termination of Gaussian 16 at Thu Dec 17 21:22:57 2020.
