 Gaussian 16, Revision A.03,

 -----------------------------------------------------------
 # opt freq B3LYP/6-31G(d) empiricaldispersion=gd3bj scf=xqc
 -----------------------------------------------------------

 -------------------------------
 CID_135208591_JID_2153_neutraal
 -------------------------------
 Symbolic Z-matrix:
 Charge =  0 Multiplicity = 1

 SCF Done:  E(RB3LYP) =  -611.790631791     A.U. after   15 cycles
 SCF Done:  E(RB3LYP) =  -611.792948521     A.U. after   13 cycles
 SCF Done:  E(RB3LYP) =  -611.792774971     A.U. after   12 cycles
 SCF Done:  E(RB3LYP) =  -611.793486364     A.U. after   12 cycles
 SCF Done:  E(RB3LYP) =  -611.793595235     A.U. after   12 cycles
 SCF Done:  E(RB3LYP) =  -611.793564170     A.U. after   12 cycles
 SCF Done:  E(RB3LYP) =  -611.793657071     A.U. after   11 cycles
 SCF Done:  E(RB3LYP) =  -611.793664883     A.U. after   10 cycles
 SCF Done:  E(RB3LYP) =  -611.793667170     A.U. after    9 cycles
 SCF Done:  E(RB3LYP) =  -611.793668254     A.U. after    9 cycles
 SCF Done:  E(RB3LYP) =  -611.793668500     A.U. after    8 cycles
 Optimization completed.
    -- Stationary point found.

 1\1\GINC-NODE217\FOpt\RB3LYP\6-31G(d)\C8H10O4\VSC10255\09-Dec-2020\0\\
 # opt freq B3LYP/6-31G(d) empiricaldispersion=gd3bj scf=xqc\\CID_13520
 8591_JID_2153_neutraal\\0,1\C,0.90793905,-0.009675052,-0.038850901\C,0
 .6576035652,-1.4625454806,-0.4436963917\C,1.8350423591,-2.0371385762,-
 1.2480527946\C,1.7323130924,-3.524597971,-1.4673489908\C,0.9147944814,
 -4.3205558311,-0.7487025485\C,0.0459129084,-3.780718927,0.326663245\O,
 -0.8314463862,-4.4576176525,0.8347442638\C,0.3637649901,-2.3511661269,
 0.7748528445\O,1.4493355765,-2.3838685889,1.7067937643\C,2.6049096666,

 Normal termination of Gaussian 16 at Wed Dec  9 16:49:26 2020.

 --------------------------------------------------------------------
 #N Geom=AllCheck Guess=TCheck SCRF=Check GenChk RB3LYP/6-31G(d) Freq
 --------------------------------------------------------------------

 Structure from the checkpoint file:  "JID_2153.chk"
 -------------------------------
 CID_135208591_JID_2153_neutraal
 -------------------------------
 Charge =  0 Multiplicity = 1

 SCF Done:  E(RB3LYP) =  -611.793668500     A.U. after    1 cycles

  Exact polarizability: 109.379   9.376 106.590  -3.917  -3.380  60.914
 Approx polarizability: 147.615  36.472 186.481  -6.620 -11.913  96.907

                      1                      2                      3
                      A                      A                      A
 Frequencies --     45.0616                67.3915               116.9344
 Red. masses --     11.4230                 4.7939                 5.2787
 Frc consts  --      0.0137                 0.0128                 0.0425
 IR Inten    --      2.0329                 0.4872                 2.7692

                      4                      5                      6
                      A                      A                      A
 Frequencies --    149.9355               172.3461               215.3198
 Red. masses --      2.9227                 5.6485                 1.5585
 Frc consts  --      0.0387                 0.0989                 0.0426
 IR Inten    --      2.4999                 3.9522                 1.4878

                      7                      8                      9
                      A                      A                      A
 Frequencies --    238.7324               257.8067               283.0311
 Red. masses --      1.7275                 3.3777                 1.2002
 Frc consts  --      0.0580                 0.1323                 0.0566
 IR Inten    --      4.3490                10.5195                73.8836

                     10                     11                     12
                      A                      A                      A
 Frequencies --    294.5899               374.4327               387.8667
 Red. masses --      5.1016                 4.2971                 3.6918
 Frc consts  --      0.2609                 0.3550                 0.3272
 IR Inten    --      7.4235                14.6917                 4.9370

                     13                     14                     15
                      A                      A                      A
 Frequencies --    404.3395               464.2286               494.6942
 Red. masses --      4.0321                 4.9466                 5.5843
 Frc consts  --      0.3884                 0.6281                 0.8052
 IR Inten    --      6.3196                12.4593                 2.0434

                     16                     17                     18
                      A                      A                      A
 Frequencies --    560.5663               607.2273               630.7724
 Red. masses --      4.3521                 1.3816                 2.3649
 Frc consts  --      0.8058                 0.3001                 0.5544
 IR Inten    --      4.9559                49.9572                41.5765

                     19                     20                     21
                      A                      A                      A
 Frequencies --    665.8556               702.1676               785.0657
 Red. masses --      3.5946                 2.9152                 6.8799
 Frc consts  --      0.9390                 0.8468                 2.4983
 IR Inten    --     50.2911                23.9731                31.9178

                     22                     23                     24
                      A                      A                      A
 Frequencies --    848.6901               874.9004               899.0998
 Red. masses --      3.4893                 3.2997                 2.2261
 Frc consts  --      1.4808                 1.4881                 1.0602
 IR Inten    --     10.5131                 4.4004                 9.1567

                     25                     26                     27
                      A                      A                      A
 Frequencies --    947.7122               954.4314               967.9010
 Red. masses --      2.2740                 1.5500                 2.0335
 Frc consts  --      1.2033                 0.8319                 1.1224
 IR Inten    --      5.0649                 6.6252                24.5645

                     28                     29                     30
                      A                      A                      A
 Frequencies --   1014.8047              1061.0062              1087.1565
 Red. masses --      2.1263                 2.5023                 2.4895
 Frc consts  --      1.2902                 1.6597                 1.7336
 IR Inten    --     22.8054                16.5164                40.6934

                     31                     32                     33
                      A                      A                      A
 Frequencies --   1123.0986              1169.9849              1197.0060
 Red. masses --      2.4171                 1.6533                 2.0759
 Frc consts  --      1.7963                 1.3334                 1.7525
 IR Inten    --     51.9946                67.6342               253.8953

                     34                     35                     36
                      A                      A                      A
 Frequencies --   1224.1235              1259.2329              1279.4111
 Red. masses --      1.4301                 1.7185                 1.5269
 Frc consts  --      1.2626                 1.6055                 1.4726
 IR Inten    --      6.5445                31.7935                28.9240

                     37                     38                     39
                      A                      A                      A
 Frequencies --   1302.5475              1319.8389              1359.7959
 Red. masses --      1.5802                 1.3318                 1.6229
 Frc consts  --      1.5796                 1.3669                 1.7680
 IR Inten    --      9.8160                 4.3691                18.6898

                     40                     41                     42
                      A                      A                      A
 Frequencies --   1383.4095              1399.4711              1429.5354
 Red. masses --      1.5208                 1.9380                 1.9905
 Frc consts  --      1.7149                 2.2363                 2.3966
 IR Inten    --      2.6153                38.4445                40.5203

                     43                     44                     45
                      A                      A                      A
 Frequencies --   1433.8029              1442.3649              1504.1257
 Red. masses --      1.5405                 1.2939                 1.0912
 Frc consts  --      1.8659                 1.5860                 1.4546
 IR Inten    --     10.7333                15.2731                 9.2626

                     46                     47                     48
                      A                      A                      A
 Frequencies --   1524.5046              1533.8893              1685.5559
 Red. masses --      1.0448                 1.0540                 7.5070
 Frc consts  --      1.4307                 1.4611                12.5662
 IR Inten    --      7.6938                 5.6440                 9.9712

                     49                     50                     51
                      A                      A                      A
 Frequencies --   1792.5097              1817.9068              3016.1516
 Red. masses --     11.4521                10.1847                 1.0792
 Frc consts  --     21.6800                19.8308                 5.7845
 IR Inten    --    182.3758               277.2008                 3.5544

                     52                     53                     54
                      A                      A                      A
 Frequencies --   3028.3794              3054.9430              3104.5472
 Red. masses --      1.0767                 1.0355                 1.0882
 Frc consts  --      5.8180                 5.6936                 6.1796
 IR Inten    --     27.3166                24.2349                 3.8166

                     55                     56                     57
                      A                      A                      A
 Frequencies --   3119.7506              3122.9005              3133.8743
 Red. masses --      1.0995                 1.0909                 1.1021
 Frc consts  --      6.3052                 6.2686                 6.3772
 IR Inten    --      7.3072                31.8373                21.2355

                     58                     59                     60
                      A                      A                      A
 Frequencies --   3230.0355              3698.8393              3728.1361
 Red. masses --      1.0918                 1.0643                 1.0659
 Frc consts  --      6.7110                 8.5792                 8.7284
 IR Inten    --      0.0306                80.6968                 8.9852

 - Thermochemistry -
 -------------------
 Temperature   298.150 Kelvin.  Pressure   1.00000 Atm.
 Atom     1 has atomic number  6 and mass  12.00000

 Molecular mass:   170.05791 amu.
 Principal axes and moments of inertia in atomic units:
                           1         2         3
     Eigenvalues --  1327.664332586.240843514.70593
           X            0.99831  -0.05779  -0.00615
           Y            0.05787   0.99823   0.01365
           Z            0.00535  -0.01398   0.99989
 This molecule is an asymmetric top.
 Rotational symmetry number  1.
 Warning -- assumption of classical behavior for rotation
           may cause significant error
 Rotational temperatures (Kelvin)      0.06524     0.03349     0.02464
 Rotational constants (GHZ):           1.35934     0.69782     0.51348
 Zero-point vibrational energy     460524.8 (Joules/Mol)
                                  110.06808 (Kcal/Mol)
 Warning -- explicit consideration of  17 degrees of freedom as
           vibrations may cause significant error
 Vibrational temperatures:     64.83    96.96   168.24   215.72   247.97
          (Kelvin)            309.80   343.48   370.93   407.22   423.85
                              538.73   558.05   581.75   667.92   711.75
                              806.53   873.66   907.54   958.02  1010.26
                             1129.53  1221.08  1258.79  1293.60  1363.55
                             1373.21  1392.59  1460.08  1526.55  1564.18
                             1615.89  1683.35  1722.22  1761.24  1811.76
                             1840.79  1874.08  1898.95  1956.44  1990.42
                             2013.53  2056.78  2062.92  2075.24  2164.10
                             2193.42  2206.92  2425.14  2579.02  2615.56
                             4339.57  4357.16  4395.38  4466.75  4488.63
                             4493.16  4508.95  4647.30  5321.80  5363.96

 Zero-point correction=                           0.175405 (Hartree/Particle)
 Thermal correction to Energy=                    0.187045
 Thermal correction to Enthalpy=                  0.187990
 Thermal correction to Gibbs Free Energy=         0.137507
 Sum of electronic and zero-point Energies=           -611.618264
 Sum of electronic and thermal Energies=              -611.606623
 Sum of electronic and thermal Enthalpies=            -611.605679
 Sum of electronic and thermal Free Energies=         -611.656162

                     E (Thermal)             CV                S
                      KCal/Mol        Cal/Mol-Kelvin    Cal/Mol-Kelvin
 Total                  117.373             43.207            106.250
 Electronic               0.000              0.000              0.000
 Translational            0.889              2.981             41.301
 Rotational               0.889              2.981             30.868
 Vibrational            115.595             37.245             34.082
 Vibration     1          0.595              1.979              5.023
 Vibration     2          0.598              1.970              4.228
 Vibration     3          0.608              1.935              3.150
 Vibration     4          0.618              1.903              2.673
 Vibration     5          0.626              1.877              2.410
 Vibration     6          0.645              1.818              1.998
 Vibration     7          0.657              1.781              1.812
 Vibration     8          0.667              1.750              1.677
 Vibration     9          0.682              1.705              1.515
 Vibration    10          0.689              1.684              1.447
 Vibration    11          0.746              1.525              1.062
 Vibration    12          0.756              1.496              1.008
 Vibration    13          0.770              1.461              0.947
 Vibration    14          0.822              1.329              0.754
 Vibration    15          0.850              1.262              0.672
 Vibration    16          0.916              1.117              0.523
 Vibration    17          0.966              1.016              0.437

                           ! Non-Optimized Parameters !

 1\1\GINC-NODE217\Freq\RB3LYP\6-31G(d)\C8H10O4\VSC10255\09-Dec-2020\0\\
 #N Geom=AllCheck Guess=TCheck SCRF=Check GenChk RB3LYP/6-31G(d) Freq\\
 CID_135208591_JID_2153_neutraal\\0,1\C,0.90793905,-0.009675052,-0.0388
 50901\C,0.6576035652,-1.4625454806,-0.4436963917\C,1.8350423591,-2.037
 1385762,-1.2480527946\C,1.7323130924,-3.524597971,-1.4673489908\C,0.91
 47944814,-4.3205558311,-0.7487025485\C,0.0459129084,-3.780718927,0.326
 663245\O,-0.8314463862,-4.4576176525,0.8347442638\C,0.3637649901,-2.35
 11661269,0.7748528445\O,1.4493355765,-2.3838685889,1.7067937643\C,2.60

 Normal termination of Gaussian 16 at Wed Dec  9 16:53:54 2020.

 ----------------------------------------------------------------------
 # B3LYP/6-311++G(d,p) empiricaldispersion=gd3bj scf=xqc pop=npa geom=c
 heck
 ----------------------------------------------------------------------

 ---------------------------------------
 CID_135208591_JID_2153_Energie_neutraal
 ---------------------------------------
 Structure from the checkpoint file:  "JID_2153.chk"
 Charge =  0 Multiplicity = 1

 SCF Done:  E(RB3LYP) =  -611.989246680     A.U. after   16 cycles
 Normal termination of Gaussian 16 at Wed Dec  9 16:55:55 2020.

 ----------------------------------------------------------------------
 # B3LYP/6-311++G(d,p) empiricaldispersion=gd3bj scf=xqc pop=npa geom=c
 heck
 ----------------------------------------------------------------------

 -------------------------------------
 CID_135208591_JID_2153_Energie_kation
 -------------------------------------
 Structure from the checkpoint file:  "JID_2153.chk"
 Charge =  1 Multiplicity = 2

 SCF Done:  E(UB3LYP) =  -611.652274118     A.U. after   23 cycles
 Normal termination of Gaussian 16 at Wed Dec  9 17:00:23 2020.
 Gaussian 16:  ES64L-G16RevA.03 25-Dec-2016

 ------------------------------------
 CID_135208591_JID_2153_Energie_anion
 ------------------------------------
 Structure from the checkpoint file:  "JID_2153.chk"
 Charge = -1 Multiplicity = 2

                         Standard orientation:
 ---------------------------------------------------------------------
 Center     Atomic      Atomic             Coordinates (Angstroms)
 Number     Number       Type             X           Y           Z
 ---------------------------------------------------------------------
      1          6           0        2.256851   -2.151941   -0.380589
      2          6           0        1.328220   -0.956581   -0.595438
      3          6           0       -0.091949   -1.243213   -0.081170
      4          6           0       -0.972903   -0.020608   -0.062788
      5          6           0       -0.490302    1.236408   -0.135900
      6          6           0        0.964785    1.509778   -0.239721
      7          8           0        1.384950    2.622660   -0.506278
      8          6           0        1.881424    0.319458    0.057661
      9          8           0        2.035159    0.190339    1.474609
     10          6           0       -2.437471   -0.283825    0.045779
     11          8           0       -2.916839   -1.397340    0.116259
     12          8           0       -3.192036    0.839368    0.066930
     13          1           0        3.231395   -1.978879   -0.849845
     14          1           0        1.829657   -3.064355   -0.811041
     15          1           0        2.423196   -2.316749    0.688518
     16          1           0        1.252520   -0.747975   -1.673316
     17          1           0       -0.572770   -2.020409   -0.683370
     18          1           0       -0.048662   -1.667620    0.933515
     19          1           0       -1.150149    2.097377   -0.150068
     20          1           0        2.878896    0.554363   -0.320683
     21          1           0        1.151446    0.106804    1.868197
     22          1           0       -4.117331    0.540368    0.138933
 ---------------------------------------------------------------------

 SCF Done:  E(UB3LYP) =  -612.034358058     A.U. after   22 cycles

 The electronic state is 2-A.
 Alpha  occ. eigenvalues --  -19.02371 -18.99511 -18.95055 -18.92653 -10.13399
 Alpha  occ. eigenvalues --  -10.08163 -10.06947 -10.05095 -10.04679 -10.03688
 Alpha  occ. eigenvalues --  -10.01905 -10.00397  -0.96029  -0.89826  -0.86665
 Alpha  occ. eigenvalues --   -0.86362  -0.69693  -0.63920  -0.57706  -0.55577
 Alpha  occ. eigenvalues --   -0.51261  -0.45882  -0.42530  -0.39854  -0.36235
 Alpha  occ. eigenvalues --   -0.34461  -0.34318  -0.32476  -0.31388  -0.30735
 Alpha  occ. eigenvalues --   -0.28921  -0.27845  -0.26613  -0.25941  -0.25150
 Alpha  occ. eigenvalues --   -0.23741  -0.23264  -0.21173  -0.20595  -0.19208
 Alpha  occ. eigenvalues --   -0.18382  -0.15927  -0.13453  -0.12425  -0.07849
 Alpha  occ. eigenvalues --    0.02300
 Alpha virt. eigenvalues --    0.08633   0.09406   0.10869   0.11572   0.11910
 Alpha virt. eigenvalues --    0.13451   0.13866   0.14498   0.14759   0.15271
 Alpha virt. eigenvalues --    0.15947   0.17210   0.18441   0.18681   0.19355

  Beta  occ. eigenvalues --  -19.02318 -18.99468 -18.94733 -18.92072 -10.13212
  Beta  occ. eigenvalues --  -10.08177 -10.06774 -10.05089 -10.04675 -10.03713
  Beta  occ. eigenvalues --  -10.01570 -10.00175  -0.95766  -0.89675  -0.86198
  Beta  occ. eigenvalues --   -0.85395  -0.69449  -0.63427  -0.57346  -0.55396
  Beta  occ. eigenvalues --   -0.50608  -0.45769  -0.42081  -0.39553  -0.36080
  Beta  occ. eigenvalues --   -0.34282  -0.33869  -0.32320  -0.31167  -0.29705
  Beta  occ. eigenvalues --   -0.28567  -0.27504  -0.26430  -0.25724  -0.24749
  Beta  occ. eigenvalues --   -0.23296  -0.22586  -0.21051  -0.19197  -0.18853
  Beta  occ. eigenvalues --   -0.17161  -0.15786  -0.13088  -0.09937  -0.07340
  Beta virt. eigenvalues --    0.08479   0.09402   0.09450   0.10939   0.11554
  Beta virt. eigenvalues --    0.11930   0.13446   0.13848   0.14522   0.14851
  Beta virt. eigenvalues --    0.15279   0.17172   0.17608   0.18632   0.18769

 Mulliken charges and spin densities:
               1          2
     1  C   -0.607174  -0.077759
     2  C    0.625366  -0.011017
     3  C   -1.840044  -0.010557
     4  C    0.973012   0.204596
     5  C   -0.108958   0.150199
     6  C   -0.576712   0.128839
     7  O   -0.395546   0.196858
     8  C    0.028479   0.086631
     9  O   -0.217813  -0.015387
    10  C    0.024650   0.156152
    11  O   -0.415991   0.115470
    12  O   -0.208180   0.012478
    13  H    0.110037   0.003128
    14  H    0.114982   0.001241
    15  H    0.154698   0.005874
    16  H    0.159333   0.003249
    17  H    0.156869  -0.001729
    18  H    0.173597   0.041003
    19  H    0.185862  -0.011422
    20  H    0.195637   0.009175
    21  H    0.219034   0.013897
    22  H    0.248862  -0.000918
 Sum of Mulliken charges =  -1.00000   1.00000

 Dipole moment (field-independent basis, Debye):
    X=             -0.1953    Y=             -3.5685    Z=             -0.1637  Tot=              3.5776
 Quadrupole moment (field-independent basis, Debye-Ang):
   XX=            -96.6015   YY=           -101.5361   ZZ=            -77.2783
   XY=            -15.0278   XZ=             -3.1119   YZ=              3.5465

 Summary of Natural Population Analysis:

                                       Natural Population
                Natural  -----------------------------------------------
    Atom  No    Charge         Core      Valence    Rydberg      Total
 -----------------------------------------------------------------------
      C    1   -0.28421      0.99966     2.27929    0.00526     3.28421
      C    2   -0.11656      0.99959     2.10927    0.00770     3.11656
      C    3   -0.20694      0.99960     2.19785    0.00949     3.20694
      C    4    0.00352      0.99945     1.98598    0.01105     2.99648
      C    5   -0.08374      0.99946     2.07420    0.01008     3.08374
      C    6    0.26497      0.99962     1.71310    0.02231     2.73503
      O    7   -0.23720      0.99988     3.22865    0.00868     4.23720
      C    8    0.03124      0.99949     1.95336    0.01591     2.96876
      O    9   -0.37158      0.99990     3.36517    0.00651     4.37158
      C   10    0.41323      0.99965     1.56292    0.02421     2.58677
      O   11   -0.30124      0.99987     3.29473    0.00663     4.30124
      O   12   -0.35101      0.99988     3.34343    0.00770     4.35101
      H   13    0.09311      0.00000     0.40599    0.00090     0.40689
      H   14    0.09291      0.00000     0.40605    0.00104     0.40709
      H   15    0.10117      0.00000     0.39766    0.00117     0.39883
      H   16    0.09581      0.00000     0.40242    0.00177     0.40419
      H   17    0.11007      0.00000     0.38872    0.00120     0.38993
      H   18    0.09932      0.00000     0.39873    0.00195     0.40068
      H   19    0.10348      0.00000     0.39515    0.00138     0.39652
      H   20    0.08727      0.00000     0.41085    0.00188     0.41273
      H   21    0.22924      0.00000     0.26831    0.00245     0.27076
      H   22    0.22713      0.00000     0.26778    0.00509     0.27287
 =======================================================================
   * Total *    0.00000     11.99604    32.84960    0.15436    45.00000

 Normal termination of Gaussian 16 at Wed Dec  9 17:04:20 2020.
