 Gaussian 16, Revision A.03,

 -----------------------------------------------------------
 # opt freq B3LYP/6-31G(d) empiricaldispersion=gd3bj scf=xqc
 -----------------------------------------------------------

 ------------------------------
 CID_81774563_JID_8454_neutraal
 ------------------------------
 Symbolic Z-matrix:
 Charge =  0 Multiplicity = 1

 SCF Done:  E(RB3LYP) =  -1198.96774060     A.U. after   16 cycles
 SCF Done:  E(RB3LYP) =  -1198.99333395     A.U. after   13 cycles
 SCF Done:  E(RB3LYP) =  -1198.94945914     A.U. after   15 cycles
 SCF Done:  E(RB3LYP) =  -1198.99533069     A.U. after   13 cycles
 SCF Done:  E(RB3LYP) =  -1198.99631957     A.U. after   11 cycles
 SCF Done:  E(RB3LYP) =  -1198.99858908     A.U. after   12 cycles
 SCF Done:  E(RB3LYP) =  -1198.99991455     A.U. after   13 cycles
 SCF Done:  E(RB3LYP) =  -1199.00172880     A.U. after   13 cycles
 SCF Done:  E(RB3LYP) =  -1198.99999542     A.U. after   13 cycles
 SCF Done:  E(RB3LYP) =  -1199.00269878     A.U. after   13 cycles
 SCF Done:  E(RB3LYP) =  -1199.00663711     A.U. after   10 cycles
 SCF Done:  E(RB3LYP) =  -1199.00664204     A.U. after   10 cycles
 SCF Done:  E(RB3LYP) =  -1199.00664549     A.U. after   10 cycles
 SCF Done:  E(RB3LYP) =  -1199.00664680     A.U. after    9 cycles
 SCF Done:  E(RB3LYP) =  -1199.00664698     A.U. after    8 cycles
 SCF Done:  E(RB3LYP) =  -1199.00664698     A.U. after    7 cycles
 Optimization completed.
    -- Stationary point found.
 Normal termination of Gaussian 16 at Fri Dec 11 20:33:51 2020.

 --------------------------------------------------------------------
 #N Geom=AllCheck Guess=TCheck SCRF=Check GenChk RB3LYP/6-31G(d) Freq
 --------------------------------------------------------------------

 Structure from the checkpoint file:  "JID_8454.chk"
 ------------------------------
 CID_81774563_JID_8454_neutraal
 ------------------------------
 Charge =  0 Multiplicity = 1

 SCF Done:  E(RB3LYP) =  -1199.00664698     A.U. after    1 cycles

  Exact polarizability: 199.358   4.333 149.663  10.323 -13.302 113.337
 Approx polarizability: 302.000  10.855 240.304  35.764 -32.966 185.012

                      1                      2                      3
                      A                      A                      A
 Frequencies --     24.7407                27.1075                47.3243
 Red. masses --      5.6272                 5.5799                 8.3380
 Frc consts  --      0.0020                 0.0024                 0.0110
 IR Inten    --      3.1411                 0.6027                 1.8189

                      4                      5                      6
                      A                      A                      A
 Frequencies --     76.0356                87.4181               109.6983
 Red. masses --      5.0556                 5.7067                 4.2904
 Frc consts  --      0.0172                 0.0257                 0.0304
 IR Inten    --      0.7006                 0.2992                 1.8320

                      7                      8                      9
                      A                      A                      A
 Frequencies --    116.5355               157.7240               162.7780
 Red. masses --      4.2483                 4.4024                 3.9605
 Frc consts  --      0.0340                 0.0645                 0.0618
 IR Inten    --      2.5333                 1.4951                 1.8119

                     10                     11                     12
                      A                      A                      A
 Frequencies --    207.3489               233.0497               245.0470
 Red. masses --      1.1546                 4.3822                 3.8386
 Frc consts  --      0.0292                 0.1402                 0.1358
 IR Inten    --      0.7139                 1.0257                 0.1684

                     13                     14                     15
                      A                      A                      A
 Frequencies --    259.2721               282.0438               302.8263
 Red. masses --      4.2687                 6.3559                 5.8139
 Frc consts  --      0.1691                 0.2979                 0.3141
 IR Inten    --      0.1431                 1.7503                 3.0546

                     16                     17                     18
                      A                      A                      A
 Frequencies --    319.5314               356.8659               364.7329
 Red. masses --      4.7224                 1.6127                 2.8413
 Frc consts  --      0.2841                 0.1210                 0.2227
 IR Inten    --      0.7030                40.9069                 3.7173

                     19                     20                     21
                      A                      A                      A
 Frequencies --    368.6550               389.2523               408.6242
 Red. masses --      4.6557                 1.8892                 4.5629
 Frc consts  --      0.3728                 0.1686                 0.4489
 IR Inten    --      0.5061                31.3076                 5.7877

                     22                     23                     24
                      A                      A                      A
 Frequencies --    435.2326               468.0935               478.2221
 Red. masses --      4.4804                 3.0304                 3.4694
 Frc consts  --      0.5000                 0.3912                 0.4675
 IR Inten    --     10.4790                 7.1258                44.7273

                     25                     26                     27
                      A                      A                      A
 Frequencies --    495.8047               522.2926               536.7331
 Red. masses --      3.4061                 7.2446                 4.1687
 Frc consts  --      0.4933                 1.1644                 0.7076
 IR Inten    --      5.9860                65.3490                36.7689

                     28                     29                     30
                      A                      A                      A
 Frequencies --    567.1192               624.5740               670.6494
 Red. masses --      4.7078                 3.0888                 5.7379
 Frc consts  --      0.8921                 0.7099                 1.5205
 IR Inten    --      4.8327                51.4530                 8.6196

                     31                     32                     33
                      A                      A                      A
 Frequencies --    685.6359               689.9603               698.5626
 Red. masses --      2.3197                 1.4126                 1.2592
 Frc consts  --      0.6425                 0.3962                 0.3620
 IR Inten    --     15.4230                40.0167               110.8799

                     34                     35                     36
                      A                      A                      A
 Frequencies --    722.2037               732.2209               766.6574
 Red. masses --      2.3202                 5.5971                 4.0598
 Frc consts  --      0.7130                 1.7681                 1.4059
 IR Inten    --     43.2079                40.4839                52.7004

                     37                     38                     39
                      A                      A                      A
 Frequencies --    798.5396               823.2566               848.4304
 Red. masses --      3.6922                 1.5796                 1.4408
 Frc consts  --      1.3872                 0.6308                 0.6110
 IR Inten    --      2.7154                 6.9390               211.6152

                     40                     41                     42
                      A                      A                      A
 Frequencies --    886.3072               922.7218               943.0433
 Red. masses --      2.8732                 1.5302                 1.5294
 Frc consts  --      1.3298                 0.7676                 0.8014
 IR Inten    --      5.1818                 0.4183                 6.0773

                     43                     44                     45
                      A                      A                      A
 Frequencies --    965.6614               980.3262               989.7077
 Red. masses --      2.4206                 2.5985                 1.3410
 Frc consts  --      1.3299                 1.4713                 0.7739
 IR Inten    --      8.6288                14.0450                 0.1025

                     46                     47                     48
                      A                      A                      A
 Frequencies --    993.9801               999.5218              1020.0114
 Red. masses --      1.5058                 1.3309                 2.7909
 Frc consts  --      0.8765                 0.7834                 1.7108
 IR Inten    --     61.2005                 2.8493                20.2669

                     49                     50                     51
                      A                      A                      A
 Frequencies --   1022.8914              1096.9203              1118.4932
 Red. masses --      4.0047                 3.0196                 1.6994
 Frc consts  --      2.4688                 2.1406                 1.2526
 IR Inten    --      4.5441                44.7843                14.8346

                     52                     53                     54
                      A                      A                      A
 Frequencies --   1138.4097              1154.7222              1194.3833
 Red. masses --      3.2370                 1.5139                 1.5727
 Frc consts  --      2.4716                 1.1893                 1.3219
 IR Inten    --    148.7900                11.2978                 8.3573

                     55                     56                     57
                      A                      A                      A
 Frequencies --   1199.0022              1255.6275              1273.4320
 Red. masses --      1.1217                 2.6121                 1.5581
 Frc consts  --      0.9501                 2.4264                 1.4887
 IR Inten    --      0.4573                36.8694                 8.7688

                     58                     59                     60
                      A                      A                      A
 Frequencies --   1312.3814              1315.3242              1334.6698
 Red. masses --      2.6162                 3.6271                 1.5278
 Frc consts  --      2.6548                 3.6972                 1.6035
 IR Inten    --     83.1580                84.4329                32.7118

                     61                     62                     63
                      A                      A                      A
 Frequencies --   1355.1850              1360.7131              1371.0731
 Red. masses --      3.5683                 3.0805                 1.3967
 Frc consts  --      3.8611                 3.3605                 1.5470
 IR Inten    --     20.2869               200.3139                22.9361

                     64                     65                     66
                      A                      A                      A
 Frequencies --   1372.4260              1407.9347              1449.6417
 Red. masses --      1.2070                 1.2603                 1.7638
 Frc consts  --      1.3394                 1.4720                 2.1839
 IR Inten    --     11.0362                 9.4156                13.4297

                     67                     68                     69
                      A                      A                      A
 Frequencies --   1469.8319              1480.6277              1482.3495
 Red. masses --      2.6406                 1.0568                 1.0543
 Frc consts  --      3.3612                 1.3651                 1.3650
 IR Inten    --     35.2070                 6.2951                 3.4115

                     70                     71                     72
                      A                      A                      A
 Frequencies --   1496.6246              1527.2212              1631.1033
 Red. masses --      1.0962                 2.5094                 5.8047
 Frc consts  --      1.4466                 3.4484                 9.0990
 IR Inten    --     11.2522                58.3853                 1.5550

                     73                     74                     75
                      A                      A                      A
 Frequencies --   1650.1854              1691.0341              1776.1405
 Red. masses --      6.0001                 1.0976                 8.6065
 Frc consts  --      9.6267                 1.8493                15.9968
 IR Inten    --     30.4754                50.0401               333.3241

                     76                     77                     78
                      A                      A                      A
 Frequencies --   2234.3140              3058.8037              3070.8374
 Red. masses --      5.8807                 1.0793                 1.0651
 Frc consts  --     17.2969                 5.9498                 5.9175
 IR Inten    --      0.1810                12.3709                24.7555

                     79                     80                     81
                      A                      A                      A
 Frequencies --   3083.9291              3115.9752              3185.4126
 Red. masses --      1.0289                 1.1025                 1.1064
 Frc consts  --      5.7655                 6.3068                 6.6143
 IR Inten    --      0.4160                 2.6996                 0.4108

                     82                     83                     84
                      A                      A                      A
 Frequencies --   3192.4383              3202.2324              3216.3395
 Red. masses --      1.1083                 1.0878                 1.0935
 Frc consts  --      6.6551                 6.5724                 6.6647
 IR Inten    --      0.9276                 4.8331                 6.4486

                     85                     86                     87
                      A                      A                      A
 Frequencies --   3231.8742              3244.4005              3466.9719
 Red. masses --      1.0940                 1.0917                 1.1633
 Frc consts  --      6.7325                 6.7703                 8.2382
 IR Inten    --      2.7240                 4.0041               109.4287

                     88                     89                     90
                      A                      A                      A
 Frequencies --   3509.8249              3549.5757              3603.7180
 Red. masses --      1.0494                 1.0743                 1.0931
 Frc consts  --      7.6167                 7.9753                 8.3639
 IR Inten    --      1.3376                28.4679                 2.2062

 - Thermochemistry -
 -------------------
 Temperature   298.150 Kelvin.  Pressure   1.00000 Atm.
 Atom     1 has atomic number  6 and mass  12.00000

 Molecular mass:   266.07251 amu.
 Principal axes and moments of inertia in atomic units:
                           1         2         3
     Eigenvalues --  2824.438566903.273578113.14977
           X            0.99979  -0.01026  -0.01790
           Y            0.00999   0.99983  -0.01525
           Z            0.01805   0.01507   0.99972
 This molecule is an asymmetric top.
 Rotational symmetry number  1.
 Warning -- assumption of classical behavior for rotation
           may cause significant error
 Rotational temperatures (Kelvin)      0.03067     0.01255     0.01068
 Rotational constants (GHZ):           0.63897     0.26143     0.22245
 Zero-point vibrational energy     656253.9 (Joules/Mol)
                                  156.84844 (Kcal/Mol)
 Warning -- explicit consideration of  28 degrees of freedom as
           vibrations may cause significant error
 Vibrational temperatures:     35.60    39.00    68.09   109.40   125.78
          (Kelvin)            157.83   167.67   226.93   234.20   298.33
                              335.31   352.57   373.03   405.80   435.70
                              459.73   513.45   524.77   530.41   560.05
                              587.92   626.20   673.48   688.05   713.35
                              751.46   772.24   815.96   898.62   964.91
                              986.48   992.70  1005.08  1039.09  1053.50
                             1103.05  1148.92  1184.48  1220.70  1275.20
                             1327.59  1356.83  1389.37  1410.47  1423.97
                             1430.12  1438.09  1467.57  1471.71  1578.22
                             1609.26  1637.92  1661.39  1718.45  1725.10
                             1806.57  1832.18  1888.22  1892.46  1920.29
                             1949.81  1957.76  1972.67  1974.61  2025.70
                             2085.71  2114.76  2130.29  2132.77  2153.31
                             2197.33  2346.79  2374.25  2433.02  2555.47
                             3214.68  4400.94  4418.25  4437.09  4483.19
                             4583.10  4593.21  4607.30  4627.60  4649.95
                             4667.97  4988.20  5049.86  5107.05  5184.95

 Zero-point correction=                           0.249954 (Hartree/Particle)
 Thermal correction to Energy=                    0.267942
 Thermal correction to Enthalpy=                  0.268886
 Thermal correction to Gibbs Free Energy=         0.202973
 Sum of electronic and zero-point Energies=          -1198.756693
 Sum of electronic and thermal Energies=             -1198.738705
 Sum of electronic and thermal Enthalpies=           -1198.737761
 Sum of electronic and thermal Free Energies=        -1198.803674

                     E (Thermal)             CV                S
                      KCal/Mol        Cal/Mol-Kelvin    Cal/Mol-Kelvin
 Total                  168.136             67.999            138.727
 Electronic               0.000              0.000              0.000
 Translational            0.889              2.981             42.635
 Rotational               0.889              2.981             33.425
 Vibrational            166.359             62.038             62.667
 Vibration     1          0.593              1.985              6.212
 Vibration     2          0.593              1.984              6.031
 Vibration     3          0.595              1.979              4.926
 Vibration     4          0.599              1.965              3.991
 Vibration     5          0.601              1.958              3.717
 Vibration     6          0.606              1.941              3.274
 Vibration     7          0.608              1.936              3.157
 Vibration     8          0.621              1.894              2.577
 Vibration     9          0.623              1.888              2.517
 Vibration    10          0.641              1.829              2.067
 Vibration    11          0.654              1.790              1.855
 Vibration    12          0.660              1.771              1.766
 Vibration    13          0.668              1.747              1.667
 Vibration    14          0.681              1.707              1.521
 Vibration    15          0.694              1.668              1.401
 Vibration    16          0.705              1.636              1.312
 Vibration    17          0.732              1.561              1.136
 Vibration    18          0.738              1.545              1.102
 Vibration    19          0.741              1.537              1.085
 Vibration    20          0.757              1.493              1.003
 Vibration    21          0.773              1.451              0.931
 Vibration    22          0.796              1.393              0.842
 Vibration    23          0.825              1.321              0.743
 Vibration    24          0.835              1.298              0.715
 Vibration    25          0.851              1.259              0.669
 Vibration    26          0.877              1.201              0.605
 Vibration    27          0.892              1.169              0.572
 Vibration    28          0.923              1.102              0.510

 Optimization completed.
    -- Stationary point found.
 Normal termination of Gaussian 16 at Fri Dec 11 20:49:28 2020.

 ----------------------------------------------------------------------
 # B3LYP/6-311++G(d,p) empiricaldispersion=gd3bj scf=xqc pop=npa geom=c
 heck
 ----------------------------------------------------------------------

 --------------------------------------
 CID_81774563_JID_8454_Energie_neutraal
 --------------------------------------
 Structure from the checkpoint file:  "JID_8454.chk"
 Charge =  0 Multiplicity = 1

 SCF Done:  E(RB3LYP) =  -1199.27099298     A.U. after   18 cycles
 Normal termination of Gaussian 16 at Fri Dec 11 20:57:49 2020.

 ----------------------------------------------------------------------
 # B3LYP/6-311++G(d,p) empiricaldispersion=gd3bj scf=xqc pop=npa geom=c
 heck
 ----------------------------------------------------------------------

 ------------------------------------
 CID_81774563_JID_8454_Energie_kation
 ------------------------------------
 Structure from the checkpoint file:  "JID_8454.chk"
 Charge =  1 Multiplicity = 2

 SCF Done:  E(UB3LYP) =  -1198.95888617     A.U. after   26 cycles
 Normal termination of Gaussian 16 at Fri Dec 11 21:15:16 2020.
 Gaussian 16:  ES64L-G16RevA.03 25-Dec-2016

 ----------------------------------------------------------------------
 # B3LYP/6-311++G(d,p) empiricaldispersion=gd3bj scf=xqc pop=npa geom=c
 heck
 ----------------------------------------------------------------------

 -----------------------------------
 CID_81774563_JID_8454_Energie_anion
 -----------------------------------
 Structure from the checkpoint file:  "JID_8454.chk"
 Charge = -1 Multiplicity = 2

                         Standard orientation:
 ---------------------------------------------------------------------
 Center     Atomic      Atomic             Coordinates (Angstroms)
 Number     Number       Type             X           Y           Z
 ---------------------------------------------------------------------
      1          6           0       -3.714159   -0.214118    1.552934
      2         16           0       -2.847985   -0.665877    0.033597
      3          8           0       -2.219789   -1.976991    0.267494
      4          8           0       -3.767666   -0.455064   -1.093023
      5          6           0       -1.549746    0.574693   -0.076793
      6          6           0       -1.813184    1.755015   -0.771196
      7          6           0       -0.827028    2.740887   -0.815549
      8          6           0        0.399241    2.531870   -0.186166
      9          6           0        0.664837    1.327734    0.477113
     10          6           0       -0.325861    0.344099    0.550286
     11          7           0        1.918021    1.147522    1.139745
     12          6           0        2.994768    0.336670    0.821943
     13          8           0        3.823771    0.074260    1.681434
     14          6           0        3.228769   -0.159013   -0.623740
     15          6           0        3.242084   -1.707926   -0.617371
     16          6           0        1.896405   -2.260311   -0.478877
     17          6           0        0.758799   -2.659395   -0.393611
     18          7           0        2.401448    0.317068   -1.714758
     19          1           0       -4.522704   -0.938739    1.675436
     20          1           0       -4.117201    0.794412    1.445417
     21          1           0       -3.016931   -0.274631    2.390414
     22          1           0       -2.766653    1.884026   -1.271518
     23          1           0       -1.013128    3.669798   -1.345523
     24          1           0        1.173735    3.292408   -0.212442
     25          1           0       -0.127058   -0.592558    1.056459
     26          1           0        1.940049    1.395052    2.124357
     27          1           0        4.261123    0.155820   -0.819595
     28          1           0        3.685091   -2.044153   -1.561651
     29          1           0        3.887848   -2.043191    0.200373
     30          1           0       -0.263199   -2.957904   -0.299879
     31          1           0        1.461825   -0.066466   -1.654008
     32          1           0        2.328586    1.329160   -1.721364
 ---------------------------------------------------------------------

 SCF Done:  E(UB3LYP) =  -1199.28844342     A.U. after   31 cycles

 The electronic state is 2-A.
 Alpha  occ. eigenvalues --  -88.91564 -18.98757 -18.98582 -18.98060 -14.22535
 Alpha  occ. eigenvalues --  -14.18504 -10.16203 -10.11369 -10.09583 -10.09257
 Alpha  occ. eigenvalues --  -10.07935 -10.06391 -10.05186 -10.04629 -10.04520
 Alpha  occ. eigenvalues --  -10.04376 -10.03977 -10.02405  -7.97917  -5.94235
 Alpha  occ. eigenvalues --   -5.94107  -5.93979  -0.97901  -0.93402  -0.87802
 Alpha  occ. eigenvalues --   -0.81362  -0.78672  -0.72347  -0.68362  -0.66276
 Alpha  occ. eigenvalues --   -0.62358  -0.62258  -0.61429  -0.55405  -0.52564
 Alpha  occ. eigenvalues --   -0.49972  -0.46719  -0.45840  -0.42010  -0.41232
 Alpha  occ. eigenvalues --   -0.40187  -0.38698  -0.36660  -0.36430  -0.35928
 Alpha  occ. eigenvalues --   -0.35557  -0.35264  -0.33849  -0.32913  -0.31594
 Alpha  occ. eigenvalues --   -0.31272  -0.30766  -0.30512  -0.29321  -0.28534
 Alpha  occ. eigenvalues --   -0.25707  -0.24628  -0.24365  -0.23295  -0.21083
 Alpha  occ. eigenvalues --   -0.19897  -0.18336  -0.18079  -0.17200  -0.16630
 Alpha  occ. eigenvalues --   -0.16503  -0.15423  -0.14333  -0.13648  -0.11624
 Alpha  occ. eigenvalues --    0.04058
 Alpha virt. eigenvalues --    0.07693   0.08017   0.09008   0.09463   0.10372
 Alpha virt. eigenvalues --    0.10801   0.11064   0.11324   0.11821   0.11914
 Alpha virt. eigenvalues --    0.12311   0.12610   0.13156   0.13833   0.14522

  Beta  occ. eigenvalues --  -88.91554 -18.98718 -18.98547 -18.98037 -14.22543
  Beta  occ. eigenvalues --  -14.18492 -10.16166 -10.11372 -10.09581 -10.09228
  Beta  occ. eigenvalues --  -10.07918 -10.06392 -10.05183 -10.04442 -10.04412
  Beta  occ. eigenvalues --  -10.04224 -10.03787 -10.01927  -7.97905  -5.94230
  Beta  occ. eigenvalues --   -5.94058  -5.93979  -0.97752  -0.93353  -0.87703
  Beta  occ. eigenvalues --   -0.81283  -0.78645  -0.71838  -0.68353  -0.66004
  Beta  occ. eigenvalues --   -0.62151  -0.61740  -0.61116  -0.55349  -0.51989
  Beta  occ. eigenvalues --   -0.49796  -0.46572  -0.45517  -0.41911  -0.41148
  Beta  occ. eigenvalues --   -0.40141  -0.38656  -0.36348  -0.36220  -0.35836
  Beta  occ. eigenvalues --   -0.35303  -0.35157  -0.33709  -0.32796  -0.31439
  Beta  occ. eigenvalues --   -0.31183  -0.30670  -0.30405  -0.29276  -0.28488
  Beta  occ. eigenvalues --   -0.25619  -0.24142  -0.23345  -0.23094  -0.20961
  Beta  occ. eigenvalues --   -0.19842  -0.18208  -0.18019  -0.17056  -0.16603
  Beta  occ. eigenvalues --   -0.16393  -0.14984  -0.13625  -0.12065  -0.10672
  Beta virt. eigenvalues --    0.07649   0.07992   0.08922   0.09460   0.09745
  Beta virt. eigenvalues --    0.10461   0.10967   0.11167   0.11444   0.11840
  Beta virt. eigenvalues --    0.12223   0.12270   0.12584   0.13224   0.13900

 Mulliken charges and spin densities:
               1          2
     1  C   -0.627937   0.058561
     2  S    0.472499  -0.091013
     3  O   -0.240517  -0.000909
     4  O   -0.178443  -0.017696
     5  C    0.229712   0.260517
     6  C   -0.334370   0.326490
     7  C   -0.430648  -0.037494
     8  C    0.037802   0.444180
     9  C   -1.083128  -0.035971
    10  C    0.030205   0.002091
    11  N   -0.081213   0.007550
    12  C   -0.243037   0.033549
    13  O   -0.326579   0.010019
    14  C    0.228460   0.027485
    15  C   -0.669276  -0.045193
    16  C    0.146305   0.022691
    17  C   -0.354991  -0.011320
    18  N   -0.266637  -0.012265
    19  H    0.175573   0.013381
    20  H    0.183128   0.012490
    21  H    0.186600   0.003111
    22  H    0.159793   0.011498
    23  H    0.124859   0.004410
    24  H    0.134736  -0.037405
    25  H    0.161504   0.007557
    26  H    0.292925   0.012894
    27  H    0.211880   0.004400
    28  H    0.174146   0.001902
    29  H    0.197823  -0.001302
    30  H    0.242840   0.011078
    31  H    0.215812  -0.000739
    32  H    0.230177   0.015454
 Sum of Mulliken charges =  -1.00000   1.00000

 Dipole moment (field-independent basis, Debye):
    X=              0.3611    Y=              1.2768    Z=              1.7445  Tot=              2.1918
 Quadrupole moment (field-independent basis, Debye-Ang):
   XX=           -160.6072   YY=           -136.3969   ZZ=           -131.0427
   XY=             -3.4880   XZ=            -17.6791   YZ=             -1.1376

 Summary of Natural Population Analysis:

                                       Natural Population
                Natural  -----------------------------------------------
    Atom  No    Charge         Core      Valence    Rydberg      Total
 -----------------------------------------------------------------------
      C    1   -0.38591      0.99962     2.38024    0.00605     3.38591
      S    2    1.04466      4.99921     1.86242    0.09371     6.95534
      O    3   -0.48583      0.99990     3.47885    0.00708     4.48583
      O    4   -0.47617      0.99991     3.46982    0.00645     4.47617
      C    5   -0.08161      0.99936     2.06437    0.01788     3.08161
      C    6   -0.06133      0.99951     2.05298    0.00884     3.06133
      C    7   -0.11415      0.99957     2.10597    0.00860     3.11415
      C    8   -0.01485      0.99952     2.00689    0.00844     3.01485
      C    9    0.05190      0.99944     1.93510    0.01355     2.94810
      C   10   -0.08781      0.99946     2.07702    0.01133     3.08781
      N   11   -0.32130      0.99964     2.80881    0.01285     3.82130
      C   12    0.34744      0.99964     1.63024    0.02268     2.65256
      O   13   -0.33661      0.99988     3.32969    0.00704     4.33661
      C   14   -0.04020      0.99957     2.02944    0.01119     3.04020
      C   15   -0.22885      0.99956     2.22044    0.00885     3.22885
      C   16   -0.02590      0.99940     2.01859    0.00792     3.02590
      C   17   -0.11243      0.99926     2.10864    0.00453     3.11243
      N   18   -0.42817      0.99977     2.91704    0.01137     3.92817
      H   19    0.10924      0.00000     0.38963    0.00113     0.39076
      H   20    0.11106      0.00000     0.38806    0.00088     0.38894
      H   21    0.11093      0.00000     0.38819    0.00088     0.38907
      H   22    0.10459      0.00000     0.39446    0.00094     0.39541
      H   23    0.09194      0.00000     0.40651    0.00155     0.40806
      H   24    0.09055      0.00000     0.40856    0.00090     0.40945
      H   25    0.11198      0.00000     0.38680    0.00122     0.38802
      H   26    0.19305      0.00000     0.30525    0.00170     0.30695
      H   27    0.10149      0.00000     0.39723    0.00129     0.39851
      H   28    0.11173      0.00000     0.38696    0.00131     0.38827
      H   29    0.12006      0.00000     0.37871    0.00124     0.37994
      H   30    0.12733      0.00000     0.37129    0.00138     0.37267
      H   31    0.18940      0.00000     0.30896    0.00164     0.31060
      H   32    0.18375      0.00000     0.31471    0.00155     0.31625
 =======================================================================
   * Total *    0.00000     21.99222    47.72184    0.28594    70.00000

 Normal termination of Gaussian 16 at Fri Dec 11 21:35:36 2020.
