 Gaussian 16, Revision A.03,

 -----------------------------------------------------------
 # opt freq B3LYP/6-31G(d) empiricaldispersion=gd3bj scf=xqc
 -----------------------------------------------------------

 -------------------------------
 CID_108406747_JID_1168_neutraal
 -------------------------------
 Symbolic Z-matrix:
 Charge =  0 Multiplicity = 1

 SCF Done:  E(RB3LYP) =  -927.350712671     A.U. after   16 cycles
 SCF Done:  E(RB3LYP) =  -927.353161854     A.U. after   14 cycles
 SCF Done:  E(RB3LYP) =  -927.351564812     A.U. after   14 cycles
 SCF Done:  E(RB3LYP) =  -927.353718562     A.U. after   14 cycles
 SCF Done:  E(RB3LYP) =  -927.354000088     A.U. after   13 cycles
 SCF Done:  E(RB3LYP) =  -927.354526627     A.U. after   14 cycles
 SCF Done:  E(RB3LYP) =  -927.354260563     A.U. after   17 cycles
 SCF Done:  E(RB3LYP) =  -927.355159296     A.U. after   13 cycles
 SCF Done:  E(RB3LYP) =  -927.355292972     A.U. after   13 cycles
 SCF Done:  E(RB3LYP) =  -927.355317135     A.U. after   12 cycles
 SCF Done:  E(RB3LYP) =  -927.355321479     A.U. after   10 cycles
 SCF Done:  E(RB3LYP) =  -927.355322096     A.U. after    8 cycles
 Optimization completed.
    -- Stationary point found.
 Normal termination of Gaussian 16 at Tue Dec  8 19:13:51 2020.

 --------------------------------------------------------------------
 #N Geom=AllCheck Guess=TCheck SCRF=Check GenChk RB3LYP/6-31G(d) Freq
 --------------------------------------------------------------------

 Structure from the checkpoint file:  "JID_1168.chk"
 -------------------------------
 CID_108406747_JID_1168_neutraal
 -------------------------------
 Charge =  0 Multiplicity = 1

 SCF Done:  E(RB3LYP) =  -927.355322096     A.U. after    2 cycles

  Exact polarizability: 139.875  -0.591  99.979  -6.104  -4.107  47.614
 Approx polarizability: 214.361   1.453 201.233 -12.748 -11.974  74.967

                      1                      2                      3
                      A                      A                      A
 Frequencies --     45.5949                77.6529                93.1124
 Red. masses --      6.4043                 8.5262                 9.6063
 Frc consts  --      0.0078                 0.0303                 0.0491
 IR Inten    --      0.4641                 0.8992                 0.1321

                      4                      5                      6
                      A                      A                      A
 Frequencies --    122.2891               157.0594               200.1279
 Red. masses --      2.7511                 6.2467                 9.2136
 Frc consts  --      0.0242                 0.0908                 0.2174
 IR Inten    --      2.5307                 0.3466                 2.1697

                      7                      8                      9
                      A                      A                      A
 Frequencies --    293.3480               314.8217               336.0171
 Red. masses --      4.6373                 7.2355                 1.2635
 Frc consts  --      0.2351                 0.4225                 0.0841
 IR Inten    --      2.0412                13.4811                95.4022

                     10                     11                     12
                      A                      A                      A
 Frequencies --    364.7596               436.2447               485.4042
 Red. masses --      4.0157                 7.6277                 5.8140
 Frc consts  --      0.3148                 0.8553                 0.8071
 IR Inten    --      5.9422                 8.0568                 4.2770

                     13                     14                     15
                      A                      A                      A
 Frequencies --    509.2348               575.8392               672.8030
 Red. masses --      7.6278                 3.3147                 7.6008
 Frc consts  --      1.1654                 0.6476                 2.0271
 IR Inten    --      1.0451                 0.2191                 2.5193

                     16                     17                     18
                      A                      A                      A
 Frequencies --    692.9216               744.3605               774.2751
 Red. masses --      5.3126                 7.9891                 5.8028
 Frc consts  --      1.5029                 2.6081                 2.0496
 IR Inten    --      2.9853                23.0783                 2.1290

                     19                     20                     21
                      A                      A                      A
 Frequencies --    822.6483               827.1098               906.0408
 Red. masses --      4.6508                 1.5462                 1.7628
 Frc consts  --      1.8544                 0.6232                 0.8526
 IR Inten    --     30.7914                30.8653                38.8287

                     22                     23                     24
                      A                      A                      A
 Frequencies --    925.4314               981.9190              1051.1431
 Red. masses --      1.4663                 2.3664                 2.1049
 Frc consts  --      0.7399                 1.3443                 1.3703
 IR Inten    --      7.1150                 9.0055                79.1891

                     25                     26                     27
                      A                      A                      A
 Frequencies --   1069.2172              1124.3778              1159.0674
 Red. masses --      1.9564                 1.5967                 5.9090
 Frc consts  --      1.3178                 1.1893                 4.6772
 IR Inten    --      8.7948                 9.7628                 4.5355

                     28                     29                     30
                      A                      A                      A
 Frequencies --   1190.5525              1240.3194              1269.3333
 Red. masses --      4.4856                 1.3596                 1.3075
 Frc consts  --      3.7460                 1.2324                 1.2412
 IR Inten    --     39.8089                 0.8369                12.1049

                     31                     32                     33
                      A                      A                      A
 Frequencies --   1350.9794              1391.8172              1404.3834
 Red. masses --      1.6544                 4.5829                 1.3767
 Frc consts  --      1.7791                 5.2307                 1.5998
 IR Inten    --     37.8787               411.1752                20.8021

                     34                     35                     36
                      A                      A                      A
 Frequencies --   1412.3753              1505.7286              1507.4639
 Red. masses --      2.6304                 7.4448                 1.0981
 Frc consts  --      3.0915                 9.9449                 1.4703
 IR Inten    --    101.0151                73.1826                 4.6995

                     37                     38                     39
                      A                      A                      A
 Frequencies --   1532.7742              1597.3667              1623.6478
 Red. masses --      1.0764                 6.3726                11.6317
 Frc consts  --      1.4900                 9.5803                18.0666
 IR Inten    --      0.5407                31.9779               163.3746

                     40                     41                     42
                      A                      A                      A
 Frequencies --   3017.8103              3077.4618              3227.2037
 Red. masses --      1.0663                 1.0960                 1.0925
 Frc consts  --      5.7216                 6.1158                 6.7041
 IR Inten    --     33.7646                13.6249                 4.5228

                     43                     44                     45
                      A                      A                      A
 Frequencies --   3267.1192              3453.5416              3738.1816
 Red. masses --      1.0957                 1.0760                 1.0683
 Frc consts  --      6.8908                 7.5610                 8.7956
 IR Inten    --      1.0810                 0.5244                41.8507

 - Thermochemistry -
 -------------------
 Temperature   298.150 Kelvin.  Pressure   1.00000 Atm.
 Atom     1 has atomic number  6 and mass  12.00000

 Molecular mass:   174.00991 amu.
 Principal axes and moments of inertia in atomic units:
                           1         2         3
     Eigenvalues --   658.914133775.770554358.47598
           X            0.99999   0.00520  -0.00137
           Y           -0.00520   0.99999   0.00105
           Z            0.00137  -0.00104   1.00000
 This molecule is an asymmetric top.
 Rotational symmetry number  1.
 Warning -- assumption of classical behavior for rotation
           may cause significant error
 Rotational temperatures (Kelvin)      0.13145     0.02294     0.01987
 Rotational constants (GHZ):           2.73896     0.47798     0.41408
 Zero-point vibrational energy     314443.7 (Joules/Mol)
                                   75.15385 (Kcal/Mol)
 Warning -- explicit consideration of  14 degrees of freedom as
           vibrations may cause significant error
 Vibrational temperatures:     65.60   111.73   133.97   175.95   225.97
          (Kelvin)            287.94   422.06   452.96   483.45   524.81
                              627.66   698.39   732.68   828.50   968.01
                              996.96  1070.97  1114.01  1183.61  1190.03
                             1303.59  1331.49  1412.76  1512.36  1538.37
                             1617.73  1667.64  1712.94  1784.54  1826.29
                             1943.76  2002.51  2020.59  2032.09  2166.41
                             2168.90  2205.32  2298.25  2336.07  4341.96
                             4427.78  4643.23  4700.66  4968.88  5378.41

 Zero-point correction=                           0.119765 (Hartree/Particle)
 Thermal correction to Energy=                    0.130210
 Thermal correction to Enthalpy=                  0.131154
 Thermal correction to Gibbs Free Energy=         0.082402
 Sum of electronic and zero-point Energies=           -927.235557
 Sum of electronic and thermal Energies=              -927.225112
 Sum of electronic and thermal Enthalpies=            -927.224168
 Sum of electronic and thermal Free Energies=         -927.272920

                     E (Thermal)             CV                S
                      KCal/Mol        Cal/Mol-Kelvin    Cal/Mol-Kelvin
 Total                   81.708             37.167            102.606
 Electronic               0.000              0.000              0.000
 Translational            0.889              2.981             41.369
 Rotational               0.889              2.981             30.762
 Vibrational             79.930             31.206             30.475
 Vibration     1          0.595              1.979              5.000
 Vibration     2          0.599              1.964              3.949
 Vibration     3          0.602              1.954              3.594
 Vibration     4          0.610              1.931              3.064
 Vibration     5          0.621              1.895              2.585
 Vibration     6          0.638              1.840              2.132
 Vibration     7          0.688              1.686              1.455
 Vibration     8          0.702              1.645              1.337
 Vibration     9          0.717              1.604              1.231
 Vibration    10          0.738              1.545              1.102
 Vibration    11          0.797              1.391              0.838
 Vibration    12          0.841              1.282              0.696
 Vibration    13          0.864              1.230              0.635
 Vibration    14          0.932              1.084              0.493

 Optimization completed.
    -- Stationary point found.
 Normal termination of Gaussian 16 at Tue Dec  8 19:16:40 2020.

 ----------------------------------------------------------------------
 # B3LYP/6-311++G(d,p) empiricaldispersion=gd3bj scf=xqc pop=npa geom=c
 heck
 ----------------------------------------------------------------------

 ---------------------------------------
 CID_108406747_JID_1168_Energie_neutraal
 ---------------------------------------
 Structure from the checkpoint file:  "JID_1168.chk"
 Charge =  0 Multiplicity = 1

 SCF Done:  E(RB3LYP) =  -927.548930403     A.U. after   16 cycles
 Normal termination of Gaussian 16 at Tue Dec  8 19:17:51 2020.

 ----------------------------------------------------------------------
 # B3LYP/6-311++G(d,p) empiricaldispersion=gd3bj scf=xqc pop=npa geom=c
 heck
 ----------------------------------------------------------------------

 -------------------------------------
 CID_108406747_JID_1168_Energie_kation
 -------------------------------------
 Structure from the checkpoint file:  "JID_1168.chk"
 Charge =  1 Multiplicity = 2

 SCF Done:  E(UB3LYP) =  -927.207517206     A.U. after   30 cycles
 Normal termination of Gaussian 16 at Tue Dec  8 19:21:27 2020.
 Gaussian 16:  ES64L-G16RevA.03 25-Dec-2016

 ----------------------------------------------------------------------
 # B3LYP/6-311++G(d,p) empiricaldispersion=gd3bj scf=xqc pop=npa geom=c
 heck
 ----------------------------------------------------------------------

 ------------------------------------
 CID_108406747_JID_1168_Energie_anion
 ------------------------------------
 Structure from the checkpoint file:  "JID_1168.chk"
 Charge = -1 Multiplicity = 2

                         Standard orientation:
 ---------------------------------------------------------------------
 Center     Atomic      Atomic             Coordinates (Angstroms)
 Number     Number       Type             X           Y           Z
 ---------------------------------------------------------------------
      1          6           0       -0.173335    1.826265   -0.012913
      2          6           0       -0.936357    0.694732    0.170058
      3         16           0        0.032752   -0.752478    0.217877
      4          6           0        1.464193    0.210275    0.010833
      5          6           0        1.215796    1.554043   -0.100715
      6          7           0        2.748067   -0.420866   -0.059195
      7          8           0        2.777107   -1.651876    0.042009
      8          8           0        3.731838    0.305650   -0.212398
      9          6           0       -2.420989    0.604407    0.347928
     10          7           0       -2.920953   -0.581398   -0.356223
     11          8           0       -4.352189   -0.593288   -0.207346
     12          1           0       -0.600371    2.820928   -0.076552
     13          1           0        1.999040    2.286322   -0.245509
     14          1           0       -2.677294    0.474872    1.406057
     15          1           0       -2.890679    1.540688    0.010116
     16          1           0       -2.784054   -0.437757   -1.358437
     17          1           0       -4.510360   -1.451767    0.216954
 ---------------------------------------------------------------------

 SCF Done:  E(UB3LYP) =  -927.592602994     A.U. after   22 cycles

 The electronic state is 2-A.
 Alpha  occ. eigenvalues --  -88.72936 -19.06133 -18.94127 -18.94096 -14.32361
 Alpha  occ. eigenvalues --  -14.25701 -10.09756 -10.07081 -10.05907 -10.04248
 Alpha  occ. eigenvalues --  -10.02571  -7.81545  -5.77841  -5.77483  -5.77146
 Alpha  occ. eigenvalues --   -1.02206  -0.97287  -0.85066  -0.76244  -0.73124
 Alpha  occ. eigenvalues --   -0.63061  -0.59945  -0.56866  -0.49969  -0.43511
 Alpha  occ. eigenvalues --   -0.40686  -0.39553  -0.38024  -0.36760  -0.34911
 Alpha  occ. eigenvalues --   -0.34626  -0.31627  -0.30852  -0.29699  -0.26076
 Alpha  occ. eigenvalues --   -0.24675  -0.23208  -0.21076  -0.20863  -0.15555
 Alpha  occ. eigenvalues --   -0.13496  -0.12011  -0.11806  -0.10256  -0.09945
 Alpha  occ. eigenvalues --    0.02504
 Alpha virt. eigenvalues --    0.07063   0.08958   0.10142   0.11189   0.11636
 Alpha virt. eigenvalues --    0.13591   0.13931   0.15145   0.15964   0.16679
 Alpha virt. eigenvalues --    0.17109   0.17652   0.18478   0.19085   0.19375

  Beta  occ. eigenvalues --  -88.72888 -19.06131 -18.93662 -18.93634 -14.31781
  Beta  occ. eigenvalues --  -14.25677 -10.09782 -10.07025 -10.05571 -10.04358
  Beta  occ. eigenvalues --  -10.02326  -7.81502  -5.77821  -5.77463  -5.76984
  Beta  occ. eigenvalues --   -1.01208  -0.97271  -0.84192  -0.76044  -0.72944
  Beta  occ. eigenvalues --   -0.62479  -0.59640  -0.56422  -0.49391  -0.43412
  Beta  occ. eigenvalues --   -0.40506  -0.39315  -0.37752  -0.36215  -0.34705
  Beta  occ. eigenvalues --   -0.31879  -0.30996  -0.30539  -0.29543  -0.25877
  Beta  occ. eigenvalues --   -0.24510  -0.22361  -0.20889  -0.20761  -0.15490
  Beta  occ. eigenvalues --   -0.11569  -0.11510  -0.09755  -0.09489  -0.08614
  Beta virt. eigenvalues --    0.07006   0.08863   0.09173   0.10273   0.11225
  Beta virt. eigenvalues --    0.11882   0.13647   0.15084   0.15558   0.16035
  Beta virt. eigenvalues --    0.16927   0.17162   0.17754   0.18502   0.19216

 Mulliken charges and spin densities:
               1          2
     1  C   -0.670365  -0.081530
     2  C    0.924725   0.191158
     3  S   -0.555725   0.108994
     4  C   -0.905600  -0.062153
     5  C    1.038776   0.280535
     6  N   -0.228262   0.196039
     7  O   -0.242510   0.177738
     8  O   -0.177104   0.178811
     9  C   -0.725124  -0.028807
    10  N   -0.360423  -0.010589
    11  O   -0.166867   0.002822
    12  H    0.090182   0.004332
    13  H    0.213146  -0.013842
    14  H    0.128218   0.054514
    15  H    0.132790  -0.001757
    16  H    0.241169   0.003962
    17  H    0.262975  -0.000226
 Sum of Mulliken charges =  -1.00000   1.00000

 Dipole moment (field-independent basis, Debye):
    X=             -9.5685    Y=              1.9525    Z=              0.0935  Tot=              9.7661
 Quadrupole moment (field-independent basis, Debye-Ang):
   XX=           -124.9242   YY=            -81.3565   ZZ=            -75.3505
   XY=              9.3784   XZ=             -0.0817   YZ=             -0.4493

 Summary of Natural Population Analysis:

                                       Natural Population
                Natural  -----------------------------------------------
    Atom  No    Charge         Core      Valence    Rydberg      Total
 -----------------------------------------------------------------------
      C    1   -0.16029      0.99949     2.15076    0.01005     3.16029
      C    2   -0.05850      0.99950     2.04607    0.01293     3.05850
      S    3    0.23747      4.99938     2.73909    0.02406     7.76253
      C    4   -0.03266      0.99942     2.01825    0.01499     3.03266
      C    5   -0.07655      0.99949     2.06562    0.01144     3.07655
      N    6    0.28904      0.99966     2.18321    0.02808     3.21096
      O    7   -0.19717      0.99990     3.18950    0.00777     4.19717
      O    8   -0.19582      0.99990     3.18818    0.00774     4.19582
      C    9   -0.10482      0.99957     2.09316    0.01208     3.10482
      N   10   -0.17638      0.99974     2.66312    0.01352     3.67638
      O   11   -0.30727      0.99991     3.29926    0.00810     4.30727
      H   12    0.09609      0.00000     0.40268    0.00123     0.40391
      H   13    0.11004      0.00000     0.38865    0.00131     0.38996
      H   14    0.09661      0.00000     0.40093    0.00246     0.40339
      H   15    0.08759      0.00000     0.41076    0.00165     0.41241
      H   16    0.16455      0.00000     0.33331    0.00214     0.33545
      H   17    0.22806      0.00000     0.26927    0.00267     0.27194
 =======================================================================
   * Total *    0.00000     14.99596    29.84182    0.16222    45.00000

 Normal termination of Gaussian 16 at Tue Dec  8 19:24:01 2020.
