 Gaussian 16, Revision A.03,

 -----------------------------------------------------------
 # opt freq B3LYP/6-31G(d) empiricaldispersion=gd3bj scf=xqc
 -----------------------------------------------------------

 -------------------------------
 CID_105749617_JID_5154_neutraal
 -------------------------------
 Symbolic Z-matrix:
 Charge =  0 Multiplicity = 1

 SCF Done:  E(RB3LYP) =  -616.965165816     A.U. after   14 cycles
 SCF Done:  E(RB3LYP) =  -616.971059935     A.U. after   12 cycles
 SCF Done:  E(RB3LYP) =  -616.971635003     A.U. after   11 cycles
 SCF Done:  E(RB3LYP) =  -616.971818045     A.U. after   11 cycles
 SCF Done:  E(RB3LYP) =  -616.971901809     A.U. after   11 cycles
 SCF Done:  E(RB3LYP) =  -616.971954260     A.U. after    9 cycles
 SCF Done:  E(RB3LYP) =  -616.971993611     A.U. after   10 cycles
 SCF Done:  E(RB3LYP) =  -616.972002895     A.U. after   10 cycles
 SCF Done:  E(RB3LYP) =  -616.972006735     A.U. after    9 cycles
 SCF Done:  E(RB3LYP) =  -616.972007768     A.U. after    8 cycles
 SCF Done:  E(RB3LYP) =  -616.972008080     A.U. after    7 cycles
 SCF Done:  E(RB3LYP) =  -616.972008152     A.U. after    6 cycles
 Optimization completed.
    -- Stationary point found.
 Normal termination of Gaussian 16 at Thu Dec 10 14:47:27 2020.

 --------------------------------------------------------------------
 #N Geom=AllCheck Guess=TCheck SCRF=Check GenChk RB3LYP/6-31G(d) Freq
 --------------------------------------------------------------------

 Structure from the checkpoint file:  "JID_5154.chk"
 -------------------------------
 CID_105749617_JID_5154_neutraal
 -------------------------------
 Charge =  0 Multiplicity = 1

 SCF Done:  E(RB3LYP) =  -616.972008152     A.U. after    1 cycles

  Exact polarizability: 183.506   8.358 165.201  16.403  -1.547  99.721
 Approx polarizability: 246.352  19.226 257.571  32.846  -5.049 154.280

                      1                      2                      3
                      A                      A                      A
 Frequencies --     41.8153                45.0299                53.1710
 Red. masses --      3.0261                 3.4015                 3.9729
 Frc consts  --      0.0031                 0.0041                 0.0066
 IR Inten    --      0.0117                 0.2810                 0.1574

                      4                      5                      6
                      A                      A                      A
 Frequencies --    130.1994               154.8810               171.5932
 Red. masses --      3.3312                 3.2536                 2.8143
 Frc consts  --      0.0333                 0.0460                 0.0488
 IR Inten    --      1.3079                 1.6689                 2.1114

                      7                      8                      9
                      A                      A                      A
 Frequencies --    198.3918               210.1911               220.6977
 Red. masses --      1.6261                 1.2651                 1.8081
 Frc consts  --      0.0377                 0.0329                 0.0519
 IR Inten    --      6.9818                 0.2137                 0.5953

                     10                     11                     12
                      A                      A                      A
 Frequencies --    233.2793               261.1492               282.3363
 Red. masses --      1.2722                 1.4146                 1.1249
 Frc consts  --      0.0408                 0.0568                 0.0528
 IR Inten    --      0.2492                 0.4348                18.8744

                     13                     14                     15
                      A                      A                      A
 Frequencies --    291.8131               318.3835               334.4154
 Red. masses --      2.4744                 3.1311                 3.4084
 Frc consts  --      0.1241                 0.1870                 0.2246
 IR Inten    --      7.2840                 1.8595                 3.4928

                     16                     17                     18
                      A                      A                      A
 Frequencies --    362.7401               381.5894               385.0798
 Red. masses --      2.2231                 2.3425                 2.2636
 Frc consts  --      0.1723                 0.2010                 0.1978
 IR Inten    --      0.0095                 4.2749                12.1474

                     19                     20                     21
                      A                      A                      A
 Frequencies --    446.5951               457.6479               466.7785
 Red. masses --      2.1021                 2.2002                 3.5037
 Frc consts  --      0.2470                 0.2715                 0.4498
 IR Inten    --     69.2798                 4.9969                 1.6452

                     22                     23                     24
                      A                      A                      A
 Frequencies --    484.3355               518.4228               573.0763
 Red. masses --      2.5738                 2.6496                 3.1825
 Frc consts  --      0.3557                 0.4196                 0.6158
 IR Inten    --     22.9938                 5.3227                22.3374

                     25                     26                     27
                      A                      A                      A
 Frequencies --    617.1753               666.3974               684.3508
 Red. masses --      2.2191                 2.5341                 2.4361
 Frc consts  --      0.4980                 0.6630                 0.6722
 IR Inten    --    161.3889               128.3578                68.2541

                     28                     29                     30
                      A                      A                      A
 Frequencies --    693.4947               720.6482               747.9282
 Red. masses --      3.2770                 2.8628                 3.5194
 Frc consts  --      0.9286                 0.8760                 1.1599
 IR Inten    --      1.1479                12.1415                 6.2600

                     31                     32                     33
                      A                      A                      A
 Frequencies --    769.7599               788.6948               793.5356
 Red. masses --      2.5839                 1.8869                 2.2967
 Frc consts  --      0.9020                 0.6916                 0.8521
 IR Inten    --      1.2857                11.6733                22.2293

                     34                     35                     36
                      A                      A                      A
 Frequencies --    829.0637               892.1538               919.5994
 Red. masses --      1.7102                 2.3081                 1.4020
 Frc consts  --      0.6926                 1.0824                 0.6985
 IR Inten    --     61.6608                 3.3667                 0.6680

                     37                     38                     39
                      A                      A                      A
 Frequencies --    921.6558               952.4210               981.7929
 Red. masses --      1.2652                 1.8057                 1.9372
 Frc consts  --      0.6332                 0.9650                 1.1002
 IR Inten    --      0.7759                 0.7221                 5.6191

                     40                     41                     42
                      A                      A                      A
 Frequencies --    983.0504               997.7206              1023.8587
 Red. masses --      1.4149                 1.9352                 1.6718
 Frc consts  --      0.8056                 1.1350                 1.0326
 IR Inten    --     10.4247                12.8563                17.4194

                     43                     44                     45
                      A                      A                      A
 Frequencies --   1059.5424              1068.9250              1073.6223
 Red. masses --      1.5637                 1.6581                 1.4468
 Frc consts  --      1.0343                 1.1162                 0.9826
 IR Inten    --      2.1457                 0.8414                 1.3281

                     46                     47                     48
                      A                      A                      A
 Frequencies --   1084.7661              1093.2044              1135.0810
 Red. masses --      1.3597                 1.9577                 1.4611
 Frc consts  --      0.9427                 1.3785                 1.1091
 IR Inten    --      8.2590                 3.6502                 4.8075

                     49                     50                     51
                      A                      A                      A
 Frequencies --   1144.0830              1159.0489              1172.3471
 Red. masses --      1.5769                 1.5321                 1.7316
 Frc consts  --      1.2161                 1.2127                 1.4022
 IR Inten    --      4.3453                17.9011                 8.8179

                     52                     53                     54
                      A                      A                      A
 Frequencies --   1194.2278              1225.3200              1262.1933
 Red. masses --      1.6994                 3.0482                 1.7958
 Frc consts  --      1.4280                 2.6965                 1.6856
 IR Inten    --      7.3397                 7.6668                71.4304

                     55                     56                     57
                      A                      A                      A
 Frequencies --   1293.2448              1307.4816              1331.5501
 Red. masses --      2.1131                 1.4492                 1.5905
 Frc consts  --      2.0823                 1.4596                 1.6615
 IR Inten    --      5.8286                10.5532                14.6541

                     58                     59                     60
                      A                      A                      A
 Frequencies --   1353.1805              1355.8709              1387.4550
 Red. masses --      2.4555                 1.8719                 2.9849
 Frc consts  --      2.6491                 2.0276                 3.3854
 IR Inten    --     34.1217                 3.6747                58.5332

                     61                     62                     63
                      A                      A                      A
 Frequencies --   1406.0371              1434.0863              1440.2271
 Red. masses --      1.6867                 1.3524                 1.4014
 Frc consts  --      1.9646                 1.6387                 1.7127
 IR Inten    --     37.9219                 5.9643                 9.6633

                     64                     65                     66
                      A                      A                      A
 Frequencies --   1443.1023              1449.1431              1500.2172
 Red. masses --      1.2857                 1.2905                 1.6345
 Frc consts  --      1.5775                 1.5968                 2.1674
 IR Inten    --      0.6337                 1.3723                 6.4692

                     67                     68                     69
                      A                      A                      A
 Frequencies --   1505.8435              1515.4992              1515.7250
 Red. masses --      1.8495                 1.0822                 1.1129
 Frc consts  --      2.4710                 1.4644                 1.5065
 IR Inten    --     24.8176                 4.5870                 3.0119

                     70                     71                     72
                      A                      A                      A
 Frequencies --   1517.9385              1522.8433              1528.5835
 Red. masses --      1.1464                 1.0967                 1.2250
 Frc consts  --      1.5563                 1.4984                 1.6864
 IR Inten    --      1.8404                 3.8949                15.3736

                     73                     74                     75
                      A                      A                      A
 Frequencies --   1538.9946              1542.0393              1544.6097
 Red. masses --      1.0584                 1.2525                 1.1809
 Frc consts  --      1.4770                 1.7547                 1.6600
 IR Inten    --      5.8676                20.5799                 1.7778

                     76                     77                     78
                      A                      A                      A
 Frequencies --   1579.9790              1645.7429              1680.9173
 Red. masses --      2.3113                 4.8147                 3.0408
 Frc consts  --      3.3994                 7.6831                 5.0621
 IR Inten    --    130.0902                71.5724                86.9945

                     79                     80                     81
                      A                      A                      A
 Frequencies --   1695.6398              3001.7621              3003.8575
 Red. masses --      1.3997                 1.0689                 1.0483
 Frc consts  --      2.3711                 5.6746                 5.5732
 IR Inten    --    144.2211                54.6331                57.6180

                     82                     83                     84
                      A                      A                      A
 Frequencies --   3029.4837              3034.9693              3051.1175
 Red. masses --      1.0367                 1.0393                 1.0928
 Frc consts  --      5.6057                 5.6403                 5.9940
 IR Inten    --     29.0332                68.1875                31.8290

                     85                     86                     87
                      A                      A                      A
 Frequencies --   3071.5310              3084.4936              3089.3773
 Red. masses --      1.0943                 1.1007                 1.1014
 Frc consts  --      6.0828                 6.1702                 6.1936
 IR Inten    --     30.3375                10.7401                58.0362

                     88                     89                     90
                      A                      A                      A
 Frequencies --   3105.3547              3122.9406              3132.9896
 Red. masses --      1.1014                 1.0957                 1.0846
 Frc consts  --      6.2578                 6.2961                 6.2723
 IR Inten    --     30.2395                19.0929                25.9528

                     91                     92                     93
                      A                      A                      A
 Frequencies --   3141.1063              3144.7849              3169.6708
 Red. masses --      1.0962                 1.0609                 1.0868
 Frc consts  --      6.3724                 6.1819                 6.4330
 IR Inten    --     15.5951                14.5745                19.9630

                     94                     95                     96
                      A                      A                      A
 Frequencies --   3189.9660              3211.7821              3233.2122
 Red. masses --      1.0939                 1.0889                 1.1147
 Frc consts  --      6.5586                 6.6182                 6.8654
 IR Inten    --     31.4224                10.2644                 8.3052

                     97                     98                     99
                      A                      A                      A
 Frequencies --   3540.5852              3619.0119              3638.4332
 Red. masses --      1.0480                 1.0760                 1.0973
 Frc consts  --      7.7406                 8.3033                 8.5585
 IR Inten    --      6.1901                12.0861                 5.2475

 - Thermochemistry -
 -------------------
 Temperature   298.150 Kelvin.  Pressure   1.00000 Atm.
 Atom     1 has atomic number  6 and mass  12.00000

 Molecular mass:   204.16265 amu.
 Principal axes and moments of inertia in atomic units:
                           1         2         3
     Eigenvalues --  1819.115755104.025546300.40864
           X            0.99998  -0.00631   0.00096
           Y            0.00631   0.99998   0.00093
           Z           -0.00097  -0.00092   1.00000
 This molecule is an asymmetric top.
 Rotational symmetry number  1.
 Warning -- assumption of classical behavior for rotation
           may cause significant error
 Rotational temperatures (Kelvin)      0.04761     0.01697     0.01375
 Rotational constants (GHZ):           0.99210     0.35359     0.28645
 Zero-point vibrational energy     815444.4 (Joules/Mol)
                                  194.89589 (Kcal/Mol)
 Warning -- explicit consideration of  25 degrees of freedom as
           vibrations may cause significant error
 Vibrational temperatures:     60.16    64.79    76.50   187.33   222.84
          (Kelvin)            246.88   285.44   302.42   317.53   335.64
                              375.74   406.22   419.85   458.08   481.15
                              521.90   549.02   554.04   642.55   658.45
                              671.59   696.85   745.89   824.53   887.98
                              958.80   984.63   997.78  1036.85  1076.10
                             1107.51  1134.76  1141.72  1192.84  1283.61
                             1323.10  1326.06  1370.32  1412.58  1414.39
                             1435.50  1473.10  1524.45  1537.94  1544.70
                             1560.74  1572.88  1633.13  1646.08  1667.61
                             1686.75  1718.23  1762.96  1816.01  1860.69
                             1881.17  1915.80  1946.92  1950.80  1996.24
                             2022.97  2063.33  2072.17  2076.30  2084.99
                             2158.48  2166.57  2180.47  2180.79  2183.97
                             2191.03  2199.29  2214.27  2218.65  2222.35
                             2273.24  2367.86  2418.47  2439.65  4318.87
                             4321.88  4358.75  4366.64  4389.88  4419.25
                             4437.90  4444.92  4467.91  4493.21  4507.67
                             4519.35  4524.64  4560.45  4589.65  4621.04
                             4651.87  5094.11  5206.95  5234.89

 Zero-point correction=                           0.310586 (Hartree/Particle)
 Thermal correction to Energy=                    0.326318
 Thermal correction to Enthalpy=                  0.327263
 Thermal correction to Gibbs Free Energy=         0.268189
 Sum of electronic and zero-point Energies=           -616.661422
 Sum of electronic and thermal Energies=              -616.645690
 Sum of electronic and thermal Enthalpies=            -616.644746
 Sum of electronic and thermal Free Energies=         -616.703819

                     E (Thermal)             CV                S
                      KCal/Mol        Cal/Mol-Kelvin    Cal/Mol-Kelvin
 Total                  204.768             61.752            124.331
 Electronic               0.000              0.000              0.000
 Translational            0.889              2.981             41.846
 Rotational               0.889              2.981             32.437
 Vibrational            202.990             55.790             50.049
 Vibration     1          0.594              1.980              5.171
 Vibration     2          0.595              1.979              5.025
 Vibration     3          0.596              1.976              4.696
 Vibration     4          0.612              1.923              2.943
 Vibration     5          0.620              1.897              2.611
 Vibration     6          0.626              1.877              2.418
 Vibration     7          0.637              1.842              2.148
 Vibration     8          0.642              1.825              2.042
 Vibration     9          0.647              1.810              1.953
 Vibration    10          0.654              1.790              1.854
 Vibration    11          0.669              1.744              1.654
 Vibration    12          0.681              1.706              1.519
 Vibration    13          0.687              1.689              1.463
 Vibration    14          0.705              1.638              1.318
 Vibration    15          0.716              1.607              1.239
 Vibration    16          0.737              1.549              1.110
 Vibration    17          0.751              1.509              1.033
 Vibration    18          0.754              1.502              1.019
 Vibration    19          0.806              1.368              0.806
 Vibration    20          0.816              1.344              0.773
 Vibration    21          0.824              1.324              0.747
 Vibration    22          0.840              1.285              0.698
 Vibration    23          0.873              1.209              0.614
 Vibration    24          0.929              1.089              0.498
 Vibration    25          0.977              0.996              0.421

 Optimization completed.
    -- Stationary point found.
 Normal termination of Gaussian 16 at Thu Dec 10 14:57:56 2020.

 ----------------------------------------------------------------------
 # B3LYP/6-311++G(d,p) empiricaldispersion=gd3bj scf=xqc pop=npa geom=c
 heck
 ----------------------------------------------------------------------

 ---------------------------------------
 CID_105749617_JID_5154_Energie_neutraal
 ---------------------------------------
 Structure from the checkpoint file:  "JID_5154.chk"
 Charge =  0 Multiplicity = 1

 SCF Done:  E(RB3LYP) =  -617.146327144     A.U. after   14 cycles
 Normal termination of Gaussian 16 at Thu Dec 10 15:02:11 2020.

 ----------------------------------------------------------------------
 # B3LYP/6-311++G(d,p) empiricaldispersion=gd3bj scf=xqc pop=npa geom=c
 heck
 ----------------------------------------------------------------------

 -------------------------------------
 CID_105749617_JID_5154_Energie_kation
 -------------------------------------
 Structure from the checkpoint file:  "JID_5154.chk"
 Charge =  1 Multiplicity = 2

 SCF Done:  E(UB3LYP) =  -616.893733185     A.U. after   22 cycles
 Normal termination of Gaussian 16 at Thu Dec 10 15:11:03 2020.
 Gaussian 16:  ES64L-G16RevA.03 25-Dec-2016

 ----------------------------------------------------------------------
 # B3LYP/6-311++G(d,p) empiricaldispersion=gd3bj scf=xqc pop=npa geom=c
 heck
 ----------------------------------------------------------------------

 ------------------------------------
 CID_105749617_JID_5154_Energie_anion
 ------------------------------------
 Structure from the checkpoint file:  "JID_5154.chk"
 Charge = -1 Multiplicity = 2

                         Standard orientation:
 ---------------------------------------------------------------------
 Center     Atomic      Atomic             Coordinates (Angstroms)
 Number     Number       Type             X           Y           Z
 ---------------------------------------------------------------------
      1          6           0       -1.719332    2.873587   -0.172674
      2          6           0       -1.995546    1.393523   -0.111061
      3          6           0       -0.999671    0.490949    0.337231
      4          6           0       -1.264271   -0.883904    0.367724
      5          6           0       -2.509527   -1.387598   -0.033226
      6          6           0       -3.500101   -0.498938   -0.468069
      7          6           0       -3.224967    0.866850   -0.499560
      8          7           0       -2.769321   -2.762846    0.058190
      9          7           0        0.248674    0.996497    0.705820
     10          6           0        1.196769    0.203544    1.476941
     11          6           0        2.096769   -0.712491    0.648677
     12          6           0        1.893064   -0.929565   -0.834020
     13          6           0        3.118875   -0.196127   -0.346961
     14          6           0        3.220993    1.296065   -0.603756
     15          6           0        4.449927   -0.922755   -0.406245
     16          1           0       -1.521340    3.307804    0.820047
     17          1           0       -0.847211    3.102897   -0.801001
     18          1           0       -2.576886    3.410840   -0.588166
     19          1           0       -0.495207   -1.577194    0.689245
     20          1           0       -4.472039   -0.873392   -0.778108
     21          1           0       -3.996534    1.551855   -0.844446
     22          1           0       -1.942829   -3.344099   -0.016272
     23          1           0       -3.491887   -3.086188   -0.573913
     24          1           0        0.226614    1.970718    0.968585
     25          1           0        1.818525    0.907475    2.042254
     26          1           0        0.662455   -0.408158    2.219959
     27          1           0        2.419313   -1.587770    1.211939
     28          1           0        1.112716   -0.343861   -1.309417
     29          1           0        2.006904   -1.936826   -1.227729
     30          1           0        2.235318    1.767458   -0.617697
     31          1           0        3.828878    1.788546    0.167357
     32          1           0        3.702755    1.485513   -1.571319
     33          1           0        5.152185   -0.523344    0.337159
     34          1           0        4.331019   -1.994748   -0.211636
     35          1           0        4.913883   -0.811920   -1.394923
 ---------------------------------------------------------------------

 SCF Done:  E(UB3LYP) =  -617.133627007     A.U. after   32 cycles

 The electronic state is 2-A.
 Alpha  occ. eigenvalues --  -14.22232 -14.21512 -10.10982 -10.10942 -10.10526
 Alpha  occ. eigenvalues --  -10.08330 -10.07433 -10.07303 -10.07099 -10.06865
 Alpha  occ. eigenvalues --  -10.06497 -10.06305 -10.05842 -10.05781 -10.05757
 Alpha  occ. eigenvalues --   -0.83934  -0.81536  -0.76858  -0.73164  -0.66152
 Alpha  occ. eigenvalues --   -0.64551  -0.62882  -0.59565  -0.59055  -0.57348
 Alpha  occ. eigenvalues --   -0.50960  -0.49316  -0.47322  -0.44017  -0.43085
 Alpha  occ. eigenvalues --   -0.40820  -0.39513  -0.38210  -0.36380  -0.35878
 Alpha  occ. eigenvalues --   -0.34269  -0.33487  -0.32960  -0.32797  -0.31956
 Alpha  occ. eigenvalues --   -0.30865  -0.29872  -0.29085  -0.28624  -0.27987
 Alpha  occ. eigenvalues --   -0.27645  -0.26162  -0.25540  -0.24712  -0.24466
 Alpha  occ. eigenvalues --   -0.22219  -0.18508  -0.18312  -0.16533  -0.11817
 Alpha  occ. eigenvalues --   -0.09484   0.04131
 Alpha virt. eigenvalues --    0.05732   0.06449   0.07579   0.07924   0.08069
 Alpha virt. eigenvalues --    0.09218   0.09461   0.09835   0.10183   0.10303
 Alpha virt. eigenvalues --    0.10891   0.11435   0.11542   0.12166   0.12458

  Beta  occ. eigenvalues --  -14.22217 -14.21471 -10.10982 -10.10941 -10.10505
  Beta  occ. eigenvalues --  -10.08329 -10.07424 -10.07277 -10.07095 -10.06865
  Beta  occ. eigenvalues --  -10.06475 -10.06291 -10.05814 -10.05772 -10.05745
  Beta  occ. eigenvalues --   -0.83909  -0.81484  -0.76841  -0.73144  -0.66120
  Beta  occ. eigenvalues --   -0.64527  -0.62852  -0.59523  -0.59010  -0.57302
  Beta  occ. eigenvalues --   -0.50935  -0.49278  -0.47286  -0.43974  -0.43036
  Beta  occ. eigenvalues --   -0.40783  -0.39465  -0.38175  -0.36347  -0.35841
  Beta  occ. eigenvalues --   -0.34242  -0.33450  -0.32936  -0.32769  -0.31934
  Beta  occ. eigenvalues --   -0.30841  -0.29844  -0.29060  -0.28597  -0.27958
  Beta  occ. eigenvalues --   -0.27620  -0.26133  -0.25512  -0.24687  -0.24444
  Beta  occ. eigenvalues --   -0.22196  -0.18491  -0.18292  -0.16517  -0.11794
  Beta  occ. eigenvalues --   -0.09468
  Beta virt. eigenvalues --    0.06241   0.06863   0.06940   0.08010   0.08392
  Beta virt. eigenvalues --    0.08615   0.09368   0.09640   0.10120   0.10573
  Beta virt. eigenvalues --    0.10681   0.11083   0.11496   0.11771   0.12417

 Mulliken charges and spin densities:
               1          2
     1  C    1.452463  -2.238603
     2  C   -0.877816   1.363165
     3  C   -1.536942   1.225256
     4  C    0.903507  -1.022500
     5  C    0.423359  -0.804857
     6  C   -0.807169   0.835489
     7  C    0.602496  -0.955313
     8  N   -0.243694  -0.047512
     9  N   -0.138942   0.185016
    10  C    0.463527  -1.188216
    11  C   -0.351359   0.688709
    12  C    0.331487  -0.979180
    13  C   -0.397198   0.830697
    14  C    0.010342  -0.623878
    15  C    0.558907  -1.092890
    16  H   -0.218032   0.375295
    17  H    0.035845   0.122478
    18  H   -0.028520   0.172829
    19  H    0.289411  -0.123414
    20  H   -0.232454   0.367810
    21  H    0.052312   0.057963
    22  H   -0.109487   0.346274
    23  H   -0.097100   0.346567
    24  H    0.093297   0.200126
    25  H   -0.371745   0.556277
    26  H    0.001970   0.166419
    27  H   -0.286730   0.523881
    28  H    0.296239  -0.124268
    29  H   -0.349723   0.536207
    30  H   -0.126984   0.295664
    31  H   -0.160865   0.302131
    32  H   -0.004324   0.131779
    33  H   -0.056770   0.195841
    34  H   -0.168508   0.295350
    35  H    0.049197   0.079406
 Sum of Mulliken charges =  -1.00000   1.00000

 Dipole moment (field-independent basis, Debye):
    X=             -1.2098    Y=              1.7323    Z=             -1.2171  Tot=              2.4384
 Quadrupole moment (field-independent basis, Debye-Ang):
   XX=           -162.5296   YY=           -151.4171   ZZ=           -125.5693
   XY=             -8.2546   XZ=             -1.5862   YZ=             -4.7803

 Summary of Natural Population Analysis:

                                       Natural Population
                Natural  -----------------------------------------------
    Atom  No    Charge         Core      Valence    Rydberg      Total
 -----------------------------------------------------------------------
      C    1   -0.29598      0.99964     2.29048    0.00586     3.29598
      C    2   -0.05694      0.99949     2.04782    0.00964     3.05694
      C    3    0.10255      0.99946     1.88719    0.01081     2.89745
      C    4   -0.15269      0.99948     2.14503    0.00818     3.15269
      C    5    0.09200      0.99950     1.89770    0.01080     2.90800
      C    6   -0.14752      0.99952     2.13800    0.01000     3.14752
      C    7   -0.08544      0.99953     2.07747    0.00844     3.08544
      N    8   -0.39781      0.99972     2.88772    0.01037     3.89781
      N    9   -0.31854      0.99967     2.80738    0.01149     3.81854
      C   10   -0.09016      0.99960     2.07821    0.01235     3.09016
      C   11   -0.11501      0.99954     2.10449    0.01098     3.11501
      C   12   -0.19302      0.99957     2.18373    0.00972     3.19302
      C   13   -0.04688      0.99956     2.03559    0.01173     3.04688
      C   14   -0.28573      0.99962     2.27968    0.00642     3.28573
      C   15   -0.27639      0.99963     2.27185    0.00491     3.27639
      H   16    0.09942      0.00000     0.39920    0.00137     0.40058
      H   17    0.10264      0.00000     0.39609    0.00127     0.39736
      H   18    0.10222      0.00000     0.39696    0.00082     0.39778
      H   19    0.10466      0.00000     0.39339    0.00195     0.39534
      H   20    0.09644      0.00000     0.40233    0.00123     0.40356
      H   21    0.09484      0.00000     0.40430    0.00085     0.40516
      H   22    0.18588      0.00000     0.31165    0.00247     0.31412
      H   23    0.18364      0.00000     0.31395    0.00241     0.31636
      H   24    0.19199      0.00000     0.30493    0.00308     0.30801
      H   25    0.10182      0.00000     0.39660    0.00158     0.39818
      H   26    0.09306      0.00000     0.40539    0.00156     0.40694
      H   27    0.10232      0.00000     0.39609    0.00159     0.39768
      H   28    0.10930      0.00000     0.38922    0.00148     0.39070
      H   29    0.10237      0.00000     0.39641    0.00122     0.39763
      H   30    0.10755      0.00000     0.39084    0.00161     0.39245
      H   31    0.09818      0.00000     0.40066    0.00117     0.40182
      H   32    0.09726      0.00000     0.40185    0.00089     0.40274
      H   33    0.09781      0.00000     0.40104    0.00115     0.40219
      H   34    0.09987      0.00000     0.39895    0.00118     0.40013
      H   35    0.09628      0.00000     0.40271    0.00101     0.40372
 =======================================================================
   * Total *   -0.00000     14.99351    40.83489    0.17160    56.00000

 Normal termination of Gaussian 16 at Thu Dec 10 15:24:44 2020.
