 Gaussian 16, Revision A.03,

 -----------------------------------------------------------
 # opt freq B3LYP/6-31G(d) empiricaldispersion=gd3bj scf=xqc
 -----------------------------------------------------------

 ------------------------------
 CID_28958288_JID_5650_neutraal
 ------------------------------
 Symbolic Z-matrix:
 Charge =  0 Multiplicity = 1

 SCF Done:  E(RB3LYP) =  -633.205958663     A.U. after   15 cycles
 SCF Done:  E(RB3LYP) =  -633.209752239     A.U. after   12 cycles
 SCF Done:  E(RB3LYP) =  -633.210154303     A.U. after   11 cycles
 SCF Done:  E(RB3LYP) =  -633.210154722     A.U. after   11 cycles
 SCF Done:  E(RB3LYP) =  -633.209859207     A.U. after   12 cycles
 SCF Done:  E(RB3LYP) =  -633.210305225     A.U. after   10 cycles
 SCF Done:  E(RB3LYP) =  -633.210330392     A.U. after   10 cycles
 SCF Done:  E(RB3LYP) =  -633.210336098     A.U. after   10 cycles
 SCF Done:  E(RB3LYP) =  -633.210337467     A.U. after    9 cycles
 SCF Done:  E(RB3LYP) =  -633.210338151     A.U. after    8 cycles
 SCF Done:  E(RB3LYP) =  -633.210338273     A.U. after    7 cycles
 SCF Done:  E(RB3LYP) =  -633.210338293     A.U. after    6 cycles
 Optimization completed.
    -- Stationary point found.
 Normal termination of Gaussian 16 at Thu Dec 10 16:31:35 2020.

 --------------------------------------------------------------------
 #N Geom=AllCheck Guess=TCheck SCRF=Check GenChk RB3LYP/6-31G(d) Freq
 --------------------------------------------------------------------

 Structure from the checkpoint file:  "JID_5650.chk"
 ------------------------------
 CID_28958288_JID_5650_neutraal
 ------------------------------
 Charge =  0 Multiplicity = 1

 SCF Done:  E(RB3LYP) =  -633.210338293     A.U. after    1 cycles

  Exact polarizability: 191.714 -16.689 164.692  18.578   9.752  77.213
 Approx polarizability: 290.664 -39.201 287.498  39.796  23.833 121.789

                      1                      2                      3
                      A                      A                      A
 Frequencies --     31.7507                49.4381                70.6685
 Red. masses --      3.6770                 4.3866                 2.7987
 Frc consts  --      0.0022                 0.0063                 0.0082
 IR Inten    --      0.3324                 0.7931                 0.9157

                      4                      5                      6
                      A                      A                      A
 Frequencies --    104.0229               155.8530               181.1449
 Red. masses --      6.0152                 4.7947                 3.1640
 Frc consts  --      0.0383                 0.0686                 0.0612
 IR Inten    --      0.9084                 4.3447                 9.0533

                      7                      8                      9
                      A                      A                      A
 Frequencies --    203.0082               258.2209               282.9068
 Red. masses --      3.8657                 3.7225                 3.4866
 Frc consts  --      0.0939                 0.1462                 0.1644
 IR Inten    --      1.6372                 0.9269                 0.5738

                     10                     11                     12
                      A                      A                      A
 Frequencies --    318.7814               356.8976               402.8881
 Red. masses --      3.3937                 2.6046                 5.1371
 Frc consts  --      0.2032                 0.1955                 0.4913
 IR Inten    --      0.2369                 0.8790                 0.9913

                     13                     14                     15
                      A                      A                      A
 Frequencies --    422.6934               443.6595               510.2711
 Red. masses --      2.8311                 2.8874                 3.4475
 Frc consts  --      0.2980                 0.3349                 0.5289
 IR Inten    --      0.9822                 6.6414                 7.2216

                     16                     17                     18
                      A                      A                      A
 Frequencies --    584.8622               603.1445               619.6709
 Red. masses --      4.7915                 3.6215                 5.8022
 Frc consts  --      0.9657                 0.7762                 1.3127
 IR Inten    --      3.3436                 0.8479                18.8738

                     19                     20                     21
                      A                      A                      A
 Frequencies --    633.8886               732.6908               737.4300
 Red. masses --      5.8389                 1.9199                 2.0418
 Frc consts  --      1.3823                 0.6073                 0.6542
 IR Inten    --     21.2182                17.0596                17.7090

                     22                     23                     24
                      A                      A                      A
 Frequencies --    779.6862               781.9012               782.2883
 Red. masses --      2.8013                 1.3055                 3.3055
 Frc consts  --      1.0033                 0.4702                 1.1918
 IR Inten    --      5.4030                 1.7445                16.8456

                     25                     26                     27
                      A                      A                      A
 Frequencies --    814.9185               827.9881               851.8892
 Red. masses --      1.7074                 1.5089                 1.6589
 Frc consts  --      0.6680                 0.6095                 0.7093
 IR Inten    --      1.7883                39.6417                 8.9676

                     28                     29                     30
                      A                      A                      A
 Frequencies --    855.7280               865.7841               905.5076
 Red. masses --      1.4427                 3.6669                 1.3894
 Frc consts  --      0.6224                 1.6194                 0.6712
 IR Inten    --      5.1823                14.7544                 9.6040

                     31                     32                     33
                      A                      A                      A
 Frequencies --    919.5171               949.9897               962.5458
 Red. masses --      1.6416                 1.2769                 2.6465
 Frc consts  --      0.8178                 0.6790                 1.4447
 IR Inten    --      2.2358                 0.0264                17.8655

                     34                     35                     36
                      A                      A                      A
 Frequencies --    983.8444              1012.4719              1029.6390
 Red. masses --      3.1723                 2.5980                 1.7915
 Frc consts  --      1.8092                 1.5691                 1.1190
 IR Inten    --      4.2440                 9.9705                 0.1071

                     37                     38                     39
                      A                      A                      A
 Frequencies --   1060.4428              1069.3864              1085.5942
 Red. masses --      1.5543                 1.6013                 1.3725
 Frc consts  --      1.0298                 1.0789                 0.9530
 IR Inten    --      4.2054                 3.0528                 2.6248

                     40                     41                     42
                      A                      A                      A
 Frequencies --   1111.6417              1142.6550              1150.6522
 Red. masses --      1.5499                 1.1686                 1.4979
 Frc consts  --      1.1285                 0.8990                 1.1685
 IR Inten    --     17.3675                 5.7042                31.2330

                     43                     44                     45
                      A                      A                      A
 Frequencies --   1169.5482              1208.0882              1214.0828
 Red. masses --      1.4862                 1.4272                 2.6503
 Frc consts  --      1.1978                 1.2273                 2.3017
 IR Inten    --      7.4064                 8.5925               104.8431

                     46                     47                     48
                      A                      A                      A
 Frequencies --   1235.8983              1239.9419              1257.7970
 Red. masses --      1.7263                 1.9099                 1.8943
 Frc consts  --      1.5536                 1.7301                 1.7657
 IR Inten    --      9.3853                 3.9873                12.5644

                     49                     50                     51
                      A                      A                      A
 Frequencies --   1292.5402              1356.1628              1365.5812
 Red. masses --      1.4517                 2.0003                 3.7221
 Frc consts  --      1.4290                 2.1675                 4.0895
 IR Inten    --      6.9139                95.3523                38.1000

                     52                     53                     54
                      A                      A                      A
 Frequencies --   1381.2607              1402.6317              1440.2125
 Red. masses --      1.4318                 3.4247                 1.7989
 Frc consts  --      1.6095                 3.9698                 2.1984
 IR Inten    --      9.9983                38.0246                 4.0395

                     55                     56                     57
                      A                      A                      A
 Frequencies --   1443.6152              1462.5421              1496.7572
 Red. masses --      1.5739                 2.2532                 1.0964
 Frc consts  --      1.9325                 2.8397                 1.4471
 IR Inten    --     28.0250                 0.2005                 2.6006

                     58                     59                     60
                      A                      A                      A
 Frequencies --   1500.3417              1516.3998              1534.0969
 Red. masses --      2.1255                 1.4230                 3.1902
 Frc consts  --      2.8190                 1.9279                 4.4236
 IR Inten    --     69.0547                18.3673                41.5893

                     61                     62                     63
                      A                      A                      A
 Frequencies --   1539.8877              1557.8914              1617.7994
 Red. masses --      1.4542                 4.0400                 6.2795
 Frc consts  --      2.0317                 5.7770                 9.6834
 IR Inten    --      6.9456                54.1996                10.3458

                     64                     65                     66
                      A                      A                      A
 Frequencies --   1666.2782              1787.5000              2903.3831
 Red. masses --      6.6925                 9.4660                 1.0833
 Frc consts  --     10.9479                17.8200                 5.3804
 IR Inten    --     85.5853               274.7703               181.1962

                     67                     68                     69
                      A                      A                      A
 Frequencies --   3062.3441              3105.1398              3145.3330
 Red. masses --      1.0593                 1.1058                 1.0520
 Frc consts  --      5.8532                 6.2816                 6.1317
 IR Inten    --     32.3918                 9.9441                18.5832

                     70                     71                     72
                      A                      A                      A
 Frequencies --   3149.5764              3170.4681              3180.8127
 Red. masses --      1.0594                 1.0901                 1.0871
 Frc consts  --      6.1915                 6.4561                 6.4802
 IR Inten    --     13.1903                 7.0417                 7.4346

                     73                     74                     75
                      A                      A                      A
 Frequencies --   3202.3840              3216.3205              3221.4466
 Red. masses --      1.0941                 1.0906                 1.1183
 Frc consts  --      6.6109                 6.6469                 6.8375
 IR Inten    --     23.9308                 2.3144                 0.3194

                     76                     77                     78
                      A                      A                      A
 Frequencies --   3234.9788              3257.0054              3275.5900
 Red. masses --      1.1151                 1.0898                 1.1032
 Frc consts  --      6.8753                 6.8111                 6.9742
 IR Inten    --     19.4816                 0.9092                 5.2932

 - Thermochemistry -
 -------------------
 Temperature   298.150 Kelvin.  Pressure   1.00000 Atm.
 Atom     1 has atomic number  6 and mass  12.00000

 Molecular mass:   199.09971 amu.
 Principal axes and moments of inertia in atomic units:
                           1         2         3
     Eigenvalues --  2032.258454239.608785863.24878
           X            0.99955   0.02985   0.00237
           Y           -0.02986   0.99955   0.00200
           Z           -0.00231  -0.00207   1.00000
 This molecule is an asymmetric top.
 Rotational symmetry number  1.
 Warning -- assumption of classical behavior for rotation
           may cause significant error
 Rotational temperatures (Kelvin)      0.04262     0.02043     0.01477
 Rotational constants (GHZ):           0.88805     0.42569     0.30781
 Zero-point vibrational energy     606863.2 (Joules/Mol)
                                  145.04378 (Kcal/Mol)
 Warning -- explicit consideration of  18 degrees of freedom as
           vibrations may cause significant error
 Vibrational temperatures:     45.68    71.13   101.68   149.67   224.24
          (Kelvin)            260.63   292.08   371.52   407.04   458.66
                              513.50   579.67   608.16   638.33   734.17
                              841.49   867.79   891.57   912.02  1054.18
                             1061.00  1121.79  1124.98  1125.54  1172.49
                             1191.29  1225.68  1231.20  1245.67  1302.82
                             1322.98  1366.82  1384.89  1415.53  1456.72
                             1481.42  1525.74  1538.61  1561.93  1599.40
                             1644.03  1655.53  1682.72  1738.17  1746.79
                             1778.18  1784.00  1809.69  1859.68  1951.22
                             1964.77  1987.33  2018.07  2072.14  2077.04
                             2104.27  2153.50  2158.66  2181.76  2207.22
                             2215.55  2241.46  2327.65  2397.40  2571.81
                             4177.32  4406.03  4467.60  4525.43  4531.54
                             4561.60  4576.48  4607.52  4627.57  4634.94
                             4654.41  4686.10  4712.84

 Zero-point correction=                           0.231142 (Hartree/Particle)
 Thermal correction to Energy=                    0.243771
 Thermal correction to Enthalpy=                  0.244716
 Thermal correction to Gibbs Free Energy=         0.190796
 Sum of electronic and zero-point Energies=           -632.979196
 Sum of electronic and thermal Energies=              -632.966567
 Sum of electronic and thermal Enthalpies=            -632.965623
 Sum of electronic and thermal Free Energies=         -633.019543

                     E (Thermal)             CV                S
                      KCal/Mol        Cal/Mol-Kelvin    Cal/Mol-Kelvin
 Total                  152.969             49.264            113.484
 Electronic               0.000              0.000              0.000
 Translational            0.889              2.981             41.771
 Rotational               0.889              2.981             32.291
 Vibrational            151.191             43.302             39.423
 Vibration     1          0.594              1.983              5.717
 Vibration     2          0.595              1.978              4.840
 Vibration     3          0.598              1.968              4.135
 Vibration     4          0.605              1.946              3.378
 Vibration     5          0.620              1.896              2.600
 Vibration     6          0.630              1.865              2.317
 Vibration     7          0.639              1.836              2.106
 Vibration     8          0.667              1.749              1.674
 Vibration     9          0.682              1.705              1.516
 Vibration    10          0.705              1.638              1.316
 Vibration    11          0.732              1.561              1.136
 Vibration    12          0.768              1.464              0.952
 Vibration    13          0.785              1.421              0.883
 Vibration    14          0.803              1.375              0.815
 Vibration    15          0.865              1.227              0.633
 Vibration    16          0.942              1.064              0.476
 Vibration    17          0.962              1.025              0.444
 Vibration    18          0.980              0.990              0.417

 Optimization completed.
    -- Stationary point found.
 Normal termination of Gaussian 16 at Thu Dec 10 16:40:44 2020.

 ----------------------------------------------------------------------
 # B3LYP/6-311++G(d,p) empiricaldispersion=gd3bj scf=xqc pop=npa geom=c
 heck
 ----------------------------------------------------------------------

 --------------------------------------
 CID_28958288_JID_5650_Energie_neutraal
 --------------------------------------
 Structure from the checkpoint file:  "JID_5650.chk"
 Charge =  0 Multiplicity = 1

 SCF Done:  E(RB3LYP) =  -633.377023412     A.U. after   16 cycles
 Normal termination of Gaussian 16 at Thu Dec 10 16:45:49 2020.

 ----------------------------------------------------------------------
 # B3LYP/6-311++G(d,p) empiricaldispersion=gd3bj scf=xqc pop=npa geom=c
 heck
 ----------------------------------------------------------------------

 ------------------------------------
 CID_28958288_JID_5650_Energie_kation
 ------------------------------------
 Structure from the checkpoint file:  "JID_5650.chk"
 Charge =  1 Multiplicity = 2

 SCF Done:  E(UB3LYP) =  -633.093074667     A.U. after   25 cycles
 Normal termination of Gaussian 16 at Thu Dec 10 16:55:40 2020.
 Gaussian 16:  ES64L-G16RevA.03 25-Dec-2016

 ----------------------------------------------------------------------
 # B3LYP/6-311++G(d,p) empiricaldispersion=gd3bj scf=xqc pop=npa geom=c
 heck
 ----------------------------------------------------------------------

 -----------------------------------
 CID_28958288_JID_5650_Energie_anion
 -----------------------------------
 Structure from the checkpoint file:  "JID_5650.chk"
 Charge = -1 Multiplicity = 2

                         Standard orientation:
 ---------------------------------------------------------------------
 Center     Atomic      Atomic             Coordinates (Angstroms)
 Number     Number       Type             X           Y           Z
 ---------------------------------------------------------------------
      1          6           0       -3.600740   -0.505891    1.071869
      2          6           0       -3.837553   -1.737217    0.231200
      3          6           0       -2.474633   -1.093469    0.262140
      4          6           0       -1.972595   -0.357646   -0.961203
      5          7           0       -1.031144    0.704975   -0.637786
      6          6           0       -1.346620    2.032753   -0.435424
      7          6           0       -0.245164    2.726729    0.004177
      8          6           0        0.826887    1.784487    0.103050
      9          6           0        0.297975    0.516979   -0.298451
     10          6           0        1.067797   -0.639044   -0.310103
     11          6           0        2.406556   -0.528388    0.079435
     12          6           0        2.950354    0.718179    0.470709
     13          6           0        2.178323    1.867706    0.485238
     14          6           0        3.257655   -1.728645    0.084419
     15          8           0        2.889667   -2.849248   -0.225255
     16          1           0       -3.566680   -0.612154    2.151787
     17          1           0       -4.033978    0.432376    0.733606
     18          1           0       -3.965714   -2.692378    0.731368
     19          1           0       -4.431009   -1.629055   -0.673494
     20          1           0       -1.697999   -1.615042    0.816663
     21          1           0       -1.479921   -1.047652   -1.655298
     22          1           0       -2.811242    0.096279   -1.499893
     23          1           0       -2.350568    2.380912   -0.636875
     24          1           0       -0.204085    3.784983    0.219931
     25          1           0        0.682998   -1.610690   -0.602593
     26          1           0        3.995912    0.761039    0.766248
     27          1           0        2.604700    2.819255    0.789588
     28          1           0        4.308810   -1.547910    0.403177
 ---------------------------------------------------------------------

 SCF Done:  E(UB3LYP) =  -633.386750384     A.U. after   31 cycles

 The electronic state is 2-A.
 Alpha  occ. eigenvalues --  -18.92801 -14.22542 -10.10816 -10.08620 -10.08549
 Alpha  occ. eigenvalues --  -10.08379 -10.06624 -10.06445 -10.06271 -10.03115
 Alpha  occ. eigenvalues --  -10.02944 -10.02880 -10.02741 -10.01471 -10.01392
 Alpha  occ. eigenvalues --   -0.86282  -0.85879  -0.77297  -0.70724  -0.67007
 Alpha  occ. eigenvalues --   -0.61506  -0.59556  -0.57193  -0.51629  -0.50280
 Alpha  occ. eigenvalues --   -0.48804  -0.46089  -0.44688  -0.41044  -0.40405
 Alpha  occ. eigenvalues --   -0.38964  -0.37885  -0.35224  -0.32589  -0.31643
 Alpha  occ. eigenvalues --   -0.31187  -0.29591  -0.28961  -0.28193  -0.27537
 Alpha  occ. eigenvalues --   -0.26181  -0.25974  -0.25333  -0.23549  -0.22713
 Alpha  occ. eigenvalues --   -0.21329  -0.20221  -0.19676  -0.18740  -0.14445
 Alpha  occ. eigenvalues --   -0.09550  -0.08755  -0.07692   0.04412
 Alpha virt. eigenvalues --    0.06566   0.08152   0.08596   0.09485   0.10175
 Alpha virt. eigenvalues --    0.10455   0.11234   0.11967   0.12446   0.12628
 Alpha virt. eigenvalues --    0.13584   0.13839   0.14738   0.15140   0.15381

  Beta  occ. eigenvalues --  -18.92351 -14.22474 -10.10809 -10.08613 -10.08548
  Beta  occ. eigenvalues --  -10.08379 -10.06398 -10.06359 -10.06173 -10.03186
  Beta  occ. eigenvalues --  -10.02938 -10.02842 -10.02554 -10.01394 -10.01091
  Beta  occ. eigenvalues --   -0.85740  -0.85433  -0.77280  -0.70501  -0.66790
  Beta  occ. eigenvalues --   -0.61278  -0.59188  -0.57008  -0.51614  -0.49798
  Beta  occ. eigenvalues --   -0.48555  -0.45908  -0.44576  -0.40824  -0.40111
  Beta  occ. eigenvalues --   -0.38889  -0.37809  -0.35032  -0.32388  -0.31465
  Beta  occ. eigenvalues --   -0.31092  -0.29374  -0.28813  -0.28175  -0.27376
  Beta  occ. eigenvalues --   -0.25867  -0.25767  -0.24968  -0.22552  -0.21808
  Beta  occ. eigenvalues --   -0.21180  -0.20192  -0.19582  -0.17639  -0.13556
  Beta  occ. eigenvalues --   -0.08584  -0.08348  -0.06637
  Beta virt. eigenvalues --    0.06698   0.08129   0.08513   0.09372   0.09989
  Beta virt. eigenvalues --    0.10315   0.10549   0.11248   0.12018   0.12463
  Beta virt. eigenvalues --    0.12849   0.13842   0.14082   0.14777   0.15253

 Mulliken charges and spin densities:
               1          2
     1  C   -0.370234  -0.018345
     2  C   -0.335062  -0.068326
     3  C    0.393450   0.085855
     4  C   -0.553687  -0.323566
     5  N    0.416594   0.039798
     6  C   -0.178062   0.157295
     7  C   -0.108986  -0.058643
     8  C    0.400546   0.075792
     9  C   -0.094255  -0.080081
    10  C   -0.427135   0.262774
    11  C    1.247140   0.003611
    12  C   -1.130842  -0.011648
    13  C   -0.622598   0.065243
    14  C   -0.351494   0.194749
    15  O   -0.383091   0.156488
    16  H    0.140092   0.000078
    17  H    0.141748  -0.010580
    18  H    0.131838  -0.001307
    19  H   -0.004131   0.124999
    20  H    0.230477   0.008181
    21  H    0.110385   0.063057
    22  H   -0.087168   0.251221
    23  H   -0.029344   0.118140
    24  H    0.112320   0.006651
    25  H    0.132081  -0.022520
    26  H    0.077705   0.000424
    27  H    0.104831  -0.002218
    28  H    0.036883  -0.017124
 Sum of Mulliken charges =  -1.00000   1.00000

 Dipole moment (field-independent basis, Debye):
    X=             -6.4805    Y=              2.9255    Z=              1.6411  Tot=              7.2971
 Quadrupole moment (field-independent basis, Debye-Ang):
   XX=           -128.6478   YY=           -122.0981   ZZ=           -102.3134
   XY=             17.4042   XZ=             -1.2627   YZ=             -0.4552

 Summary of Natural Population Analysis:

                                       Natural Population
                Natural  -----------------------------------------------
    Atom  No    Charge         Core      Valence    Rydberg      Total
 -----------------------------------------------------------------------
      C    1   -0.19803      0.99963     2.19078    0.00763     3.19803
      C    2   -0.20203      0.99963     2.19508    0.00732     3.20203
      C    3   -0.11819      0.99958     2.10951    0.00910     3.11819
      C    4   -0.08132      0.99960     2.06820    0.01352     3.08132
      N    5   -0.22261      0.99964     2.70809    0.01487     3.72261
      C    6    0.04373      0.99958     1.94322    0.01348     2.95627
      C    7   -0.16969      0.99954     2.16213    0.00802     3.16969
      C    8   -0.03080      0.99956     2.01693    0.01432     3.03080
      C    9    0.13221      0.99949     1.85645    0.01185     2.86779
      C   10   -0.06288      0.99954     2.04632    0.01703     3.06288
      C   11   -0.07018      0.99951     2.06096    0.00971     3.07018
      C   12   -0.10048      0.99955     2.09123    0.00970     3.10048
      C   13   -0.10495      0.99954     2.09681    0.00861     3.10495
      C   14    0.23992      0.99968     1.73915    0.02125     2.76008
      O   15   -0.25931      0.99988     3.25208    0.00734     4.25931
      H   16    0.10074      0.00000     0.39850    0.00076     0.39926
      H   17    0.10070      0.00000     0.39842    0.00087     0.39930
      H   18    0.09986      0.00000     0.39939    0.00074     0.40014
      H   19    0.09957      0.00000     0.39950    0.00093     0.40043
      H   20    0.11131      0.00000     0.38728    0.00141     0.38869
      H   21    0.10393      0.00000     0.39486    0.00120     0.39607
      H   22    0.09662      0.00000     0.40206    0.00132     0.40338
      H   23    0.08890      0.00000     0.41002    0.00108     0.41110
      H   24    0.09796      0.00000     0.40119    0.00086     0.40204
      H   25    0.10287      0.00000     0.39507    0.00207     0.39713
      H   26    0.09067      0.00000     0.40753    0.00180     0.40933
      H   27    0.08941      0.00000     0.40902    0.00157     0.41059
      H   28    0.02711      0.00000     0.46982    0.00307     0.47289
 =======================================================================
   * Total *    0.00505     14.99393    37.80960    0.19142    52.99495

 Normal termination of Gaussian 16 at Thu Dec 10 17:08:05 2020.
