 Gaussian 16, Revision A.03,

 -----------------------------------------------------------
 # opt freq B3LYP/6-31G(d) empiricaldispersion=gd3bj scf=xqc
 -----------------------------------------------------------

 ------------------------------
 CID_89065893_JID_1379_neutraal
 ------------------------------
 Symbolic Z-matrix:
 Charge =  0 Multiplicity = 1

 SCF Done:  E(RB3LYP) =  -859.305517834     A.U. after   14 cycles
 SCF Done:  E(RB3LYP) =  -859.310661095     A.U. after   12 cycles
 SCF Done:  E(RB3LYP) =  -859.307073834     A.U. after   13 cycles
 SCF Done:  E(RB3LYP) =  -859.302876101     A.U. after   13 cycles
 SCF Done:  E(RB3LYP) =  -859.305378965     A.U. after   12 cycles
 SCF Done:  E(RB3LYP) =  -859.310961624     A.U. after    9 cycles
 SCF Done:  E(RB3LYP) =  -859.312403549     A.U. after   11 cycles
 SCF Done:  E(RB3LYP) =  -859.310086954     A.U. after   12 cycles
 SCF Done:  E(RB3LYP) =  -859.312711174     A.U. after   11 cycles
 SCF Done:  E(RB3LYP) =  -859.312581833     A.U. after   12 cycles
 SCF Done:  E(RB3LYP) =  -859.326121056     A.U. after   11 cycles
 SCF Done:  E(RB3LYP) =  -859.326120979     A.U. after    9 cycles
 SCF Done:  E(RB3LYP) =  -859.326121378     A.U. after    9 cycles
 SCF Done:  E(RB3LYP) =  -859.326121299     A.U. after    9 cycles
 SCF Done:  E(RB3LYP) =  -859.326121317     A.U. after    7 cycles
 SCF Done:  E(RB3LYP) =  -859.326121414     A.U. after    7 cycles
 Optimization completed.
    -- Stationary point found.
 Normal termination of Gaussian 16 at Tue Dec  8 21:46:43 2020.

 --------------------------------------------------------------------
 #N Geom=AllCheck Guess=TCheck SCRF=Check GenChk RB3LYP/6-31G(d) Freq
 --------------------------------------------------------------------

 Structure from the checkpoint file:  "JID_1379.chk"
 ------------------------------
 CID_89065893_JID_1379_neutraal
 ------------------------------
 Charge =  0 Multiplicity = 1

 SCF Done:  E(RB3LYP) =  -859.326121414     A.U. after    1 cycles

  Exact polarizability: 123.199  -2.826  94.566  -2.990   3.335  94.066
 Approx polarizability: 151.593  -6.092 137.673  -8.406  10.646 154.325

                      1                      2                      3
                      A                      A                      A
 Frequencies --     30.6985                47.0211                49.5612
 Red. masses --      5.7877                 3.5308                 1.8167
 Frc consts  --      0.0032                 0.0046                 0.0026
 IR Inten    --      0.7128                 0.6051                 0.9712

                      4                      5                      6
                      A                      A                      A
 Frequencies --    114.2040               162.1469               185.4896
 Red. masses --      4.3066                 4.0026                 3.0943
 Frc consts  --      0.0331                 0.0620                 0.0627
 IR Inten    --      3.3397                 1.1159                 6.8193

                      7                      8                      9
                      A                      A                      A
 Frequencies --    194.8137               225.1662               233.6564
 Red. masses --      2.4619                 1.0887                 1.2291
 Frc consts  --      0.0551                 0.0325                 0.0395
 IR Inten    --      7.8100                 0.2458                23.7607

                     10                     11                     12
                      A                      A                      A
 Frequencies --    246.7163               269.1642               276.5419
 Red. masses --      1.1144                 1.2152                 2.0876
 Frc consts  --      0.0400                 0.0519                 0.0941
 IR Inten    --     47.4931                30.0467                19.0467

                     13                     14                     15
                      A                      A                      A
 Frequencies --    290.3636               305.2039               329.6854
 Red. masses --      1.4804                 3.1989                 3.3896
 Frc consts  --      0.0735                 0.1756                 0.2171
 IR Inten    --      7.7976                 6.6391                 3.0225

                     16                     17                     18
                      A                      A                      A
 Frequencies --    344.8740               374.0557               424.7237
 Red. masses --      2.9627                 2.8178                 2.5686
 Frc consts  --      0.2076                 0.2323                 0.2730
 IR Inten    --      2.2464                 2.3872                 4.0750

                     19                     20                     21
                      A                      A                      A
 Frequencies --    478.9211               526.1699               640.7297
 Red. masses --      3.8611                 3.0233                 3.4415
 Frc consts  --      0.5218                 0.4932                 0.8324
 IR Inten    --      7.8365                 9.2202                 2.2026

                     22                     23                     24
                      A                      A                      A
 Frequencies --    665.3047               752.4050               781.1993
 Red. masses --      3.6113                 4.6920                 3.0406
 Frc consts  --      0.9418                 1.5650                 1.0933
 IR Inten    --      6.9902                 2.8197                 5.4638

                     25                     26                     27
                      A                      A                      A
 Frequencies --    788.0602               819.8752               840.6064
 Red. masses --      1.2720                 1.5546                 1.9864
 Frc consts  --      0.4654                 0.6157                 0.8270
 IR Inten    --      1.0177                14.0668                10.6635

                     28                     29                     30
                      A                      A                      A
 Frequencies --    883.8113               902.6174               952.7167
 Red. masses --      2.7508                 1.6212                 1.4528
 Frc consts  --      1.2660                 0.7782                 0.7770
 IR Inten    --     68.5785                95.0270                71.9793

                     31                     32                     33
                      A                      A                      A
 Frequencies --    985.4869              1014.1154              1023.4095
 Red. masses --      1.7778                 1.8855                 1.9579
 Frc consts  --      1.0173                 1.1425                 1.2082
 IR Inten    --    107.6395                49.7950                 6.1808

                     34                     35                     36
                      A                      A                      A
 Frequencies --   1032.3776              1065.8486              1083.4546
 Red. masses --      1.6486                 1.9086                 1.7730
 Frc consts  --      1.0352                 1.2775                 1.2263
 IR Inten    --      2.0257                37.4581                 6.0524

                     37                     38                     39
                      A                      A                      A
 Frequencies --   1107.4494              1121.9624              1208.7075
 Red. masses --      1.7229                 1.5856                 1.1970
 Frc consts  --      1.2449                 1.1760                 1.0304
 IR Inten    --     19.8867                 3.7766                12.2683

                     40                     41                     42
                      A                      A                      A
 Frequencies --   1228.2674              1238.6934              1271.9235
 Red. masses --      2.3412                 1.4822                 1.9784
 Frc consts  --      2.0810                 1.3399                 1.8857
 IR Inten    --     15.4560                 0.9197                 5.6623

                     43                     44                     45
                      A                      A                      A
 Frequencies --   1293.3898              1312.4550              1358.3833
 Red. masses --      1.7605                 1.5309                 1.2719
 Frc consts  --      1.7352                 1.5537                 1.3828
 IR Inten    --      5.9171                 5.2502                 8.3623

                     46                     47                     48
                      A                      A                      A
 Frequencies --   1372.0337              1399.5853              1435.9303
 Red. masses --      1.2296                 1.4087                 1.2556
 Frc consts  --      1.3638                 1.6258                 1.5253
 IR Inten    --     19.9447                 0.4979                 7.7678

                     49                     50                     51
                      A                      A                      A
 Frequencies --   1440.3729              1444.3855              1505.1410
 Red. masses --      1.5570                 1.2521                 1.0818
 Frc consts  --      1.9032                 1.5390                 1.4439
 IR Inten    --      5.3050                 4.3725                 7.4191

                     52                     53                     54
                      A                      A                      A
 Frequencies --   1506.5326              1519.3104              1526.9340
 Red. masses --      1.0731                 1.0513                 1.0651
 Frc consts  --      1.4350                 1.4298                 1.4631
 IR Inten    --      0.9676                 5.5528                 7.0046

                     55                     56                     57
                      A                      A                      A
 Frequencies --   1532.5657              1539.8188              1681.8379
 Red. masses --      1.0533                 1.0427                 1.1138
 Frc consts  --      1.4576                 1.4567                 1.8563
 IR Inten    --      4.4421                 5.3338                56.0514

                     58                     59                     60
                      A                      A                      A
 Frequencies --   1703.0895              1793.1054              2686.1510
 Red. masses --      1.0908                 9.0783                 1.0380
 Frc consts  --      1.8641                17.1975                 4.4126
 IR Inten    --     39.8229                84.4620                 2.6706

                     61                     62                     63
                      A                      A                      A
 Frequencies --   3053.0107              3060.8931              3065.5634
 Red. masses --      1.0383                 1.0383                 1.0584
 Frc consts  --      5.7020                 5.7312                 5.8604
 IR Inten    --     18.6986                27.6263                 7.0073

                     64                     65                     66
                      A                      A                      A
 Frequencies --   3075.1862              3098.6578              3104.0244
 Red. masses --      1.0612                 1.0979                 1.0874
 Frc consts  --      5.9128                 6.2109                 6.1731
 IR Inten    --     14.4723                 3.2835                10.3510

                     67                     68                     69
                      A                      A                      A
 Frequencies --   3117.1180              3123.8293              3129.6102
 Red. masses --      1.1009                 1.1020                 1.1045
 Frc consts  --      6.3025                 6.3359                 6.3739
 IR Inten    --     33.7541                33.2582                14.3675

                     70                     71                     72
                      A                      A                      A
 Frequencies --   3134.5196              3148.4691              3469.5156
 Red. masses --      1.1017                 1.1021                 1.0495
 Frc consts  --      6.3775                 6.4366                 7.4436
 IR Inten    --     35.3596                16.5900                 2.3547

                     73                     74                     75
                      A                      A                      A
 Frequencies --   3473.1113              3554.7310              3556.7194
 Red. masses --      1.0508                 1.0917                 1.0908
 Frc consts  --      7.4680                 8.1275                 8.1298
 IR Inten    --      0.9409                 1.9100                 0.6009

 - Thermochemistry -
 -------------------
 Temperature   298.150 Kelvin.  Pressure   1.00000 Atm.
 Atom     1 has atomic number  6 and mass  12.00000

 Molecular mass:   176.09834 amu.
 Principal axes and moments of inertia in atomic units:
                           1         2         3
     Eigenvalues --  1053.792403466.350753619.55000
           X            0.99995   0.01015  -0.00016
           Y           -0.01014   0.99966   0.02415
           Z            0.00041  -0.02415   0.99971
 This molecule is an asymmetric top.
 Rotational symmetry number  1.
 Warning -- assumption of classical behavior for rotation
           may cause significant error
 Rotational temperatures (Kelvin)      0.08219     0.02499     0.02393
 Rotational constants (GHZ):           1.71262     0.52065     0.49861
 Zero-point vibrational energy     614486.9 (Joules/Mol)
                                  146.86588 (Kcal/Mol)
 Warning -- explicit consideration of  20 degrees of freedom as
           vibrations may cause significant error
 Vibrational temperatures:     44.17    67.65    71.31   164.31   233.29
          (Kelvin)            266.88   280.29   323.96   336.18   354.97
                              387.27   397.88   417.77   439.12   474.34
                              496.20   538.18   611.08   689.06   757.04
                              921.87   957.23  1082.54  1123.97  1133.84
                             1179.62  1209.45  1271.61  1298.67  1370.75
                             1417.90  1459.09  1472.46  1485.36  1533.52
                             1558.85  1593.37  1614.25  1739.06  1767.20
                             1782.20  1830.01  1860.90  1888.33  1954.41
                             1974.05  2013.69  2065.98  2072.38  2078.15
                             2165.56  2167.56  2185.95  2196.92  2205.02
                             2215.46  2419.79  2450.37  2579.88  3864.77
                             4392.60  4403.94  4410.66  4424.51  4458.28
                             4466.00  4484.84  4494.49  4502.81  4509.87
                             4529.94  4991.86  4997.03  5114.47  5117.33

 Zero-point correction=                           0.234046 (Hartree/Particle)
 Thermal correction to Energy=                    0.248232
 Thermal correction to Enthalpy=                  0.249176
 Thermal correction to Gibbs Free Energy=         0.192865
 Sum of electronic and zero-point Energies=           -859.092076
 Sum of electronic and thermal Energies=              -859.077889
 Sum of electronic and thermal Enthalpies=            -859.076945
 Sum of electronic and thermal Free Energies=         -859.133257

                     E (Thermal)             CV                S
                      KCal/Mol        Cal/Mol-Kelvin    Cal/Mol-Kelvin
 Total                  155.768             51.570            118.517
 Electronic               0.000              0.000              0.000
 Translational            0.889              2.981             41.405
 Rotational               0.889              2.981             30.959
 Vibrational            153.990             45.609             46.154
 Vibration     1          0.594              1.984              5.784
 Vibration     2          0.595              1.979              4.939
 Vibration     3          0.595              1.978              4.835
 Vibration     4          0.607              1.938              3.196
 Vibration     5          0.622              1.889              2.525
 Vibration     6          0.632              1.860              2.272
 Vibration     7          0.635              1.847              2.182
 Vibration     8          0.650              1.803              1.917
 Vibration     9          0.654              1.789              1.851
 Vibration    10          0.661              1.768              1.754
 Vibration    11          0.674              1.730              1.602
 Vibration    12          0.678              1.717              1.555
 Vibration    13          0.686              1.692              1.472
 Vibration    14          0.696              1.664              1.388
 Vibration    15          0.712              1.616              1.262
 Vibration    16          0.723              1.586              1.190
 Vibration    17          0.745              1.525              1.063
 Vibration    18          0.787              1.416              0.876
 Vibration    19          0.835              1.297              0.713
 Vibration    20          0.881              1.192              0.596

 Optimization completed.
    -- Stationary point found.
 Normal termination of Gaussian 16 at Tue Dec  8 21:53:33 2020.

 ----------------------------------------------------------------------
 # B3LYP/6-311++G(d,p) empiricaldispersion=gd3bj scf=xqc pop=npa geom=c
 heck
 ----------------------------------------------------------------------

 --------------------------------------
 CID_89065893_JID_1379_Energie_neutraal
 --------------------------------------
 Structure from the checkpoint file:  "JID_1379.chk"
 Charge =  0 Multiplicity = 1

 SCF Done:  E(RB3LYP) =  -859.505425784     A.U. after   15 cycles
 Normal termination of Gaussian 16 at Tue Dec  8 21:56:49 2020.

 ----------------------------------------------------------------------
 # B3LYP/6-311++G(d,p) empiricaldispersion=gd3bj scf=xqc pop=npa geom=c
 heck
 ----------------------------------------------------------------------

 ------------------------------------
 CID_89065893_JID_1379_Energie_kation
 ------------------------------------
 Structure from the checkpoint file:  "JID_1379.chk"
 Charge =  1 Multiplicity = 2

 SCF Done:  E(UB3LYP) =  -859.191662306     A.U. after   31 cycles
 Normal termination of Gaussian 16 at Tue Dec  8 22:06:08 2020.
 Gaussian 16:  ES64L-G16RevA.03 25-Dec-2016

 ----------------------------------------------------------------------
 # B3LYP/6-311++G(d,p) empiricaldispersion=gd3bj scf=xqc pop=npa geom=c
 heck
 ----------------------------------------------------------------------

 -----------------------------------
 CID_89065893_JID_1379_Energie_anion
 -----------------------------------
 Structure from the checkpoint file:  "JID_1379.chk"
 Charge = -1 Multiplicity = 2

                         Standard orientation:
 ---------------------------------------------------------------------
 Center     Atomic      Atomic             Coordinates (Angstroms)
 Number     Number       Type             X           Y           Z
 ---------------------------------------------------------------------
      1          6           0       -3.771037    0.670911    0.223822
      2          6           0       -2.316145    0.812511   -0.236251
      3          6           0       -1.405630   -0.412942    0.056680
      4          6           0       -1.913325   -1.674823   -0.654847
      5          6           0       -0.027883   -0.018233   -0.505452
      6          8           0        0.361037   -0.440686   -1.581307
      7          6           0        0.844638    0.947513    0.300123
      8          6           0        1.911977    0.140275    1.092728
      9         16           0        3.250697   -0.618338    0.086561
     10          7           0        1.352343    1.959775   -0.616078
     11          7           0       -1.272577   -0.580900    1.514395
     12          1           0       -4.274085   -0.173171   -0.257837
     13          1           0       -4.328485    1.577891   -0.032293
     14          1           0       -3.856568    0.543220    1.309417
     15          1           0       -2.294758    0.988143   -1.317561
     16          1           0       -1.873779    1.697376    0.234472
     17          1           0       -2.013949   -1.516834   -1.731645
     18          1           0       -1.208607   -2.501341   -0.511126
     19          1           0       -2.882788   -1.978121   -0.247933
     20          1           0        0.222039    1.424934    1.061704
     21          1           0        2.436763    0.828210    1.764261
     22          1           0        1.428566   -0.613432    1.719430
     23          1           0        2.450299   -1.236183   -0.806863
     24          1           0        2.062212    2.519376   -0.145525
     25          1           0        1.824897    1.482967   -1.382986
     26          1           0       -2.193694   -0.562710    1.946504
     27          1           0       -0.891434   -1.504818    1.714421
 ---------------------------------------------------------------------

 SCF Done:  E(UB3LYP) =  -859.500883190     A.U. after   30 cycles

 The electronic state is 2-A.
 Alpha  occ. eigenvalues --  -88.73346 -18.98137 -14.18563 -14.17887 -10.11629
 Alpha  occ. eigenvalues --  -10.09496 -10.09356 -10.09217 -10.05918 -10.05070
 Alpha  occ. eigenvalues --  -10.04245  -7.82048  -5.78410  -5.78068  -5.77455
 Alpha  occ. eigenvalues --   -0.92010  -0.78508  -0.77941  -0.67410  -0.66344
 Alpha  occ. eigenvalues --   -0.61116  -0.59550  -0.54748  -0.50792  -0.46712
 Alpha  occ. eigenvalues --   -0.41148  -0.39776  -0.36912  -0.36028  -0.35107
 Alpha  occ. eigenvalues --   -0.33844  -0.32581  -0.31268  -0.30046  -0.29690
 Alpha  occ. eigenvalues --   -0.27890  -0.27855  -0.27236  -0.26241  -0.24850
 Alpha  occ. eigenvalues --   -0.23905  -0.23160  -0.22064  -0.21405  -0.15255
 Alpha  occ. eigenvalues --   -0.14084  -0.13297  -0.11756   0.04414
 Alpha virt. eigenvalues --    0.07479   0.08112   0.08477   0.09179   0.09978
 Alpha virt. eigenvalues --    0.10313   0.10645   0.11382   0.11814   0.12638
 Alpha virt. eigenvalues --    0.13051   0.13793   0.14101   0.14469   0.14831

  Beta  occ. eigenvalues --  -88.73344 -18.97890 -14.18549 -14.17806 -10.11391
  Beta  occ. eigenvalues --  -10.09512 -10.09300 -10.09231 -10.05904 -10.05004
  Beta  occ. eigenvalues --  -10.04209  -7.82046  -5.78407  -5.78066  -5.77453
  Beta  occ. eigenvalues --   -0.91543  -0.78402  -0.77869  -0.67355  -0.66231
  Beta  occ. eigenvalues --   -0.60977  -0.59425  -0.54612  -0.50632  -0.46573
  Beta  occ. eigenvalues --   -0.40991  -0.39684  -0.36651  -0.35935  -0.35020
  Beta  occ. eigenvalues --   -0.33628  -0.32494  -0.31190  -0.29965  -0.29606
  Beta  occ. eigenvalues --   -0.27826  -0.27728  -0.27147  -0.26095  -0.24341
  Beta  occ. eigenvalues --   -0.23426  -0.23092  -0.21995  -0.21089  -0.15161
  Beta  occ. eigenvalues --   -0.14049  -0.13253  -0.11600
  Beta virt. eigenvalues --    0.07183   0.07980   0.09060   0.09206   0.10282
  Beta virt. eigenvalues --    0.10539   0.10750   0.11009   0.11609   0.12147
  Beta virt. eigenvalues --    0.13016   0.13356   0.13923   0.14191   0.14512

 Mulliken charges and spin densities:
               1          2
     1  C    1.641805  -2.190272
     2  C   -2.143966   1.705268
     3  C    0.674079  -0.427070
     4  C    1.398254  -1.949129
     5  C   -0.845974   0.648962
     6  O   -0.308014   0.077474
     7  C    0.223413  -0.086742
     8  C    0.021251  -0.527222
     9  S   -0.245941   0.030692
    10  N   -0.343388   0.006777
    11  N   -0.470802   0.233982
    12  H   -0.110273   0.252799
    13  H   -0.270634   0.413926
    14  H   -0.472656   0.611093
    15  H    0.003339   0.170631
    16  H    0.232665  -0.072654
    17  H    0.051301   0.128768
    18  H    0.006432   0.136343
    19  H   -0.234127   0.374226
    20  H   -0.007671   0.261222
    21  H   -0.073608   0.295215
    22  H   -0.015146   0.191152
    23  H    0.080090  -0.003718
    24  H    0.176541   0.029813
    25  H    0.248681   0.003302
    26  H   -0.060999   0.295497
    27  H   -0.154654   0.389665
 Sum of Mulliken charges =  -1.00000   1.00000

 Dipole moment (field-independent basis, Debye):
    X=              4.5676    Y=              1.0328    Z=             -1.8900  Tot=              5.0499
 Quadrupole moment (field-independent basis, Debye-Ang):
   XX=           -137.9390   YY=           -103.8045   ZZ=           -110.0397
   XY=              1.8613   XZ=              5.4291   YZ=              2.8253

 Summary of Natural Population Analysis:

                                       Natural Population
                Natural  -----------------------------------------------
    Atom  No    Charge         Core      Valence    Rydberg      Total
 -----------------------------------------------------------------------
      C    1   -0.28714      0.99966     2.28211    0.00536     3.28714
      C    2   -0.18619      0.99959     2.17731    0.00929     3.18619
      C    3    0.01360      0.99952     1.97158    0.01531     2.98640
      C    4   -0.29283      0.99963     2.28485    0.00835     3.29283
      C    5    0.33641      0.99957     1.63672    0.02729     2.66359
      O    6   -0.28623      0.99987     3.27935    0.00701     4.28623
      C    7   -0.06734      0.99953     2.05184    0.01597     3.06734
      C    8   -0.24360      0.99956     2.23310    0.01094     3.24360
      S    9   -0.04789      4.99965     3.03198    0.01626     8.04789
      N   10   -0.41608      0.99977     2.90721    0.00911     3.91608
      N   11   -0.42854      0.99975     2.91721    0.01158     3.92854
      H   12    0.09795      0.00000     0.40085    0.00120     0.40205
      H   13    0.10076      0.00000     0.39819    0.00106     0.39924
      H   14    0.09697      0.00000     0.40137    0.00166     0.40303
      H   15    0.10078      0.00000     0.39801    0.00121     0.39922
      H   16    0.10139      0.00000     0.39718    0.00144     0.39861
      H   17    0.10622      0.00000     0.39284    0.00094     0.39378
      H   18    0.10083      0.00000     0.39809    0.00108     0.39917
      H   19    0.09882      0.00000     0.39991    0.00127     0.40118
      H   20    0.10859      0.00000     0.38915    0.00225     0.39141
      H   21    0.10163      0.00000     0.39679    0.00158     0.39837
      H   22    0.10976      0.00000     0.38862    0.00161     0.39024
      H   23    0.07353      0.00000     0.42351    0.00295     0.42647
      H   24    0.16876      0.00000     0.32951    0.00172     0.33124
      H   25    0.18151      0.00000     0.31636    0.00212     0.31849
      H   26    0.18144      0.00000     0.31383    0.00473     0.31856
      H   27    0.17688      0.00000     0.32010    0.00301     0.32312
 =======================================================================
   * Total *   -0.00000     14.99610    32.83759    0.16630    48.00000

 Normal termination of Gaussian 16 at Tue Dec  8 22:14:41 2020.
