 Gaussian 16, Revision A.03,

 -----------------------------------------------------------
 # opt freq B3LYP/6-31G(d) empiricaldispersion=gd3bj scf=xqc
 -----------------------------------------------------------

 -----------------------------
 CID_67725714_JID_893_neutraal
 -----------------------------
 Symbolic Z-matrix:
 Charge =  0 Multiplicity = 1

 SCF Done:  E(RB3LYP) =  -419.165419491     A.U. after   15 cycles
 SCF Done:  E(RB3LYP) =  -419.166546801     A.U. after   11 cycles
 SCF Done:  E(RB3LYP) =  -419.166622432     A.U. after   11 cycles
 SCF Done:  E(RB3LYP) =  -419.166624994     A.U. after    8 cycles
 Optimization completed.
    -- Stationary point found.
 Normal termination of Gaussian 16 at Tue Dec  8 13:09:35 2020.

 --------------------------------------------------------------------
 #N Geom=AllCheck Guess=TCheck SCRF=Check GenChk RB3LYP/6-31G(d) Freq
 --------------------------------------------------------------------

 Structure from the checkpoint file:  "JID_893.chk"
 -----------------------------
 CID_67725714_JID_893_neutraal
 -----------------------------
 Charge =  0 Multiplicity = 1

 SCF Done:  E(RB3LYP) =  -419.166624994     A.U. after    1 cycles

  Exact polarizability: 135.513   3.414 105.123  -0.001   0.004  38.707
 Approx polarizability: 223.845  12.662 174.084  -0.012  -0.005  60.341

                      1                      2                      3
                      A                      A                      A
 Frequencies --     57.5597               162.9330               188.5746
 Red. masses --      2.5899                 3.4533                 4.6338
 Frc consts  --      0.0051                 0.0540                 0.0971
 IR Inten    --      3.2441                 0.2237                 2.4403

                      4                      5                      6
                      A                      A                      A
 Frequencies --    309.5195               425.1123               467.0675
 Red. masses --      4.5029                 2.2713                 5.0050
 Frc consts  --      0.2542                 0.2418                 0.6433
 IR Inten    --      6.9938                 6.6141                 0.8541

                      7                      8                      9
                      A                      A                      A
 Frequencies --    509.8080               554.3550               576.3564
 Red. masses --      6.2924                 4.3322                 4.4374
 Frc consts  --      0.9636                 0.7844                 0.8685
 IR Inten    --     10.4590                 4.0610                12.3241

                     10                     11                     12
                      A                      A                      A
 Frequencies --    615.8329               653.3148               661.6458
 Red. masses --      3.3865                 2.3734                 6.0933
 Frc consts  --      0.7567                 0.5969                 1.5716
 IR Inten    --     13.4813                 0.0865                 0.2604

                     13                     14                     15
                      A                      A                      A
 Frequencies --    715.9146               738.7754               808.5803
 Red. masses --      1.2376                 1.5579                 1.2645
 Frc consts  --      0.3737                 0.5010                 0.4871
 IR Inten    --     26.9639                60.6583                 0.0389

                     16                     17                     18
                      A                      A                      A
 Frequencies --    859.6863               873.2418               888.9047
 Red. masses --      1.2683                 4.9849                 1.3753
 Frc consts  --      0.5523                 2.2396                 0.6403
 IR Inten    --     33.8285                18.2787                10.8635

                     19                     20                     21
                      A                      A                      A
 Frequencies --    910.6056               942.2051               965.3103
 Red. masses --      5.0437                 1.2117                 2.4426
 Frc consts  --      2.4641                 0.6338                 1.3410
 IR Inten    --      0.1934                 0.1347                28.7227

                     22                     23                     24
                      A                      A                      A
 Frequencies --    976.5165              1019.1223              1062.5144
 Red. masses --      1.9920                 2.0620                 1.5197
 Frc consts  --      1.1192                 1.2618                 1.0109
 IR Inten    --      2.8424                 9.2350                20.0868

                     25                     26                     27
                      A                      A                      A
 Frequencies --   1108.6260              1182.2551              1230.7998
 Red. masses --      1.4046                 1.2921                 1.0973
 Frc consts  --      1.0171                 1.0641                 0.9794
 IR Inten    --     37.5133                 2.0855                 1.7799

                     28                     29                     30
                      A                      A                      A
 Frequencies --   1234.1179              1244.8356              1319.5858
 Red. masses --      2.0213                 1.4248                 2.3719
 Frc consts  --      1.8138                 1.3008                 2.4334
 IR Inten    --     17.0563                45.9394                 6.1384

                     31                     32                     33
                      A                      A                      A
 Frequencies --   1354.4391              1372.0326              1413.4981
 Red. masses --      1.8130                 2.2733                 4.4567
 Frc consts  --      1.9596                 2.5214                 5.2463
 IR Inten    --     48.0954                53.6445                85.5808

                     34                     35                     36
                      A                      A                      A
 Frequencies --   1447.7025              1472.1431              1481.8986
 Red. masses --      2.0314                 2.1581                 1.4197
 Frc consts  --      2.5084                 2.7556                 1.8370
 IR Inten    --     14.5614                31.2829                 9.7900

                     37                     38                     39
                      A                      A                      A
 Frequencies --   1517.5908              1607.2182              1690.0636
 Red. masses --      4.0493                 5.8540                 9.5547
 Frc consts  --      5.4947                 8.9095                16.0795
 IR Inten    --     57.8706                39.8738               139.5844

                     40                     41                     42
                      A                      A                      A
 Frequencies --   1749.5350              3019.0280              3042.1481
 Red. masses --      6.3115                 1.0601                 1.1009
 Frc consts  --     11.3823                 5.6929                 6.0027
 IR Inten    --     31.2937                19.0901                11.6012

                     43                     44                     45
                      A                      A                      A
 Frequencies --   3208.8086              3234.7941              3260.3538
 Red. masses --      1.0871                 1.0980                 1.0893
 Frc consts  --      6.5951                 6.7693                 6.8223
 IR Inten    --      2.0910                14.5820                 3.6909

                     46                     47                     48
                      A                      A                      A
 Frequencies --   3278.3715              3287.7825              3411.4559
 Red. masses --      1.0986                 1.1015                 1.0748
 Frc consts  --      6.9568                 7.0151                 7.3697
 IR Inten    --      2.5927                 1.2633                 3.3376

 - Thermochemistry -
 -------------------
 Temperature   298.150 Kelvin.  Pressure   1.00000 Atm.
 Atom     1 has atomic number  6 and mass  12.00000

 Molecular mass:   132.06875 amu.
 Principal axes and moments of inertia in atomic units:
                           1         2         3
     Eigenvalues --   795.743901212.872301997.60812
           X            0.99989  -0.01489   0.00004
           Y            0.01489   0.99989   0.00004
           Z           -0.00004  -0.00004   1.00000
 This molecule is an asymmetric top.
 Rotational symmetry number  1.
 Warning -- assumption of classical behavior for rotation
           may cause significant error
 Rotational temperatures (Kelvin)      0.10885     0.07141     0.04336
 Rotational constants (GHZ):           2.26799     1.48799     0.90345
 Zero-point vibrational energy     383478.2 (Joules/Mol)
                                   91.65348 (Kcal/Mol)
 Warning -- explicit consideration of  10 degrees of freedom as
           vibrations may cause significant error
 Vibrational temperatures:     82.82   234.42   271.32   445.33   611.64
          (Kelvin)            672.01   733.50   797.59   829.25   886.05
                              939.97   951.96  1030.04  1062.93  1163.37
                             1236.90  1256.40  1278.94  1310.16  1355.62
                             1388.87  1404.99  1466.29  1528.72  1595.07
                             1701.00  1770.85  1775.62  1791.04  1898.59
                             1948.74  1974.05  2033.71  2082.92  2118.09
                             2132.12  2183.47  2312.43  2431.62  2517.19
                             4343.71  4376.97  4616.76  4654.15  4690.92
                             4716.85  4730.39  4908.32

 Zero-point correction=                           0.146059 (Hartree/Particle)
 Thermal correction to Energy=                    0.153697
 Thermal correction to Enthalpy=                  0.154641
 Thermal correction to Gibbs Free Energy=         0.113360
 Sum of electronic and zero-point Energies=           -419.020566
 Sum of electronic and thermal Energies=              -419.012928
 Sum of electronic and thermal Enthalpies=            -419.011984
 Sum of electronic and thermal Free Energies=         -419.053265

                     E (Thermal)             CV                S
                      KCal/Mol        Cal/Mol-Kelvin    Cal/Mol-Kelvin
 Total                   96.446             30.522             86.883
 Electronic               0.000              0.000              0.000
 Translational            0.889              2.981             40.547
 Rotational               0.889              2.981             29.046
 Vibrational             94.669             24.560             17.290
 Vibration     1          0.596              1.974              4.539
 Vibration     2          0.623              1.888              2.515
 Vibration     3          0.633              1.856              2.242
 Vibration     4          0.699              1.656              1.365
 Vibration     5          0.787              1.416              0.875
 Vibration     6          0.824              1.323              0.746
 Vibration     7          0.865              1.228              0.634
 Vibration     8          0.910              1.130              0.535
 Vibration     9          0.933              1.082              0.492
 Vibration    10          0.975              0.998              0.423

                           ! Non-Optimized Parameters !
 Normal termination of Gaussian 16 at Tue Dec  8 13:17:02 2020.

 ----------------------------------------------------------------------
 # B3LYP/6-311++G(d,p) empiricaldispersion=gd3bj scf=xqc pop=npa geom=c
 heck
 ----------------------------------------------------------------------

 -------------------------------------
 CID_67725714_JID_893_Energie_neutraal
 -------------------------------------
 Structure from the checkpoint file:  "JID_893.chk"
 Charge =  0 Multiplicity = 1

 SCF Done:  E(RB3LYP) =  -419.280347781     A.U. after   15 cycles
 Normal termination of Gaussian 16 at Tue Dec  8 13:23:32 2020.

 ----------------------------------------------------------------------
 # B3LYP/6-311++G(d,p) empiricaldispersion=gd3bj scf=xqc pop=npa geom=c
 heck
 ----------------------------------------------------------------------

 -----------------------------------
 CID_67725714_JID_893_Energie_kation
 -----------------------------------
 Structure from the checkpoint file:  "JID_893.chk"
 Charge =  1 Multiplicity = 2

 SCF Done:  E(UB3LYP) =  -418.990161389     A.U. after   22 cycles
 Normal termination of Gaussian 16 at Tue Dec  8 13:26:56 2020.
 Gaussian 16:  ES64L-G16RevA.03 25-Dec-2016

 ----------------------------------------------------------------------
 # B3LYP/6-311++G(d,p) empiricaldispersion=gd3bj scf=xqc pop=npa geom=c
 heck
 ----------------------------------------------------------------------

 ----------------------------------
 CID_67725714_JID_893_Energie_anion
 ----------------------------------
 Structure from the checkpoint file:  "JID_893.chk"
 Charge = -1 Multiplicity = 2

                         Standard orientation:
 ---------------------------------------------------------------------
 Center     Atomic      Atomic             Coordinates (Angstroms)
 Number     Number       Type             X           Y           Z
 ---------------------------------------------------------------------
      1          6           0        2.126829   -0.270474    0.002154
      2          6           0        1.516639   -1.645497   -0.000345
      3          6           0        0.196294   -1.843080   -0.001143
      4          7           0       -0.693638   -0.764014   -0.000185
      5          6           0       -2.066819   -0.811840    0.000040
      6          6           0       -2.542123    0.485785    0.000309
      7          6           0       -1.419006    1.352200    0.000882
      8          6           0       -0.278936    0.565498    0.000093
      9          6           0        1.136743    0.899893   -0.000562
     10          7           0        1.489498    2.134429   -0.001843
     11          1           0        2.781869   -0.159320    0.878999
     12          1           0        2.788103   -0.158443   -0.869790
     13          1           0        2.180797   -2.503434   -0.001093
     14          1           0       -0.269297   -2.821942   -0.002622
     15          1           0       -2.582964   -1.761168   -0.000246
     16          1           0       -3.583846    0.774771    0.000436
     17          1           0       -1.416113    2.432280    0.001381
     18          1           0        2.512704    2.209445   -0.001437
 ---------------------------------------------------------------------

 SCF Done:  E(UB3LYP) =  -419.270664563     A.U. after   33 cycles
 SCF Done:  E(UB3LYP) =  -419.270664563     a.u. after    1 cycles

 The electronic state is 2-A.
 Alpha  occ. eigenvalues --  -14.20562 -14.09800 -10.05701 -10.03219 -10.03129
 Alpha  occ. eigenvalues --  -10.02900 -10.01994 -10.01819 -10.00902  -9.98833
 Alpha  occ. eigenvalues --   -0.83771  -0.72285  -0.67294  -0.61005  -0.57389
 Alpha  occ. eigenvalues --   -0.54400  -0.45507  -0.44526  -0.42455  -0.36070
 Alpha  occ. eigenvalues --   -0.33493  -0.32090  -0.29886  -0.29251  -0.26672
 Alpha  occ. eigenvalues --   -0.26342  -0.24965  -0.23360  -0.22275  -0.20336
 Alpha  occ. eigenvalues --   -0.16954  -0.13659  -0.08877  -0.07248  -0.05609
 Alpha  occ. eigenvalues --    0.07008
 Alpha virt. eigenvalues --    0.09064   0.09942   0.10719   0.11858   0.12468
 Alpha virt. eigenvalues --    0.12844   0.14458   0.14667   0.15057   0.16811
 Alpha virt. eigenvalues --    0.17278   0.19094   0.19903   0.20292   0.20480

  Beta  occ. eigenvalues --  -14.20471 -14.09464 -10.05622 -10.02967 -10.02961
  Beta  occ. eigenvalues --  -10.02875 -10.01924 -10.01619 -10.01002  -9.98610
  Beta  occ. eigenvalues --   -0.83505  -0.71652  -0.66990  -0.60638  -0.56984
  Beta  occ. eigenvalues --   -0.54135  -0.45172  -0.43863  -0.42295  -0.35855
  Beta  occ. eigenvalues --   -0.33243  -0.31891  -0.29143  -0.29054  -0.26389
  Beta  occ. eigenvalues --   -0.25706  -0.24828  -0.23204  -0.22151  -0.20049
  Beta  occ. eigenvalues --   -0.15524  -0.12416  -0.08447  -0.06151  -0.04105
  Beta virt. eigenvalues --    0.09024   0.09920   0.10740   0.11791   0.12059
  Beta virt. eigenvalues --    0.12795   0.13121   0.14392   0.14998   0.15486
  Beta virt. eigenvalues --    0.17160   0.17777   0.19361   0.19880   0.20298

 Mulliken charges and spin densities:
               1          2
     1  C   -0.748047  -0.100633
     2  C   -0.014804   0.142698
     3  C    0.009843   0.003600
     4  N    0.287712   0.016194
     5  C    0.045478   0.210226
     6  C   -0.524899  -0.069683
     7  C    0.293331   0.276670
     8  C   -0.066566   0.014307
     9  C   -0.682128   0.088005
    10  N   -0.424186   0.220755
    11  H    0.026160   0.120163
    12  H    0.021536   0.124420
    13  H    0.131470  -0.008499
    14  H    0.100161  -0.005700
    15  H    0.101196  -0.014715
    16  H    0.104125   0.005406
    17  H    0.164675  -0.014761
    18  H    0.174944  -0.008451
 Sum of Mulliken charges =  -1.00000   1.00000

 Dipole moment (field-independent basis, Debye):
    X=             -0.7614    Y=             -4.6749    Z=              0.0115  Tot=              4.7365
 Quadrupole moment (field-independent basis, Debye-Ang):
   XX=            -77.3047   YY=            -79.0507   ZZ=            -71.7927
   XY=             -2.6768   XZ=              0.0536   YZ=              0.0201

 Summary of Natural Population Analysis:

                                       Natural Population
                Natural  -----------------------------------------------
    Atom  No    Charge         Core      Valence    Rydberg      Total
 -----------------------------------------------------------------------
      C    1   -0.23478      0.99960     2.22532    0.00987     3.23478
      C    2   -0.08225      0.99958     2.07349    0.00918     3.08225
      C    3    0.00834      0.99951     1.98186    0.01028     2.99166
      N    4   -0.18643      0.99961     2.67807    0.00875     3.68643
      C    5    0.02049      0.99959     1.96749    0.01243     2.97951
      C    6   -0.17692      0.99959     2.16753    0.00980     3.17692
      C    7   -0.08132      0.99953     2.07235    0.00944     3.08132
      C    8    0.06029      0.99950     1.92817    0.01203     2.93971
      C    9    0.15861      0.99960     1.82571    0.01608     2.84139
      N   10   -0.29928      0.99971     2.79033    0.00924     3.79928
      H   11    0.10677      0.00000     0.39092    0.00231     0.39323
      H   12    0.10675      0.00000     0.39090    0.00235     0.39325
      H   13    0.08672      0.00000     0.41234    0.00094     0.41328
      H   14    0.08727      0.00000     0.41171    0.00102     0.41273
      H   15    0.08517      0.00000     0.41387    0.00096     0.41483
      H   16    0.09310      0.00000     0.40597    0.00093     0.40690
      H   17    0.10249      0.00000     0.39668    0.00083     0.39751
      H   18    0.14496      0.00000     0.35313    0.00191     0.35504
 =======================================================================
   * Total *    0.00000      9.99582    24.88584    0.11834    35.00000

 Normal termination of Gaussian 16 at Tue Dec  8 13:32:05 2020.
