 Gaussian 16, Revision A.03,

 -----------------------------------------------------------
 # opt freq B3LYP/6-31G(d) empiricaldispersion=gd3bj scf=xqc
 -----------------------------------------------------------

 -------------------------------
 CID_115731384_JID_5327_neutraal
 -------------------------------
 Symbolic Z-matrix:
 Charge =  0 Multiplicity = 1

 SCF Done:  E(RB3LYP) =  -712.338000910     A.U. after   15 cycles
 SCF Done:  E(RB3LYP) =  -712.339667143     A.U. after   13 cycles
 SCF Done:  E(RB3LYP) =  -712.339391776     A.U. after   12 cycles
 SCF Done:  E(RB3LYP) =  -712.340134238     A.U. after   12 cycles
 SCF Done:  E(RB3LYP) =  -712.340988777     A.U. after   12 cycles
 SCF Done:  E(RB3LYP) =  -712.341397038     A.U. after   12 cycles
 SCF Done:  E(RB3LYP) =  -712.341599947     A.U. after   11 cycles
 SCF Done:  E(RB3LYP) =  -712.341794073     A.U. after   12 cycles
 SCF Done:  E(RB3LYP) =  -712.341948200     A.U. after   13 cycles
 SCF Done:  E(RB3LYP) =  -712.342015712     A.U. after   12 cycles
 SCF Done:  E(RB3LYP) =  -712.342800317     A.U. after   10 cycles
 SCF Done:  E(RB3LYP) =  -712.342801410     A.U. after    8 cycles
 SCF Done:  E(RB3LYP) =  -712.342802304     A.U. after    8 cycles
 SCF Done:  E(RB3LYP) =  -712.342802648     A.U. after    7 cycles
 SCF Done:  E(RB3LYP) =  -712.342802877     A.U. after    8 cycles
 Optimization completed.
    -- Stationary point found.
 Normal termination of Gaussian 16 at Thu Dec 10 15:44:26 2020.

 --------------------------------------------------------------------
 #N Geom=AllCheck Guess=TCheck SCRF=Check GenChk RB3LYP/6-31G(d) Freq
 --------------------------------------------------------------------

 Structure from the checkpoint file:  "JID_5327.chk"
 -------------------------------
 CID_115731384_JID_5327_neutraal
 -------------------------------
 Charge =  0 Multiplicity = 1

 SCF Done:  E(RB3LYP) =  -712.342802877     A.U. after    1 cycles

  Exact polarizability: 147.798   2.668 122.717  -3.418   4.096 114.881
 Approx polarizability: 196.375   8.923 172.610  -1.594  13.619 174.366

                      1                      2                      3
                      A                      A                      A
 Frequencies --     22.3708                29.1328                44.4331
 Red. masses --      5.4554                 3.9725                 3.7236
 Frc consts  --      0.0016                 0.0020                 0.0043
 IR Inten    --      2.0082                 0.5393                 0.5793

                      4                      5                      6
                      A                      A                      A
 Frequencies --     49.0541                62.7613                86.1056
 Red. masses --      7.2066                 5.1885                 3.3170
 Frc consts  --      0.0102                 0.0120                 0.0145
 IR Inten    --      1.6211                 1.1516                 1.3524

                      7                      8                      9
                      A                      A                      A
 Frequencies --    100.9051               152.1656               211.8921
 Red. masses --      2.9191                 3.1599                 4.1078
 Frc consts  --      0.0175                 0.0431                 0.1087
 IR Inten    --      0.4141                 1.2645                 4.1163

                     10                     11                     12
                      A                      A                      A
 Frequencies --    230.3562               235.6333               244.8475
 Red. masses --      1.0334                 1.3042                 1.1893
 Frc consts  --      0.0323                 0.0427                 0.0420
 IR Inten    --      0.0334                 0.5586                 0.7140

                     13                     14                     15
                      A                      A                      A
 Frequencies --    259.0085               266.0799               281.0729
 Red. masses --      1.9401                 2.1767                 2.8414
 Frc consts  --      0.0767                 0.0908                 0.1323
 IR Inten    --      0.6457                 0.3378                 0.7617

                     16                     17                     18
                      A                      A                      A
 Frequencies --    290.4783               298.1778               339.8694
 Red. masses --      1.2106                 2.3823                 4.2540
 Frc consts  --      0.0602                 0.1248                 0.2895
 IR Inten    --      0.1577                 0.6157                 0.5370

                     19                     20                     21
                      A                      A                      A
 Frequencies --    347.9651               384.3524               398.8995
 Red. masses --      2.8066                 2.7055                 2.0424
 Frc consts  --      0.2002                 0.2355                 0.1915
 IR Inten    --      0.7682                 1.8049                 2.0647

                     22                     23                     24
                      A                      A                      A
 Frequencies --    461.1711               505.4254               523.9314
 Red. masses --      2.5587                 4.4005                 2.7109
 Frc consts  --      0.3206                 0.6623                 0.4384
 IR Inten    --      3.5034                 6.8711                16.3225

                     25                     26                     27
                      A                      A                      A
 Frequencies --    541.4871               554.6119               586.6627
 Red. masses --      2.0709                 2.3529                 2.5683
 Frc consts  --      0.3578                 0.4264                 0.5208
 IR Inten    --      9.7138                31.6681                65.7120

                     28                     29                     30
                      A                      A                      A
 Frequencies --    614.5400               668.5304               679.8149
 Red. masses --      2.3499                 1.7246                 2.0738
 Frc consts  --      0.5229                 0.4541                 0.5647
 IR Inten    --     25.0636                85.0092                28.6954

                     31                     32                     33
                      A                      A                      A
 Frequencies --    744.4564               759.1749               834.2095
 Red. masses --      2.5286                 2.8665                 3.0924
 Frc consts  --      0.8257                 0.9734                 1.2679
 IR Inten    --     46.4161                10.6639                23.0388

                     34                     35                     36
                      A                      A                      A
 Frequencies --    858.0536               892.0350               908.8373
 Red. masses --      3.3797                 1.7813                 2.2908
 Frc consts  --      1.4661                 0.8351                 1.1148
 IR Inten    --      8.0373                 8.4171                 8.5073

                     37                     38                     39
                      A                      A                      A
 Frequencies --    923.9755               937.7494               945.4574
 Red. masses --      1.7294                 1.6490                 1.2126
 Frc consts  --      0.8699                 0.8544                 0.6386
 IR Inten    --      4.0524                 4.2724                 0.0520

                     40                     41                     42
                      A                      A                      A
 Frequencies --    965.8826               978.4183              1036.6477
 Red. masses --      1.6735                 1.4340                 1.7645
 Frc consts  --      0.9199                 0.8088                 1.1172
 IR Inten    --      0.1183                 0.0581                 1.7637

                     43                     44                     45
                      A                      A                      A
 Frequencies --   1051.8439              1066.1018              1095.3902
 Red. masses --      1.7212                 1.9127                 1.9002
 Frc consts  --      1.1220                 1.2808                 1.3434
 IR Inten    --      1.4171                39.1867                16.0501

                     46                     47                     48
                      A                      A                      A
 Frequencies --   1136.8467              1147.4645              1158.8229
 Red. masses --      2.5167                 1.9152                 1.9155
 Frc consts  --      1.9164                 1.4857                 1.5155
 IR Inten    --     71.5522                 7.2143                15.1573

                     49                     50                     51
                      A                      A                      A
 Frequencies --   1182.1389              1191.3645              1215.1328
 Red. masses --      1.9422                 2.6766                 1.9977
 Frc consts  --      1.5991                 2.2383                 1.7380
 IR Inten    --      4.2000                 1.3258               271.4600

                     52                     53                     54
                      A                      A                      A
 Frequencies --   1222.7415              1243.5649              1277.3739
 Red. masses --      1.9245                 1.4536                 1.4303
 Frc consts  --      1.6952                 1.3244                 1.3750
 IR Inten    --      1.5552                20.8715                10.2243

                     55                     56                     57
                      A                      A                      A
 Frequencies --   1303.8158              1320.4285              1345.5449
 Red. masses --      1.3617                 1.2088                 1.5375
 Frc consts  --      1.3639                 1.2417                 1.6401
 IR Inten    --     24.7605                 2.9346                76.5549

                     58                     59                     60
                      A                      A                      A
 Frequencies --   1358.5851              1362.0147              1387.8274
 Red. masses --      1.4152                 1.5356                 1.4272
 Frc consts  --      1.5390                 1.6783                 1.6196
 IR Inten    --      3.6107                23.8166                10.7567

                     61                     62                     63
                      A                      A                      A
 Frequencies --   1398.6496              1408.2265              1409.1254
 Red. masses --      1.8270                 1.3544                 1.4965
 Frc consts  --      2.1058                 1.5825                 1.7507
 IR Inten    --     33.6105                 1.8859                15.3617

                     64                     65                     66
                      A                      A                      A
 Frequencies --   1431.0327              1438.2082              1443.9817
 Red. masses --      1.3027                 1.5201                 1.2934
 Frc consts  --      1.5718                 1.8525                 1.5889
 IR Inten    --      7.7860                46.4824                 8.6595

                     67                     68                     69
                      A                      A                      A
 Frequencies --   1448.7374              1456.3649              1494.5241
 Red. masses --      1.2773                 1.2350                 1.7540
 Frc consts  --      1.5795                 1.5433                 2.3082
 IR Inten    --      5.0001                 5.1710                54.2714

                     70                     71                     72
                      A                      A                      A
 Frequencies --   1506.7626              1522.2243              1524.0824
 Red. masses --      1.0984                 1.0494                 1.0474
 Frc consts  --      1.4693                 1.4327                 1.4335
 IR Inten    --      6.5437                 0.6030                 8.9169

                     73                     74                     75
                      A                      A                      A
 Frequencies --   1525.3779              1530.3731              1531.1387
 Red. masses --      1.0618                 1.0521                 1.0548
 Frc consts  --      1.4556                 1.4518                 1.4570
 IR Inten    --     10.1708                 2.3765                 1.7647

                     76                     77                     78
                      A                      A                      A
 Frequencies --   1536.5678              1538.3270              1542.8750
 Red. masses --      1.0676                 1.0534                 1.0477
 Frc consts  --      1.4851                 1.4688                 1.4695
 IR Inten    --     17.6458                 3.8458                 8.6840

                     79                     80                     81
                      A                      A                      A
 Frequencies --   1548.8179              1781.3743              1823.2121
 Red. masses --      1.0557                 8.0653                 9.8333
 Frc consts  --      1.4921                15.0793                19.2586
 IR Inten    --      7.8838               292.3104               236.7040

                     82                     83                     84
                      A                      A                      A
 Frequencies --   3007.0259              3042.4879              3045.9452
 Red. masses --      1.0828                 1.0354                 1.0365
 Frc consts  --      5.7687                 5.6472                 5.6656
 IR Inten    --     41.4344                22.5750                16.7433

                     85                     86                     87
                      A                      A                      A
 Frequencies --   3047.1717              3052.3981              3061.3128
 Red. masses --      1.0615                 1.0440                 1.0381
 Frc consts  --      5.8070                 5.7312                 5.7318
 IR Inten    --     18.0579                20.5138                15.9117

                     88                     89                     90
                      A                      A                      A
 Frequencies --   3064.3033              3069.5988              3078.0409
 Red. masses --      1.0765                 1.0839                 1.0740
 Frc consts  --      5.9556                 6.0173                 5.9952
 IR Inten    --      7.9280                 2.1093                26.8641

                     91                     92                     93
                      A                      A                      A
 Frequencies --   3102.6351              3108.0725              3111.4469
 Red. masses --      1.1019                 1.1013                 1.1006
 Frc consts  --      6.2495                 6.2680                 6.2779
 IR Inten    --      2.2685                81.3820                 8.0643

                     94                     95                     96
                      A                      A                      A
 Frequencies --   3115.3412              3118.1603              3121.1733
 Red. masses --      1.1019                 1.1010                 1.1011
 Frc consts  --      6.3009                 6.3070                 6.3199
 IR Inten    --      8.2736                48.1058                34.6516

                     97                     98                     99
                      A                      A                      A
 Frequencies --   3125.5049              3126.9333              3146.4273
 Red. masses --      1.0940                 1.1027                 1.1013
 Frc consts  --      6.2968                 6.3525                 6.4237
 IR Inten    --     35.3414                30.1752                15.5425

                    100                    101                    102
                      A                      A                      A
 Frequencies --   3161.2927              3588.4628              3676.2620
 Red. masses --      1.0941                 1.0757                 1.0639
 Frc consts  --      6.4422                 8.1615                 8.4715
 IR Inten    --      6.8995                15.1703                53.0974

 - Thermochemistry -
 -------------------
 Temperature   298.150 Kelvin.  Pressure   1.00000 Atm.
 Atom     1 has atomic number  6 and mass  12.00000

 Molecular mass:   215.15214 amu.
 Principal axes and moments of inertia in atomic units:
                           1         2         3
     Eigenvalues --  2415.100374821.403075731.79626
           X            0.99874  -0.04906  -0.01079
           Y            0.04887   0.99865  -0.01764
           Z            0.01164   0.01710   0.99979
 This molecule is an asymmetric top.
 Rotational symmetry number  1.
 Warning -- assumption of classical behavior for rotation
           may cause significant error
 Rotational temperatures (Kelvin)      0.03586     0.01796     0.01511
 Rotational constants (GHZ):           0.74727     0.37432     0.31486
 Zero-point vibrational energy     838185.2 (Joules/Mol)
                                  200.33106 (Kcal/Mol)
 Warning -- explicit consideration of  28 degrees of freedom as
           vibrations may cause significant error
 Vibrational temperatures:     32.19    41.92    63.93    70.58    90.30
          (Kelvin)            123.89   145.18   218.93   304.87   331.43
                              339.02   352.28   372.66   382.83   404.40
                              417.93   429.01   489.00   500.64   553.00
                              573.93   663.52   727.19   753.82   779.08
                              797.96   844.08   884.19   961.87   978.10
                             1071.11  1092.28  1200.24  1234.55  1283.44
                             1307.61  1329.39  1349.21  1360.30  1389.69
                             1407.73  1491.50  1513.37  1533.88  1576.02
                             1635.67  1650.95  1667.29  1700.83  1714.11
                             1748.31  1759.25  1789.21  1837.86  1875.90
                             1899.80  1935.94  1954.70  1959.64  1996.77
                             2012.34  2026.12  2027.42  2058.94  2069.26
                             2077.57  2084.41  2095.38  2150.29  2167.90
                             2190.14  2192.81  2194.68  2201.87  2202.97
                             2210.78  2213.31  2219.85  2228.40  2563.00
                             2623.20  4326.44  4377.46  4382.44  4384.20
                             4391.72  4404.55  4408.85  4416.47  4428.61
                             4464.00  4471.82  4476.68  4482.28  4486.34
                             4490.67  4496.90  4498.96  4527.01  4548.40
                             5163.00  5289.32

 Zero-point correction=                           0.319248 (Hartree/Particle)
 Thermal correction to Energy=                    0.336858
 Thermal correction to Enthalpy=                  0.337802
 Thermal correction to Gibbs Free Energy=         0.272230
 Sum of electronic and zero-point Energies=           -712.023555
 Sum of electronic and thermal Energies=              -712.005945
 Sum of electronic and thermal Enthalpies=            -712.005001
 Sum of electronic and thermal Free Energies=         -712.070573

                     E (Thermal)             CV                S
                      KCal/Mol        Cal/Mol-Kelvin    Cal/Mol-Kelvin
 Total                  211.381             64.699            138.009
 Electronic               0.000              0.000              0.000
 Translational            0.889              2.981             42.002
 Rotational               0.889              2.981             32.568
 Vibrational            209.604             58.738             63.439
 Vibration     1          0.593              1.985              6.412
 Vibration     2          0.593              1.984              5.888
 Vibration     3          0.595              1.980              5.051
 Vibration     4          0.595              1.978              4.855
 Vibration     5          0.597              1.972              4.368
 Vibration     6          0.601              1.959              3.747
 Vibration     7          0.604              1.948              3.437
 Vibration     8          0.619              1.900              2.645
 Vibration     9          0.643              1.823              2.027
 Vibration    10          0.652              1.795              1.876
 Vibration    11          0.655              1.786              1.836
 Vibration    12          0.660              1.771              1.767
 Vibration    13          0.668              1.748              1.668
 Vibration    14          0.672              1.735              1.622
 Vibration    15          0.681              1.709              1.527
 Vibration    16          0.686              1.691              1.471
 Vibration    17          0.691              1.677              1.427
 Vibration    18          0.720              1.596              1.213
 Vibration    19          0.726              1.579              1.175
 Vibration    20          0.753              1.504              1.022
 Vibration    21          0.765              1.472              0.967
 Vibration    22          0.819              1.336              0.763
 Vibration    23          0.861              1.238              0.645
 Vibration    24          0.879              1.197              0.601
 Vibration    25          0.897              1.158              0.562
 Vibration    26          0.910              1.130              0.535
 Vibration    27          0.944              1.060              0.473
 Vibration    28          0.974              1.001              0.425

 Optimization completed.
    -- Stationary point found.
 Normal termination of Gaussian 16 at Thu Dec 10 15:56:46 2020.

 ----------------------------------------------------------------------
 # B3LYP/6-311++G(d,p) empiricaldispersion=gd3bj scf=xqc pop=npa geom=c
 heck
 ----------------------------------------------------------------------

 ---------------------------------------
 CID_115731384_JID_5327_Energie_neutraal
 ---------------------------------------
 Structure from the checkpoint file:  "JID_5327.chk"
 Charge =  0 Multiplicity = 1

 SCF Done:  E(RB3LYP) =  -712.562751657     A.U. after   15 cycles
 Normal termination of Gaussian 16 at Thu Dec 10 16:02:17 2020.

 ----------------------------------------------------------------------
 # B3LYP/6-311++G(d,p) empiricaldispersion=gd3bj scf=xqc pop=npa geom=c
 heck
 ----------------------------------------------------------------------

 -------------------------------------
 CID_115731384_JID_5327_Energie_kation
 -------------------------------------
 Structure from the checkpoint file:  "JID_5327.chk"
 Charge =  1 Multiplicity = 2

 SCF Done:  E(UB3LYP) =  -712.229673057     A.U. after   27 cycles
 Normal termination of Gaussian 16 at Thu Dec 10 16:15:33 2020.
 Gaussian 16:  ES64L-G16RevA.03 25-Dec-2016

 ----------------------------------------------------------------------
 # B3LYP/6-311++G(d,p) empiricaldispersion=gd3bj scf=xqc pop=npa geom=c
 heck
 ----------------------------------------------------------------------

 ------------------------------------
 CID_115731384_JID_5327_Energie_anion
 ------------------------------------
 Structure from the checkpoint file:  "JID_5327.chk"
 Charge = -1 Multiplicity = 2

                         Standard orientation:
 ---------------------------------------------------------------------
 Center     Atomic      Atomic             Coordinates (Angstroms)
 Number     Number       Type             X           Y           Z
 ---------------------------------------------------------------------
      1          6           0        1.095145   -2.090453    0.353425
      2          6           0        1.901674   -0.856956    0.788424
      3          6           0        3.032860   -1.266466    1.740206
      4          6           0        2.436153   -0.014744   -0.399523
      5          6           0        3.194323   -0.843615   -1.443249
      6          6           0        1.305914    0.783546   -1.072513
      7          6           0        0.798056    1.908164   -0.174314
      8          8           0        1.568130    2.599051    0.482711
      9          7           0       -0.552005    2.175009   -0.163329
     10          6           0       -1.620554    1.317658   -0.638978
     11          6           0       -1.973650    0.175867    0.349675
     12          6           0       -2.719796    0.681178    1.584301
     13          6           0       -2.662342   -0.938944   -0.417060
     14          8           0       -2.236860   -1.405859   -1.454301
     15          8           0       -3.797714   -1.387247    0.163753
     16          1           0        1.745567   -2.842891   -0.106772
     17          1           0        0.306481   -1.854552   -0.369667
     18          1           0        0.619030   -2.561391    1.221791
     19          1           0        1.233158   -0.196574    1.361246
     20          1           0        3.752096   -1.930070    1.245330
     21          1           0        3.578046   -0.388477    2.103787
     22          1           0        2.637553   -1.804084    2.610020
     23          1           0        3.123509    0.728276    0.020411
     24          1           0        2.526719   -1.525123   -1.982939
     25          1           0        3.666013   -0.188416   -2.184394
     26          1           0        3.985647   -1.445555   -0.984148
     27          1           0        1.694695    1.270183   -1.977426
     28          1           0        0.509466    0.112119   -1.402475
     29          1           0       -0.792422    2.917588    0.482484
     30          1           0       -2.506061    1.941818   -0.803805
     31          1           0       -1.349079    0.890838   -1.604217
     32          1           0       -1.019619   -0.264239    0.665782
     33          1           0       -3.688223    1.114096    1.312124
     34          1           0       -2.901960   -0.123825    2.300522
     35          1           0       -2.124839    1.451975    2.085603
     36          1           0       -4.126876   -2.105740   -0.409640
 ---------------------------------------------------------------------

 SCF Done:  E(UB3LYP) =  -712.553770170     A.U. after   33 cycles
 SCF Done:  E(UB3LYP) =  -712.553770170     a.u. after    1 cycles

 The electronic state is 2-A.
 Alpha  occ. eigenvalues --  -19.07048 -19.01708 -18.99663 -14.24529 -10.20846
 Alpha  occ. eigenvalues --  -10.18277 -10.12134 -10.10021 -10.08677 -10.08601
 Alpha  occ. eigenvalues --  -10.08452 -10.07509 -10.07107 -10.06700 -10.06465
 Alpha  occ. eigenvalues --   -1.01221  -0.94811  -0.92268  -0.83425  -0.73867
 Alpha  occ. eigenvalues --   -0.71106  -0.67090  -0.62320  -0.60453  -0.59526
 Alpha  occ. eigenvalues --   -0.56753  -0.53980  -0.50342  -0.48199  -0.44625
 Alpha  occ. eigenvalues --   -0.42454  -0.40867  -0.39414  -0.39001  -0.38024
 Alpha  occ. eigenvalues --   -0.37205  -0.36258  -0.34894  -0.33894  -0.33124
 Alpha  occ. eigenvalues --   -0.32376  -0.31443  -0.30920  -0.30559  -0.30409
 Alpha  occ. eigenvalues --   -0.28941  -0.28700  -0.28002  -0.27613  -0.26484
 Alpha  occ. eigenvalues --   -0.26180  -0.25916  -0.23350  -0.23094  -0.22500
 Alpha  occ. eigenvalues --   -0.22334  -0.18835  -0.17004  -0.16359   0.04145
 Alpha virt. eigenvalues --    0.06113   0.06742   0.07193   0.07872   0.08567
 Alpha virt. eigenvalues --    0.08720   0.09030   0.09958   0.10264   0.10683
 Alpha virt. eigenvalues --    0.11073   0.11165   0.11642   0.12452   0.12893

  Beta  occ. eigenvalues --  -19.06980 -19.01676 -18.99661 -14.24514 -10.20822
  Beta  occ. eigenvalues --  -10.18277 -10.12108 -10.10008 -10.08669 -10.08600
  Beta  occ. eigenvalues --  -10.08446 -10.07496 -10.07096 -10.06654 -10.06447
  Beta  occ. eigenvalues --   -1.01122  -0.94805  -0.92183  -0.83397  -0.73855
  Beta  occ. eigenvalues --   -0.71055  -0.67073  -0.62298  -0.60391  -0.59497
  Beta  occ. eigenvalues --   -0.56638  -0.53947  -0.50251  -0.48141  -0.44600
  Beta  occ. eigenvalues --   -0.42400  -0.40846  -0.39370  -0.38929  -0.38003
  Beta  occ. eigenvalues --   -0.37183  -0.36184  -0.34873  -0.33857  -0.33068
  Beta  occ. eigenvalues --   -0.32331  -0.31424  -0.30895  -0.30503  -0.30389
  Beta  occ. eigenvalues --   -0.28922  -0.28666  -0.27965  -0.27590  -0.26455
  Beta  occ. eigenvalues --   -0.26150  -0.25877  -0.23327  -0.23076  -0.22437
  Beta  occ. eigenvalues --   -0.22289  -0.18764  -0.16989  -0.16339
  Beta virt. eigenvalues --    0.06034   0.07072   0.07216   0.08055   0.08218
  Beta virt. eigenvalues --    0.08893   0.09033   0.09284   0.10352   0.10465
  Beta virt. eigenvalues --    0.10956   0.11161   0.11358   0.11745   0.12692

 Mulliken charges and spin densities:
               1          2
     1  C   -0.210384  -0.548856
     2  C   -0.226279   0.625472
     3  C   -0.347161  -0.272952
     4  C    0.091658  -0.002163
     5  C   -0.110164  -0.543897
     6  C    0.366274  -0.437607
     7  C   -0.580002   0.251278
     8  O   -0.317168   0.018875
     9  N   -0.153785   0.063565
    10  C    0.462509  -1.141015
    11  C   -0.432396   0.859103
    12  C    2.059560  -2.709138
    13  C   -1.022641   0.779421
    14  O   -0.253864  -0.007643
    15  O   -0.111013   0.015066
    16  H    0.006955   0.138611
    17  H    0.115698   0.017381
    18  H   -0.141133   0.303922
    19  H    0.097728   0.098268
    20  H    0.066040   0.053755
    21  H    0.042425   0.105970
    22  H    0.009224   0.132908
    23  H    0.286085  -0.051767
    24  H    0.036429   0.132274
    25  H    0.092935   0.034164
    26  H    0.032056   0.099910
    27  H    0.036164   0.184920
    28  H    0.444244  -0.292508
    29  H   -0.022815   0.329818
    30  H   -0.662227   0.858618
    31  H    0.212003   0.029826
    32  H    0.465694  -0.256669
    33  H   -0.238628   0.425614
    34  H   -0.367619   0.559625
    35  H   -0.038081   0.167511
    36  H   -0.688321   0.978339
 Sum of Mulliken charges =  -1.00000   1.00000

 Dipole moment (field-independent basis, Debye):
    X=              7.5401    Y=              0.6899    Z=             -1.7897  Tot=              7.7803
 Quadrupole moment (field-independent basis, Debye-Ang):
   XX=           -174.1948   YY=           -147.2832   ZZ=           -127.4259
   XY=            -12.1284   XZ=             -0.2278   YZ=             -3.1441

 Summary of Natural Population Analysis:

                                       Natural Population
                Natural  -----------------------------------------------
    Atom  No    Charge         Core      Valence    Rydberg      Total
 -----------------------------------------------------------------------
      C    1   -0.29419      0.99965     2.28774    0.00680     3.29419
      C    2   -0.11491      0.99959     2.10490    0.01041     3.11491
      C    3   -0.28172      0.99965     2.27735    0.00472     3.28172
      C    4   -0.10867      0.99958     2.09945    0.00963     3.10867
      C    5   -0.28645      0.99965     2.28203    0.00477     3.28645
      C    6   -0.23662      0.99956     2.22931    0.00775     3.23662
      C    7    0.34719      0.99967     1.62976    0.02339     2.65281
      O    8   -0.32676      0.99988     3.32139    0.00549     4.32676
      N    9   -0.31827      0.99967     2.80836    0.01024     3.81827
      C   10   -0.08531      0.99959     2.07408    0.01164     3.08531
      C   11   -0.16724      0.99954     2.15628    0.01142     3.16724
      C   12   -0.28619      0.99965     2.27983    0.00671     3.28619
      C   13    0.41441      0.99967     1.56035    0.02557     2.58559
      O   14   -0.31390      0.99987     3.30802    0.00601     4.31390
      O   15   -0.33755      0.99988     3.33043    0.00724     4.33755
      H   16    0.09632      0.00000     0.40284    0.00084     0.40368
      H   17    0.10530      0.00000     0.39344    0.00126     0.39470
      H   18    0.10219      0.00000     0.39685    0.00096     0.39781
      H   19    0.09671      0.00000     0.40115    0.00213     0.40329
      H   20    0.09367      0.00000     0.40545    0.00087     0.40633
      H   21    0.09974      0.00000     0.39946    0.00081     0.40026
      H   22    0.09966      0.00000     0.39957    0.00077     0.40034
      H   23    0.10622      0.00000     0.39203    0.00175     0.39378
      H   24    0.09877      0.00000     0.40040    0.00082     0.40123
      H   25    0.09790      0.00000     0.40124    0.00086     0.40210
      H   26    0.09897      0.00000     0.40024    0.00079     0.40103
      H   27    0.11151      0.00000     0.38754    0.00094     0.38849
      H   28    0.10801      0.00000     0.39047    0.00152     0.39199
      H   29    0.19545      0.00000     0.30203    0.00251     0.30455
      H   30    0.10377      0.00000     0.39466    0.00157     0.39623
      H   31    0.10810      0.00000     0.39047    0.00143     0.39190
      H   32    0.11418      0.00000     0.38230    0.00353     0.38582
      H   33    0.10524      0.00000     0.39278    0.00198     0.39476
      H   34    0.10954      0.00000     0.38894    0.00152     0.39046
      H   35    0.09865      0.00000     0.39991    0.00144     0.40135
      H   36    0.24625      0.00000     0.23074    0.02301     0.25375
 =======================================================================
   * Total *   -0.00000     14.99509    43.80179    0.20311    59.00000

 Normal termination of Gaussian 16 at Thu Dec 10 16:34:59 2020.
