 Gaussian 16, Revision A.03,

 -----------------------------------------------------------
 # opt freq B3LYP/6-31G(d) empiricaldispersion=gd3bj scf=xqc
 -----------------------------------------------------------

 -------------------------------
 CID_130646398_JID_4675_neutraal
 -------------------------------
 Symbolic Z-matrix:
 Charge =  0 Multiplicity = 1

 SCF Done:  E(RB3LYP) =  -619.812061176     A.U. after   14 cycles
 SCF Done:  E(RB3LYP) =  -619.813843893     A.U. after   13 cycles
 SCF Done:  E(RB3LYP) =  -619.806658623     A.U. after   15 cycles
 SCF Done:  E(RB3LYP) =  -619.815474677     A.U. after   12 cycles
 SCF Done:  E(RB3LYP) =  -619.815873349     A.U. after   12 cycles
 SCF Done:  E(RB3LYP) =  -619.815908893     A.U. after   12 cycles
 SCF Done:  E(RB3LYP) =  -619.816155140     A.U. after   11 cycles
 SCF Done:  E(RB3LYP) =  -619.816698153     A.U. after   14 cycles
 SCF Done:  E(RB3LYP) =  -619.814635059     A.U. after   16 cycles
 SCF Done:  E(RB3LYP) =  -619.817292471     A.U. after   14 cycles
 SCF Done:  E(RB3LYP) =  -619.817890506     A.U. after    8 cycles
 SCF Done:  E(RB3LYP) =  -619.817891528     A.U. after    9 cycles
 SCF Done:  E(RB3LYP) =  -619.817891832     A.U. after    8 cycles
 SCF Done:  E(RB3LYP) =  -619.817892125     A.U. after    8 cycles
 SCF Done:  E(RB3LYP) =  -619.817892130     A.U. after    6 cycles
 Optimization completed.
    -- Stationary point found.
 Normal termination of Gaussian 16 at Thu Dec 10 10:35:42 2020.

 --------------------------------------------------------------------
 #N Geom=AllCheck Guess=TCheck SCRF=Check GenChk RB3LYP/6-31G(d) Freq
 --------------------------------------------------------------------

 Structure from the checkpoint file:  "JID_4675.chk"
 -------------------------------
 CID_130646398_JID_4675_neutraal
 -------------------------------
 Charge =  0 Multiplicity = 1

 SCF Done:  E(RB3LYP) =  -619.817892130     A.U. after    1 cycles

  Exact polarizability: 139.537   1.515 119.026  -1.594  -0.215 112.633
 Approx polarizability: 168.001   7.359 186.174  -0.482   1.929 173.275

                      1                      2                      3
                      A                      A                      A
 Frequencies --     31.6526                57.2531                70.7166
 Red. masses --      2.9464                 5.4994                 3.5324
 Frc consts  --      0.0017                 0.0106                 0.0104
 IR Inten    --      0.4926                 7.7339                 0.1348

                      4                      5                      6
                      A                      A                      A
 Frequencies --     98.8278               168.7598               186.6722
 Red. masses --      3.5130                 2.4192                 2.8279
 Frc consts  --      0.0202                 0.0406                 0.0581
 IR Inten    --      1.0194                 1.1089                 1.7111

                      7                      8                      9
                      A                      A                      A
 Frequencies --    211.9125               240.3617               245.3312
 Red. masses --      2.7496                 1.1165                 3.0534
 Frc consts  --      0.0727                 0.0380                 0.1083
 IR Inten    --      0.5312                 0.0495                 3.1987

                     10                     11                     12
                      A                      A                      A
 Frequencies --    255.7270               307.0403               318.6534
 Red. masses --      2.7027                 2.0883                 2.9803
 Frc consts  --      0.1041                 0.1160                 0.1783
 IR Inten    --      5.9184                 0.7635                 3.3646

                     13                     14                     15
                      A                      A                      A
 Frequencies --    323.7716               346.8880               414.0826
 Red. masses --      2.2002                 2.1365                 2.3699
 Frc consts  --      0.1359                 0.1515                 0.2394
 IR Inten    --      3.0381                 1.2024                 0.3503

                     16                     17                     18
                      A                      A                      A
 Frequencies --    434.9030               454.7173               477.1101
 Red. masses --      2.1236                 2.5971                 3.0259
 Frc consts  --      0.2366                 0.3164                 0.4058
 IR Inten    --      0.8464                 0.2396                 0.1319

                     19                     20                     21
                      A                      A                      A
 Frequencies --    577.9712               609.0607               668.7036
 Red. masses --      2.3873                 3.2008                 2.9811
 Frc consts  --      0.4699                 0.6996                 0.7854
 IR Inten    --      0.5042                 2.2889                 4.0954

                     22                     23                     24
                      A                      A                      A
 Frequencies --    739.6350               746.3051               797.4542
 Red. masses --      4.5623                 3.1974                 2.0910
 Frc consts  --      1.4705                 1.0492                 0.7834
 IR Inten    --      8.5256                 8.9412                 3.6152

                     25                     26                     27
                      A                      A                      A
 Frequencies --    797.9219               851.5949               860.5914
 Red. masses --      1.6268                 2.8167                 1.7287
 Frc consts  --      0.6103                 1.2035                 0.7544
 IR Inten    --      1.7599                 2.9333                 1.1097

                     28                     29                     30
                      A                      A                      A
 Frequencies --    915.1209               933.9635               945.4515
 Red. masses --      1.8655                 1.9130                 1.9558
 Frc consts  --      0.9204                 0.9832                 1.0301
 IR Inten    --      4.9901                13.6762                 5.5357

                     31                     32                     33
                      A                      A                      A
 Frequencies --    961.5846               964.9133               971.9565
 Red. masses --      1.4777                 2.9733                 2.2923
 Frc consts  --      0.8051                 1.6311                 1.2759
 IR Inten    --      5.9164                11.7809                 6.0524

                     34                     35                     36
                      A                      A                      A
 Frequencies --    986.0862               988.7725              1013.7819
 Red. masses --      2.5525                 2.2818                 1.4857
 Frc consts  --      1.4624                 1.3144                 0.8996
 IR Inten    --     13.4770                 6.0125                 6.5151

                     37                     38                     39
                      A                      A                      A
 Frequencies --   1029.5327              1035.3759              1077.0314
 Red. masses --      1.8581                 2.2443                 1.7299
 Frc consts  --      1.1604                 1.4175                 1.1823
 IR Inten    --      0.8968                 0.3687                 2.5992

                     40                     41                     42
                      A                      A                      A
 Frequencies --   1100.7022              1115.0700              1126.3910
 Red. masses --      2.1316                 2.7531                 2.4524
 Frc consts  --      1.5216                 2.0169                 1.8332
 IR Inten    --      6.0544                23.3351                14.4173

                     43                     44                     45
                      A                      A                      A
 Frequencies --   1131.1656              1158.5907              1180.7697
 Red. masses --      2.2412                 2.3781                 1.5128
 Frc consts  --      1.6896                 1.8808                 1.2427
 IR Inten    --     26.9398                 9.1556                 2.2185

                     46                     47                     48
                      A                      A                      A
 Frequencies --   1196.3380              1215.7197              1241.2155
 Red. masses --      1.8610                 2.3707                 1.3064
 Frc consts  --      1.5693                 2.0644                 1.1858
 IR Inten    --      0.5287                 4.3802                 5.1374

                     49                     50                     51
                      A                      A                      A
 Frequencies --   1250.9334              1281.5904              1286.0605
 Red. masses --      1.2585                 1.3145                 1.3076
 Frc consts  --      1.1603                 1.2721                 1.2743
 IR Inten    --      8.2507                 5.9958                 1.0030

                     52                     53                     54
                      A                      A                      A
 Frequencies --   1304.5724              1313.9444              1323.3045
 Red. masses --      1.2872                 1.2676                 1.4685
 Frc consts  --      1.2908                 1.2893                 1.5151
 IR Inten    --      0.6549                 0.4921                 9.8555

                     55                     56                     57
                      A                      A                      A
 Frequencies --   1330.1586              1356.2269              1364.4269
 Red. masses --      1.3494                 1.3175                 1.3432
 Frc consts  --      1.4067                 1.4278                 1.4733
 IR Inten    --      2.5755                 0.8989                 3.5516

                     58                     59                     60
                      A                      A                      A
 Frequencies --   1371.1726              1376.7989              1388.0848
 Red. masses --      1.2498                 1.3528                 1.3517
 Frc consts  --      1.3845                 1.5109                 1.5344
 IR Inten    --      1.1134                 0.5629                 3.3424

                     61                     62                     63
                      A                      A                      A
 Frequencies --   1401.7492              1408.5822              1420.3031
 Red. masses --      1.4469                 1.4894                 1.3399
 Frc consts  --      1.6750                 1.7411                 1.5925
 IR Inten    --      0.0702                 1.4235                 5.6929

                     64                     65                     66
                      A                      A                      A
 Frequencies --   1426.3022              1440.7114              1442.7385
 Red. masses --      1.5648                 1.2415                 1.2300
 Frc consts  --      1.8756                 1.5183                 1.5084
 IR Inten    --      1.3777                 1.9390                 3.0783

                     67                     68                     69
                      A                      A                      A
 Frequencies --   1504.0050              1512.6553              1516.8448
 Red. masses --      1.0849                 1.0910                 1.0901
 Frc consts  --      1.4459                 1.4709                 1.4778
 IR Inten    --      3.5260                 4.1009                 1.2452

                     70                     71                     72
                      A                      A                      A
 Frequencies --   1527.2126              1528.1550              1531.0882
 Red. masses --      1.0647                 1.0712                 1.0611
 Frc consts  --      1.4631                 1.4739                 1.4655
 IR Inten    --      0.9928                12.1258                 2.4849

                     73                     74                     75
                      A                      A                      A
 Frequencies --   1533.5262              1536.3741              1553.0451
 Red. masses --      1.0867                 1.0841                 1.1070
 Frc consts  --      1.5058                 1.5077                 1.5731
 IR Inten    --      4.3139                 1.9737                 1.5014

                     76                     77                     78
                      A                      A                      A
 Frequencies --   1822.9384              2881.7501              2987.8762
 Red. masses --     10.6571                 1.0830                 1.0733
 Frc consts  --     20.8657                 5.2990                 5.6453
 IR Inten    --    133.9212                94.5627                41.0470

                     79                     80                     81
                      A                      A                      A
 Frequencies --   2991.9361              2995.8785              3012.7892
 Red. masses --      1.0812                 1.0735                 1.0680
 Frc consts  --      5.7024                 5.6768                 5.7116
 IR Inten    --      9.4313               127.2234                32.9407

                     82                     83                     84
                      A                      A                      A
 Frequencies --   3036.7957              3042.0734              3052.8391
 Red. masses --      1.0445                 1.0511                 1.0660
 Frc consts  --      5.6756                 5.7312                 5.8535
 IR Inten    --     11.5242                61.3996                 4.9651

                     85                     86                     87
                      A                      A                      A
 Frequencies --   3055.6695              3070.2026              3074.4813
 Red. masses --      1.0677                 1.0891                 1.0843
 Frc consts  --      5.8736                 6.0485                 6.0386
 IR Inten    --     27.8165                52.0534                17.6491

                     88                     89                     90
                      A                      A                      A
 Frequencies --   3078.4796              3090.3935              3095.5058
 Red. masses --      1.0977                 1.0771                 1.0885
 Frc consts  --      6.1292                 6.0610                 6.1456
 IR Inten    --     25.2060                 8.9963                41.1966

                     91                     92                     93
                      A                      A                      A
 Frequencies --   3103.5485              3105.5059              3109.4952
 Red. masses --      1.1012                 1.1009                 1.1025
 Frc consts  --      6.2493                 6.2554                 6.2805
 IR Inten    --     27.0290                50.9469                35.9019

                     94                     95                     96
                      A                      A                      A
 Frequencies --   3117.5967              3131.3119              3136.0100
 Red. masses --      1.0939                 1.0915                 1.1037
 Frc consts  --      6.2643                 6.3057                 6.3950
 IR Inten    --     21.0164                23.3407                43.7137

 - Thermochemistry -
 -------------------
 Temperature   298.150 Kelvin.  Pressure   1.00000 Atm.
 Atom     1 has atomic number  6 and mass  12.00000

 Molecular mass:   196.14633 amu.
 Principal axes and moments of inertia in atomic units:
                           1         2         3
     Eigenvalues --  1545.999993972.859364463.31626
           X            0.99985  -0.01477  -0.00910
           Y            0.01471   0.99987  -0.00667
           Z            0.00919   0.00653   0.99994
 This molecule is an asymmetric top.
 Rotational symmetry number  1.
 Warning -- assumption of classical behavior for rotation
           may cause significant error
 Rotational temperatures (Kelvin)      0.05602     0.02180     0.01941
 Rotational constants (GHZ):           1.16736     0.45427     0.40435
 Zero-point vibrational energy     806323.7 (Joules/Mol)
                                  192.71599 (Kcal/Mol)
 Warning -- explicit consideration of  20 degrees of freedom as
           vibrations may cause significant error
 Vibrational temperatures:     45.54    82.37   101.75   142.19   242.81
          (Kelvin)            268.58   304.89   345.83   352.98   367.93
                              441.76   458.47   465.84   499.09   595.77
                              625.73   654.24   686.46   831.57   876.30
                              962.12  1064.17  1073.77  1147.36  1148.03
                             1225.26  1238.20  1316.65  1343.77  1360.29
                             1383.51  1388.29  1398.43  1418.76  1422.62
                             1458.61  1481.27  1489.68  1549.61  1583.66
                             1604.34  1620.63  1627.50  1666.95  1698.86
                             1721.26  1749.15  1785.83  1799.81  1843.92
                             1850.35  1876.99  1890.47  1903.94  1913.80
                             1951.31  1963.11  1972.81  1980.91  1997.14
                             2016.80  2026.64  2043.50  2052.13  2072.86
                             2075.78  2163.93  2176.37  2182.40  2197.32
                             2198.67  2202.89  2206.40  2210.50  2234.49
                             2622.80  4146.20  4298.89  4304.73  4310.40
                             4334.73  4369.27  4376.87  4392.35  4396.43
                             4417.34  4423.49  4429.25  4446.39  4453.74
                             4465.31  4468.13  4473.87  4485.53  4505.26
                             4512.02

 Zero-point correction=                           0.307112 (Hartree/Particle)
 Thermal correction to Energy=                    0.320801
 Thermal correction to Enthalpy=                  0.321745
 Thermal correction to Gibbs Free Energy=         0.266447
 Sum of electronic and zero-point Energies=           -619.510780
 Sum of electronic and thermal Energies=              -619.497091
 Sum of electronic and thermal Enthalpies=            -619.496147
 Sum of electronic and thermal Free Energies=         -619.551445

                     E (Thermal)             CV                S
                      KCal/Mol        Cal/Mol-Kelvin    Cal/Mol-Kelvin
 Total                  201.305             53.311            116.385
 Electronic               0.000              0.000              0.000
 Translational            0.889              2.981             41.726
 Rotational               0.889              2.981             31.683
 Vibrational            199.528             47.349             42.975
 Vibration     1          0.594              1.983              5.723
 Vibration     2          0.596              1.975              4.550
 Vibration     3          0.598              1.968              4.133
 Vibration     4          0.604              1.950              3.477
 Vibration     5          0.625              1.881              2.449
 Vibration     6          0.632              1.858              2.261
 Vibration     7          0.643              1.823              2.027
 Vibration     8          0.657              1.779              1.800
 Vibration     9          0.660              1.771              1.764
 Vibration    10          0.666              1.753              1.691
 Vibration    11          0.697              1.660              1.378
 Vibration    12          0.705              1.638              1.317
 Vibration    13          0.708              1.628              1.291
 Vibration    14          0.725              1.582              1.180
 Vibration    15          0.778              1.440              0.912
 Vibration    16          0.795              1.394              0.843
 Vibration    17          0.813              1.350              0.782
 Vibration    18          0.834              1.301              0.718
 Vibration    19          0.934              1.079              0.489
 Vibration    20          0.968              1.013              0.434

 Optimization completed.
    -- Stationary point found.
 Normal termination of Gaussian 16 at Thu Dec 10 10:47:29 2020.

 ----------------------------------------------------------------------
 # B3LYP/6-311++G(d,p) empiricaldispersion=gd3bj scf=xqc pop=npa geom=c
 heck
 ----------------------------------------------------------------------

 ---------------------------------------
 CID_130646398_JID_4675_Energie_neutraal
 ---------------------------------------
 Structure from the checkpoint file:  "JID_4675.chk"
 Charge =  0 Multiplicity = 1

 SCF Done:  E(RB3LYP) =  -619.991396147     A.U. after   14 cycles
 Normal termination of Gaussian 16 at Thu Dec 10 10:52:25 2020.

 ----------------------------------------------------------------------
 # B3LYP/6-311++G(d,p) empiricaldispersion=gd3bj scf=xqc pop=npa geom=c
 heck
 ----------------------------------------------------------------------

 -------------------------------------
 CID_130646398_JID_4675_Energie_kation
 -------------------------------------
 Structure from the checkpoint file:  "JID_4675.chk"
 Charge =  1 Multiplicity = 2

 SCF Done:  E(UB3LYP) =  -619.661638039     A.U. after   31 cycles
 Normal termination of Gaussian 16 at Thu Dec 10 11:10:05 2020.
 Gaussian 16:  ES64L-G16RevA.03 25-Dec-2016

 ----------------------------------------------------------------------
 # B3LYP/6-311++G(d,p) empiricaldispersion=gd3bj scf=xqc pop=npa geom=c
 heck
 ----------------------------------------------------------------------

 ------------------------------------
 CID_130646398_JID_4675_Energie_anion
 ------------------------------------
 Structure from the checkpoint file:  "JID_4675.chk"
 Charge = -1 Multiplicity = 2

                         Standard orientation:
 ---------------------------------------------------------------------
 Center     Atomic      Atomic             Coordinates (Angstroms)
 Number     Number       Type             X           Y           Z
 ---------------------------------------------------------------------
      1          6           0        4.063443   -1.026928   -0.208270
      2          6           0        2.572212   -0.915034    0.115348
      3          6           0        2.277899    0.292630    1.016953
      4          6           0        0.784773    0.428229    1.339710
      5          6           0       -0.099769    0.458406    0.076375
      6          6           0        0.222123   -0.730476   -0.850284
      7          6           0        1.721604   -0.827691   -1.159948
      8          6           0        0.159322    1.760211   -0.684742
      9          8           0        0.471355    2.811352   -0.169591
     10          6           0       -1.608368    0.513373    0.483524
     11          6           0       -2.101617   -0.737777    1.268063
     12          6           0       -3.220096   -1.322715    0.380177
     13          8           0       -2.995342   -0.797701   -0.922850
     14          6           0       -2.592931    0.547459   -0.712517
     15          1           0        4.410309   -0.138912   -0.751847
     16          1           0        4.663235   -1.112782    0.705303
     17          1           0        4.271818   -1.903408   -0.833085
     18          1           0        2.265933   -1.824283    0.657773
     19          1           0        2.848407    0.211334    1.950845
     20          1           0        2.628754    1.206269    0.518451
     21          1           0        0.607232    1.341352    1.917020
     22          1           0        0.476794   -0.417517    1.966226
     23          1           0       -0.354323   -0.650929   -1.779447
     24          1           0       -0.106202   -1.661198   -0.373818
     25          1           0        2.042538    0.053488   -1.737379
     26          1           0        1.909923   -1.698234   -1.800844
     27          1           0        0.005329    1.704633   -1.787196
     28          1           0       -1.732504    1.416385    1.090385
     29          1           0       -2.468516   -0.471339    2.263033
     30          1           0       -1.298543   -1.465419    1.404197
     31          1           0       -3.202289   -2.413118    0.307647
     32          1           0       -4.212107   -1.012211    0.746711
     33          1           0       -3.464690    1.173895   -0.460548
     34          1           0       -2.170774    0.914664   -1.650233
 ---------------------------------------------------------------------

 SCF Done:  E(UB3LYP) =  -619.980390328     A.U. after   33 cycles
 SCF Done:  E(UB3LYP) =  -619.980390328     a.u. after    1 cycles

 The electronic state is 2-A.
 Alpha  occ. eigenvalues --  -19.02155 -18.98970 -10.11845 -10.11237 -10.11046
 Alpha  occ. eigenvalues --  -10.07421 -10.07362 -10.06591 -10.06244 -10.05904
 Alpha  occ. eigenvalues --  -10.05772 -10.05686 -10.05482 -10.05339  -0.94205
 Alpha  occ. eigenvalues --   -0.92245  -0.74104  -0.69660  -0.65153  -0.63670
 Alpha  occ. eigenvalues --   -0.63179  -0.57936  -0.52038  -0.51232  -0.49655
 Alpha  occ. eigenvalues --   -0.48048  -0.45905  -0.41525  -0.40079  -0.38855
 Alpha  occ. eigenvalues --   -0.36875  -0.35555  -0.33897  -0.33833  -0.33666
 Alpha  occ. eigenvalues --   -0.32718  -0.30632  -0.30106  -0.29483  -0.27931
 Alpha  occ. eigenvalues --   -0.27142  -0.27083  -0.26084  -0.25086  -0.24330
 Alpha  occ. eigenvalues --   -0.23796  -0.23143  -0.22832  -0.22065  -0.21398
 Alpha  occ. eigenvalues --   -0.19437  -0.19002  -0.15727  -0.12979   0.04698
 Alpha virt. eigenvalues --    0.06719   0.06919   0.08154   0.08187   0.09100
 Alpha virt. eigenvalues --    0.09554   0.09669   0.10634   0.10944   0.11560
 Alpha virt. eigenvalues --    0.12152   0.12184   0.12894   0.13211   0.14041

  Beta  occ. eigenvalues --  -19.02142 -18.98741 -10.11594 -10.11233 -10.11025
  Beta  occ. eigenvalues --  -10.07393 -10.07371 -10.06579 -10.06209 -10.05888
  Beta  occ. eigenvalues --  -10.05748 -10.05667 -10.05476 -10.05324  -0.94182
  Beta  occ. eigenvalues --   -0.91796  -0.74040  -0.69592  -0.65091  -0.63641
  Beta  occ. eigenvalues --   -0.63140  -0.57839  -0.51783  -0.51179  -0.49593
  Beta  occ. eigenvalues --   -0.47799  -0.45840  -0.41340  -0.40007  -0.38789
  Beta  occ. eigenvalues --   -0.36806  -0.35467  -0.33802  -0.33745  -0.33624
  Beta  occ. eigenvalues --   -0.32626  -0.30484  -0.29887  -0.29425  -0.27780
  Beta  occ. eigenvalues --   -0.27113  -0.26672  -0.26023  -0.24752  -0.24244
  Beta  occ. eigenvalues --   -0.23538  -0.23042  -0.22770  -0.22030  -0.21255
  Beta  occ. eigenvalues --   -0.19347  -0.18960  -0.15684  -0.12806
  Beta virt. eigenvalues --    0.06971   0.07430   0.08503   0.08620   0.09163
  Beta virt. eigenvalues --    0.09348   0.09923   0.10306   0.10865   0.11240
  Beta virt. eigenvalues --    0.11764   0.12248   0.12423   0.13022   0.13265

 Mulliken charges and spin densities:
               1          2
     1  C    0.443426  -1.246389
     2  C   -0.424903   0.946998
     3  C   -0.139697  -0.525315
     4  C   -0.353305  -0.008454
     5  C    2.311437  -1.547290
     6  C   -1.530859   1.145258
     7  C    0.500381  -1.348814
     8  C   -0.249007  -0.105234
     9  O   -0.249608   0.079782
    10  C   -1.945030   2.348956
    11  C    1.153729  -1.427706
    12  C    0.441868  -0.812435
    13  O   -0.051194   0.010024
    14  C   -0.176174  -0.367450
    15  H    0.103401   0.021168
    16  H   -0.059242   0.187841
    17  H   -0.180746   0.311829
    18  H   -0.246957   0.409879
    19  H    0.065001   0.084944
    20  H    0.171012   0.000691
    21  H    0.081454   0.116294
    22  H   -0.108660   0.238741
    23  H    0.117054   0.103079
    24  H    0.019709   0.141587
    25  H    0.030994   0.121004
    26  H   -0.170556   0.349778
    27  H    0.063225   0.015790
    28  H    0.080475   0.159559
    29  H   -0.633109   0.818838
    30  H    0.197422  -0.067332
    31  H   -0.298401   0.465858
    32  H   -0.081505   0.214925
    33  H   -0.081180   0.208427
    34  H    0.199544  -0.044831
 Sum of Mulliken charges =  -1.00000   1.00000

 Dipole moment (field-independent basis, Debye):
    X=              1.0134    Y=              1.6870    Z=             -2.5112  Tot=              3.1904
 Quadrupole moment (field-independent basis, Debye-Ang):
   XX=           -145.7841   YY=           -133.2303   ZZ=           -121.8606
   XY=             -0.8142   XZ=              7.1876   YZ=             -0.1169

 Summary of Natural Population Analysis:

                                       Natural Population
                Natural  -----------------------------------------------
    Atom  No    Charge         Core      Valence    Rydberg      Total
 -----------------------------------------------------------------------
      C    1   -0.28118      0.99965     2.27528    0.00626     3.28118
      C    2   -0.11287      0.99960     2.10389    0.00939     3.11287
      C    3   -0.18759      0.99961     2.17898    0.00901     3.18759
      C    4   -0.18942      0.99959     2.17863    0.01119     3.18942
      C    5   -0.07861      0.99952     2.06576    0.01334     3.07861
      C    6   -0.19338      0.99959     2.18194    0.01184     3.19338
      C    7   -0.18639      0.99961     2.17721    0.00957     3.18639
      C    8    0.26186      0.99965     1.71677    0.02172     2.73814
      O    9   -0.26684      0.99988     3.26037    0.00659     4.26684
      C   10   -0.10905      0.99956     2.09713    0.01235     3.10905
      C   11   -0.20554      0.99962     2.19717    0.00875     3.20554
      C   12   -0.01118      0.99960     1.99835    0.01323     3.01118
      O   13   -0.29889      0.99990     3.29052    0.00848     4.29889
      C   14   -0.01203      0.99957     1.99995    0.01251     3.01203
      H   15    0.09429      0.00000     0.40487    0.00085     0.40571
      H   16    0.09720      0.00000     0.40197    0.00083     0.40280
      H   17    0.09833      0.00000     0.40078    0.00090     0.40167
      H   18    0.09189      0.00000     0.40599    0.00212     0.40811
      H   19    0.09686      0.00000     0.40235    0.00079     0.40314
      H   20    0.09840      0.00000     0.40035    0.00125     0.40160
      H   21    0.10803      0.00000     0.39090    0.00107     0.39197
      H   22    0.09820      0.00000     0.40027    0.00153     0.40180
      H   23    0.10249      0.00000     0.39629    0.00122     0.39751
      H   24    0.10174      0.00000     0.39641    0.00185     0.39826
      H   25    0.09343      0.00000     0.40544    0.00113     0.40657
      H   26    0.09937      0.00000     0.39961    0.00101     0.40063
      H   27    0.04029      0.00000     0.45736    0.00235     0.45971
      H   28    0.10513      0.00000     0.39329    0.00158     0.39487
      H   29    0.10643      0.00000     0.39105    0.00252     0.39357
      H   30    0.10206      0.00000     0.39623    0.00170     0.39794
      H   31    0.09055      0.00000     0.40816    0.00129     0.40945
      H   32    0.07599      0.00000     0.42236    0.00165     0.42401
      H   33    0.07826      0.00000     0.42055    0.00119     0.42174
      H   34    0.09219      0.00000     0.40648    0.00133     0.40781
 =======================================================================
   * Total *   -0.00000     13.99497    39.82264    0.18239    54.00000

 Normal termination of Gaussian 16 at Thu Dec 10 11:25:34 2020.
