 Gaussian 16, Revision A.03,

 -----------------------------------------------------------
 # opt freq B3LYP/6-31G(d) empiricaldispersion=gd3bj scf=xqc
 -----------------------------------------------------------

 ------------------------------
 CID_22593327_JID_7610_neutraal
 ------------------------------
 Symbolic Z-matrix:
 Charge =  0 Multiplicity = 1

 SCF Done:  E(RB3LYP) =  -809.525507401     A.U. after   14 cycles
 SCF Done:  E(RB3LYP) =  -809.529849672     A.U. after   12 cycles
 SCF Done:  E(RB3LYP) =  -809.530574056     A.U. after   12 cycles
 SCF Done:  E(RB3LYP) =  -809.531314780     A.U. after   12 cycles
 SCF Done:  E(RB3LYP) =  -809.532213201     A.U. after   12 cycles
 SCF Done:  E(RB3LYP) =  -809.532590697     A.U. after   12 cycles
 SCF Done:  E(RB3LYP) =  -809.532717476     A.U. after   12 cycles
 SCF Done:  E(RB3LYP) =  -809.532919689     A.U. after   11 cycles
 SCF Done:  E(RB3LYP) =  -809.532994266     A.U. after   11 cycles
 SCF Done:  E(RB3LYP) =  -809.533221731     A.U. after   12 cycles
 SCF Done:  E(RB3LYP) =  -809.538573469     A.U. after    8 cycles
 SCF Done:  E(RB3LYP) =  -809.538573800     A.U. after    7 cycles
 SCF Done:  E(RB3LYP) =  -809.538573914     A.U. after    7 cycles
 SCF Done:  E(RB3LYP) =  -809.538573953     A.U. after    7 cycles
 Optimization completed.
    -- Stationary point found.
 Normal termination of Gaussian 16 at Fri Dec 11 13:19:04 2020.

 --------------------------------------------------------------------
 #N Geom=AllCheck Guess=TCheck SCRF=Check GenChk RB3LYP/6-31G(d) Freq
 --------------------------------------------------------------------

 Structure from the checkpoint file:  "JID_7610.chk"
 ------------------------------
 CID_22593327_JID_7610_neutraal
 ------------------------------
 Charge =  0 Multiplicity = 1

 SCF Done:  E(RB3LYP) =  -809.538573954     A.U. after    1 cycles

  Exact polarizability: 156.852   8.003 155.562  -2.568 -18.330 127.970
 Approx polarizability: 194.733  10.107 226.022 -10.224 -39.266 204.698

                      1                      2                      3
                      A                      A                      A
 Frequencies --     30.0047                37.6547                46.3121
 Red. masses --      3.6988                 2.9528                 3.8887
 Frc consts  --      0.0020                 0.0025                 0.0049
 IR Inten    --      0.1292                 0.1837                 0.4950

                      4                      5                      6
                      A                      A                      A
 Frequencies --     59.6574                65.2295                72.1596
 Red. masses --      3.6837                 2.9753                 3.6410
 Frc consts  --      0.0077                 0.0075                 0.0112
 IR Inten    --      1.0948                 0.8093                 0.0580

                      7                      8                      9
                      A                      A                      A
 Frequencies --     93.8820               114.8876               120.0281
 Red. masses --      2.7405                 7.5648                 2.6543
 Frc consts  --      0.0142                 0.0588                 0.0225
 IR Inten    --      0.0547                 3.8428                 1.5851

                     10                     11                     12
                      A                      A                      A
 Frequencies --    139.4037               171.1615               182.0645
 Red. masses --      3.1002                 2.0557                 1.3256
 Frc consts  --      0.0355                 0.0355                 0.0259
 IR Inten    --      3.4268                 1.5093                 0.0545

                     13                     14                     15
                      A                      A                      A
 Frequencies --    188.0132               200.4277               250.9193
 Red. masses --      3.6025                 2.2373                 2.6712
 Frc consts  --      0.0750                 0.0530                 0.0991
 IR Inten    --      3.5036                 8.3541                 2.1905

                     16                     17                     18
                      A                      A                      A
 Frequencies --    262.9173               294.7308               312.8835
 Red. masses --      1.7202                 2.4842                 2.8562
 Frc consts  --      0.0701                 0.1271                 0.1647
 IR Inten    --     16.8657                 3.4985                 5.6135

                     19                     20                     21
                      A                      A                      A
 Frequencies --    317.9458               335.5474               346.5973
 Red. masses --      3.8850                 2.6419                 1.3259
 Frc consts  --      0.2314                 0.1753                 0.0938
 IR Inten    --      1.1715                31.2374                82.3854

                     22                     23                     24
                      A                      A                      A
 Frequencies --    364.3047               381.7051               386.6175
 Red. masses --      2.1829                 2.7833                 3.0992
 Frc consts  --      0.1707                 0.2389                 0.2729
 IR Inten    --      8.7032                 1.1580                 3.8626

                     25                     26                     27
                      A                      A                      A
 Frequencies --    415.9641               432.5604               466.7378
 Red. masses --      2.5792                 2.8201                 2.2705
 Frc consts  --      0.2629                 0.3109                 0.2914
 IR Inten    --      4.9511                13.7309                 6.9245

                     28                     29                     30
                      A                      A                      A
 Frequencies --    531.9376               548.0659               611.7409
 Red. masses --      4.0617                 2.5668                 3.9408
 Frc consts  --      0.6771                 0.4543                 0.8689
 IR Inten    --      4.1558                 1.5353                 1.0128

                     31                     32                     33
                      A                      A                      A
 Frequencies --    621.7916               651.4160               671.3661
 Red. masses --      2.6084                 1.4215                 1.9127
 Frc consts  --      0.5942                 0.3554                 0.5079
 IR Inten    --     11.5961                16.5109                 0.5567

                     34                     35                     36
                      A                      A                      A
 Frequencies --    749.9655               789.3897               822.7633
 Red. masses --      2.8633                 1.2931                 2.5341
 Frc consts  --      0.9489                 0.4748                 1.0107
 IR Inten    --      4.4970                13.0984                16.4847

                     37                     38                     39
                      A                      A                      A
 Frequencies --    839.7808               893.3034               927.8442
 Red. masses --      3.9078                 2.1315                 1.7474
 Frc consts  --      1.6237                 1.0022                 0.8863
 IR Inten    --      8.5611                 4.8926                 3.1808

                     40                     41                     42
                      A                      A                      A
 Frequencies --    947.4290               951.6657               960.0313
 Red. masses --      2.0929                 1.3662                 1.7999
 Frc consts  --      1.1069                 0.7290                 0.9774
 IR Inten    --      3.6697                33.2975                10.3972

                     43                     44                     45
                      A                      A                      A
 Frequencies --    969.9982               981.7290               993.6629
 Red. masses --      1.3418                 2.5950                 1.6489
 Frc consts  --      0.7438                 1.4736                 0.9593
 IR Inten    --     34.7063                16.0216                 9.9433

                     46                     47                     48
                      A                      A                      A
 Frequencies --   1002.9505              1019.0884              1025.8058
 Red. masses --      1.8600                 1.8499                 1.7846
 Frc consts  --      1.1024                 1.1319                 1.1065
 IR Inten    --      2.1918                15.0406                 8.1492

                     49                     50                     51
                      A                      A                      A
 Frequencies --   1047.1926              1055.7086              1071.1854
 Red. masses --      1.7320                 1.3730                 2.0955
 Frc consts  --      1.1190                 0.9016                 1.4167
 IR Inten    --     68.1490                 9.0139                 6.6349

                     52                     53                     54
                      A                      A                      A
 Frequencies --   1077.5110              1087.1285              1099.5258
 Red. masses --      2.6485                 1.4683                 3.9453
 Frc consts  --      1.8117                 1.0224                 2.8102
 IR Inten    --      8.2969                 0.5676                50.4028

                     55                     56                     57
                      A                      A                      A
 Frequencies --   1139.7901              1169.7058              1184.4879
 Red. masses --      5.8505                 1.5581                 2.1477
 Frc consts  --      4.4781                 1.2560                 1.7754
 IR Inten    --    144.0406                 9.8381                 4.2655

                     58                     59                     60
                      A                      A                      A
 Frequencies --   1199.9669              1206.8733              1233.6465
 Red. masses --      3.2041                 2.2152                 2.5473
 Frc consts  --      2.7183                 1.9011                 2.2841
 IR Inten    --    337.8111                88.9363                 5.9546

                     61                     62                     63
                      A                      A                      A
 Frequencies --   1269.3173              1299.2962              1311.0437
 Red. masses --      1.4372                 1.2295                 1.2355
 Frc consts  --      1.3643                 1.2229                 1.2512
 IR Inten    --      4.7416                14.7123                 6.9949

                     64                     65                     66
                      A                      A                      A
 Frequencies --   1332.0988              1334.7127              1350.7120
 Red. masses --      1.1869                 1.2534                 1.3390
 Frc consts  --      1.2409                 1.3155                 1.4393
 IR Inten    --      3.9487                 3.3904                38.4311

                     67                     68                     69
                      A                      A                      A
 Frequencies --   1362.6371              1398.5927              1401.4229
 Red. masses --      2.8281                 1.3750                 1.3174
 Frc consts  --      3.0939                 1.5847                 1.5244
 IR Inten    --     94.7196                29.3229                20.4493

                     70                     71                     72
                      A                      A                      A
 Frequencies --   1415.3962              1422.3617              1437.6796
 Red. masses --      1.2738                 1.4001                 1.2840
 Frc consts  --      1.5035                 1.6689                 1.5636
 IR Inten    --      1.1887                10.7074                19.6549

                     73                     74                     75
                      A                      A                      A
 Frequencies --   1441.7360              1445.9576              1456.4161
 Red. masses --      1.2917                 1.2522                 1.3356
 Frc consts  --      1.5819                 1.5426                 1.6692
 IR Inten    --      6.3298                 2.7310                 9.4429

                     76                     77                     78
                      A                      A                      A
 Frequencies --   1463.4899              1479.1958              1504.4083
 Red. masses --      1.2498                 1.2028                 1.0451
 Frc consts  --      1.5771                 1.5506                 1.3936
 IR Inten    --     18.4080                13.4740                 4.1832

                     79                     80                     81
                      A                      A                      A
 Frequencies --   1511.2848              1517.9635              1520.1026
 Red. masses --      1.0964                 1.0775                 1.0604
 Frc consts  --      1.4753                 1.4629                 1.4437
 IR Inten    --      3.6798                 3.7575                20.3783

                     82                     83                     84
                      A                      A                      A
 Frequencies --   1525.2734              1536.7215              1541.4813
 Red. masses --      1.0522                 1.0811                 1.0742
 Frc consts  --      1.4422                 1.5042                 1.5039
 IR Inten    --      0.6777                18.4394                 4.5349

                     85                     86                     87
                      A                      A                      A
 Frequencies --   1544.1454              1553.4462              1721.4126
 Red. masses --      1.0520                 1.0839                 5.2344
 Frc consts  --      1.4779                 1.5411                 9.1388
 IR Inten    --      6.0308                 4.3850                21.3768

                     88                     89                     90
                      A                      A                      A
 Frequencies --   1733.9107              1789.8112              2992.2592
 Red. masses --      4.4382                10.8390                 1.0676
 Frc consts  --      7.8617                20.4576                 5.6317
 IR Inten    --      0.8356               205.8855                54.6625

                     91                     92                     93
                      A                      A                      A
 Frequencies --   3011.1253              3013.1485              3039.7103
 Red. masses --      1.0573                 1.0672                 1.0734
 Frc consts  --      5.6484                 5.7088                 5.8435
 IR Inten    --     36.6960                32.4198                28.8928

                     94                     95                     96
                      A                      A                      A
 Frequencies --   3046.3689              3052.5504              3057.4420
 Red. masses --      1.0401                 1.1054                 1.0360
 Frc consts  --      5.6873                 6.0689                 5.7061
 IR Inten    --     32.3150                31.6181                15.2978

                     97                     98                     99
                      A                      A                      A
 Frequencies --   3071.8687              3089.8982              3092.6664
 Red. masses --      1.0945                 1.0617                 1.0921
 Frc consts  --      6.0853                 5.9724                 6.1542
 IR Inten    --     28.9579                49.1219                34.9683

                    100                    101                    102
                      A                      A                      A
 Frequencies --   3102.5012              3113.3690              3121.7740
 Red. masses --      1.0964                 1.0998                 1.1001
 Frc consts  --      6.2181                 6.2809                 6.3167
 IR Inten    --     15.2754                15.4626                33.9096

                    103                    104                    105
                      A                      A                      A
 Frequencies --   3136.0182              3140.7816              3142.7727
 Red. masses --      1.0916                 1.1036                 1.1075
 Frc consts  --      6.3251                 6.4141                 6.4448
 IR Inten    --     19.8520                16.3290                14.8780

                    106                    107                    108
                      A                      A                      A
 Frequencies --   3152.6006              3177.6452              3184.7905
 Red. masses --      1.0600                 1.0625                 1.0922
 Frc consts  --      6.2072                 6.3209                 6.5267
 IR Inten    --     12.5447                10.7518                 0.8649

                    109                    110                    111
                      A                      A                      A
 Frequencies --   3235.1941              3272.9517              3753.0129
 Red. masses --      1.1146                 1.1137                 1.0659
 Frc consts  --      6.8735                 7.0294                 8.8456
 IR Inten    --     15.9798                 5.8349                13.3058

 - Thermochemistry -
 -------------------
 Temperature   298.150 Kelvin.  Pressure   1.00000 Atm.
 Atom     1 has atomic number  6 and mass  12.00000

 Molecular mass:   242.15181 amu.
 Principal axes and moments of inertia in atomic units:
                           1         2         3
     Eigenvalues --  3231.180744872.252656683.25798
           X            0.99931   0.03713   0.00159
           Y           -0.03710   0.99919  -0.01536
           Z           -0.00216   0.01529   0.99988
 This molecule is an asymmetric top.
 Rotational symmetry number  1.
 Warning -- assumption of classical behavior for rotation
           may cause significant error
 Rotational temperatures (Kelvin)      0.02681     0.01778     0.01296
 Rotational constants (GHZ):           0.55854     0.37041     0.27004
 Zero-point vibrational energy     890005.2 (Joules/Mol)
                                  212.71634 (Kcal/Mol)
 Warning -- explicit consideration of  30 degrees of freedom as
           vibrations may cause significant error
 Vibrational temperatures:     43.17    54.18    66.63    85.83    93.85
          (Kelvin)            103.82   135.08   165.30   172.69   200.57
                              246.26   261.95   270.51   288.37   361.02
                              378.28   424.05   450.17   457.45   482.78
                              498.68   524.15   549.19   556.26   598.48
                              622.36   671.53   765.34   788.54   880.16
                              894.62   937.24   965.95  1079.03  1135.76
                             1183.77  1208.26  1285.26  1334.96  1363.14
                             1369.23  1381.27  1395.61  1412.49  1429.66
                             1443.02  1466.24  1475.91  1506.68  1518.93
                             1541.20  1550.30  1564.14  1581.97  1639.90
                             1682.95  1704.21  1726.48  1736.42  1774.94
                             1826.26  1869.40  1886.30  1916.59  1920.35
                             1943.37  1960.53  2012.26  2016.33  2036.44
                             2046.46  2068.50  2074.34  2080.41  2095.46
                             2105.64  2128.23  2164.51  2174.40  2184.01
                             2187.09  2194.53  2211.00  2217.85  2221.68
                             2235.06  2476.73  2494.71  2575.14  4305.19
                             4332.34  4335.25  4373.47  4383.05  4391.94
                             4398.98  4419.73  4445.67  4449.66  4463.81
                             4479.44  4491.54  4512.03  4518.88  4521.75
                             4535.89  4571.92  4582.20  4654.72  4709.05
                             5399.75

 Zero-point correction=                           0.338985 (Hartree/Particle)
 Thermal correction to Energy=                    0.358880
 Thermal correction to Enthalpy=                  0.359824
 Thermal correction to Gibbs Free Energy=         0.289721
 Sum of electronic and zero-point Energies=           -809.199589
 Sum of electronic and thermal Energies=              -809.179694
 Sum of electronic and thermal Enthalpies=            -809.178750
 Sum of electronic and thermal Free Energies=         -809.248853

                     E (Thermal)             CV                S
                      KCal/Mol        Cal/Mol-Kelvin    Cal/Mol-Kelvin
 Total                  225.201             72.352            147.544
 Electronic               0.000              0.000              0.000
 Translational            0.889              2.981             42.354
 Rotational               0.889              2.981             33.020
 Vibrational            223.423             66.390             72.170
 Vibration     1          0.594              1.984              5.829
 Vibration     2          0.594              1.982              5.379
 Vibration     3          0.595              1.979              4.969
 Vibration     4          0.597              1.974              4.468
 Vibration     5          0.597              1.971              4.292
 Vibration     6          0.598              1.967              4.094
 Vibration     7          0.603              1.954              3.578
 Vibration     8          0.608              1.937              3.185
 Vibration     9          0.609              1.933              3.100
 Vibration    10          0.615              1.914              2.812
 Vibration    11          0.626              1.878              2.423
 Vibration    12          0.630              1.864              2.307
 Vibration    13          0.633              1.856              2.247
 Vibration    14          0.638              1.839              2.129
 Vibration    15          0.663              1.761              1.724
 Vibration    16          0.670              1.741              1.642
 Vibration    17          0.689              1.684              1.447
 Vibration    18          0.701              1.649              1.347
 Vibration    19          0.704              1.639              1.321
 Vibration    20          0.717              1.605              1.233
 Vibration    21          0.725              1.582              1.182
 Vibration    22          0.738              1.546              1.104
 Vibration    23          0.751              1.509              1.032
 Vibration    24          0.755              1.499              1.013
 Vibration    25          0.779              1.436              0.906
 Vibration    26          0.793              1.399              0.850
 Vibration    27          0.824              1.324              0.747
 Vibration    28          0.887              1.179              0.583
 Vibration    29          0.903              1.144              0.548
 Vibration    30          0.971              1.007              0.430

 Optimization completed.
    -- Stationary point found.
 Normal termination of Gaussian 16 at Fri Dec 11 13:35:04 2020.

 ----------------------------------------------------------------------
 # B3LYP/6-311++G(d,p) empiricaldispersion=gd3bj scf=xqc pop=npa geom=c
 heck
 ----------------------------------------------------------------------

 --------------------------------------
 CID_22593327_JID_7610_Energie_neutraal
 --------------------------------------
 Structure from the checkpoint file:  "JID_7610.chk"
 Charge =  0 Multiplicity = 1

 SCF Done:  E(RB3LYP) =  -809.783245339     A.U. after   15 cycles
 Normal termination of Gaussian 16 at Fri Dec 11 13:42:12 2020.

 ----------------------------------------------------------------------
 # B3LYP/6-311++G(d,p) empiricaldispersion=gd3bj scf=xqc pop=npa geom=c
 heck
 ----------------------------------------------------------------------

 ------------------------------------
 CID_22593327_JID_7610_Energie_kation
 ------------------------------------
 Structure from the checkpoint file:  "JID_7610.chk"
 Charge =  1 Multiplicity = 2

 SCF Done:  E(UB3LYP) =  -809.457208012     A.U. after   33 cycles
 SCF Done:  E(UB3LYP) =  -809.457208012     a.u. after    1 cycles
 Normal termination of Gaussian 16 at Fri Dec 11 14:03:17 2020.
 Gaussian 16:  ES64L-G16RevA.03 25-Dec-2016

 ----------------------------------------------------------------------
 # B3LYP/6-311++G(d,p) empiricaldispersion=gd3bj scf=xqc pop=npa geom=c
 heck
 ----------------------------------------------------------------------

 -----------------------------------
 CID_22593327_JID_7610_Energie_anion
 -----------------------------------
 Structure from the checkpoint file:  "JID_7610.chk"
 Charge = -1 Multiplicity = 2

                         Standard orientation:
 ---------------------------------------------------------------------
 Center     Atomic      Atomic             Coordinates (Angstroms)
 Number     Number       Type             X           Y           Z
 ---------------------------------------------------------------------
      1          6           0       -2.979532   -1.998849    0.908730
      2          6           0       -2.093386   -0.759153    1.067870
      3          6           0       -1.703116   -0.031883   -0.239120
      4          6           0       -2.950404    0.481621   -0.996626
      5          8           0       -3.783843    1.332437   -0.222065
      6          6           0       -0.838217    1.193084    0.099764
      7          8           0        0.247917    0.800777    0.925990
      8          6           0        1.094441    1.878690    1.303462
      9          6           0        1.809640    2.509447    0.139021
     10          6           0        1.867026    3.823691   -0.072370
     11          6           0       -0.972216   -0.973792   -1.211133
     12          8           0        0.136729   -1.633269   -0.578842
     13          6           0        1.366375   -1.112921   -0.794004
     14          8           0        1.611730   -0.285318   -1.652295
     15          6           0        2.407038   -1.675521    0.112679
     16          6           0        2.081584   -2.516821    1.100601
     17          6           0        3.807889   -1.198941   -0.158341
     18          1           0       -3.928253   -1.780448    0.402701
     19          1           0       -3.224776   -2.417483    1.890719
     20          1           0       -2.474672   -2.784810    0.337386
     21          1           0       -2.589756   -0.030457    1.723348
     22          1           0       -1.170330   -1.033702    1.582684
     23          1           0       -2.635584    1.085552   -1.854562
     24          1           0       -3.521573   -0.370954   -1.393977
     25          1           0       -4.178579    0.794134    0.480635
     26          1           0       -0.467264    1.653628   -0.826786
     27          1           0       -1.458321    1.938014    0.620811
     28          1           0        0.522064    2.641535    1.856972
     29          1           0        1.816241    1.428727    1.996070
     30          1           0        2.288835    1.813560   -0.547254
     31          1           0        2.416323    4.246823   -0.908943
     32          1           0        1.370346    4.530706    0.590023
     33          1           0       -1.634961   -1.777411   -1.542189
     34          1           0       -0.610611   -0.427618   -2.085407
     35          1           0        2.839827   -2.916539    1.768499
     36          1           0        1.055562   -2.821451    1.268697
     37          1           0        4.099190   -1.403790   -1.194094
     38          1           0        3.881927   -0.113623   -0.024741
     39          1           0        4.521365   -1.683319    0.513918
 ---------------------------------------------------------------------

 SCF Done:  E(UB3LYP) =  -809.779057257     A.U. after   33 cycles
 SCF Done:  E(UB3LYP) =  -809.779057257     a.u. after    1 cycles

 The electronic state is 2-A.
 Alpha  occ. eigenvalues --  -19.02659 -19.02328 -19.01794 -18.96050 -10.14463
 Alpha  occ. eigenvalues --  -10.12097 -10.11663 -10.10900 -10.10452 -10.07902
 Alpha  occ. eigenvalues --  -10.07849 -10.07605 -10.05537 -10.05475 -10.04843
 Alpha  occ. eigenvalues --  -10.04273 -10.02484  -0.96734  -0.93184  -0.92490
 Alpha  occ. eigenvalues --   -0.87862  -0.72139  -0.68975  -0.67351  -0.63706
 Alpha  occ. eigenvalues --   -0.60779  -0.58727  -0.55998  -0.54951  -0.52415
 Alpha  occ. eigenvalues --   -0.48895  -0.46879  -0.44397  -0.41921  -0.41375
 Alpha  occ. eigenvalues --   -0.40239  -0.37933  -0.37101  -0.36433  -0.35244
 Alpha  occ. eigenvalues --   -0.34977  -0.34316  -0.33171  -0.32248  -0.31596
 Alpha  occ. eigenvalues --   -0.31022  -0.30487  -0.29514  -0.29232  -0.28503
 Alpha  occ. eigenvalues --   -0.27469  -0.26519  -0.25987  -0.24355  -0.23882
 Alpha  occ. eigenvalues --   -0.23766  -0.23061  -0.22815  -0.21878  -0.20145
 Alpha  occ. eigenvalues --   -0.18203  -0.17575  -0.16657  -0.15531  -0.14263
 Alpha  occ. eigenvalues --   -0.13769   0.04634
 Alpha virt. eigenvalues --    0.06293   0.07374   0.08141   0.08426   0.08607
 Alpha virt. eigenvalues --    0.09169   0.09404   0.10186   0.10724   0.11056
 Alpha virt. eigenvalues --    0.11330   0.12308   0.12655   0.12722   0.12952

  Beta  occ. eigenvalues --  -19.02626 -19.02291 -19.01794 -18.95834 -10.14246
  Beta  occ. eigenvalues --  -10.12094 -10.11649 -10.10899 -10.10447 -10.07900
  Beta  occ. eigenvalues --  -10.07843 -10.07601 -10.05518 -10.05440 -10.04851
  Beta  occ. eigenvalues --  -10.04183 -10.02197  -0.96534  -0.93172  -0.92408
  Beta  occ. eigenvalues --   -0.87546  -0.72099  -0.68956  -0.67001  -0.63661
  Beta  occ. eigenvalues --   -0.60749  -0.58644  -0.55703  -0.54910  -0.52354
  Beta  occ. eigenvalues --   -0.48440  -0.46852  -0.44182  -0.41832  -0.41321
  Beta  occ. eigenvalues --   -0.40214  -0.37855  -0.37001  -0.36393  -0.35200
  Beta  occ. eigenvalues --   -0.34907  -0.34032  -0.33018  -0.32192  -0.31341
  Beta  occ. eigenvalues --   -0.30898  -0.30342  -0.29428  -0.29116  -0.28395
  Beta  occ. eigenvalues --   -0.27233  -0.26467  -0.25912  -0.24262  -0.23760
  Beta  occ. eigenvalues --   -0.23658  -0.22987  -0.22731  -0.21648  -0.20089
  Beta  occ. eigenvalues --   -0.18105  -0.17523  -0.16177  -0.15515  -0.14022
  Beta  occ. eigenvalues --   -0.12343
  Beta virt. eigenvalues --    0.07040   0.07446   0.08086   0.08405   0.08756
  Beta virt. eigenvalues --    0.09292   0.09423   0.09691   0.10390   0.10646
  Beta virt. eigenvalues --    0.11239   0.11457   0.12268   0.12664   0.12800

 Mulliken charges and spin densities:
               1          2
     1  C    0.691164  -1.245681
     2  C   -0.622889   0.529842
     3  C    0.161308   0.307882
     4  C    0.555279  -0.909266
     5  O   -0.217661   0.023991
     6  C   -0.966175   0.247251
     7  O    0.048591   0.009192
     8  C   -0.185732  -0.405476
     9  C    0.220038   0.284608
    10  C   -0.553188  -0.039470
    11  C   -0.230425  -0.428088
    12  O    0.094811   0.001028
    13  C   -0.263487   0.132959
    14  O   -0.288628   0.077932
    15  C    0.619885   0.020218
    16  C   -0.647894   0.313870
    17  C   -0.724783  -0.008759
    18  H   -0.325630   0.468201
    19  H   -0.280073   0.429625
    20  H    0.039230   0.120013
    21  H   -0.021219   0.188666
    22  H    0.102568   0.063699
    23  H    0.158729   0.012493
    24  H   -0.026195   0.184458
    25  H   -0.106356   0.372671
    26  H    0.194354  -0.001360
    27  H    0.109439   0.041021
    28  H    0.111260   0.001917
    29  H    0.051715   0.127614
    30  H    0.178320   0.041401
    31  H    0.089898   0.019118
    32  H    0.069055   0.045313
    33  H    0.151819   0.013165
    34  H    0.219208  -0.022911
    35  H    0.076285   0.006585
    36  H    0.143629  -0.038881
    37  H    0.154864   0.000569
    38  H    0.106842   0.015303
    39  H    0.112047  -0.000711
 Sum of Mulliken charges =  -1.00000   1.00000

 Dipole moment (field-independent basis, Debye):
    X=              3.1628    Y=              2.5405    Z=             -1.3522  Tot=              4.2762
 Quadrupole moment (field-independent basis, Debye-Ang):
   XX=           -171.8368   YY=           -136.7038   ZZ=           -129.0663
   XY=              3.8307   XZ=              7.9209   YZ=              4.5248

 Summary of Natural Population Analysis:

                                       Natural Population
                Natural  -----------------------------------------------
    Atom  No    Charge         Core      Valence    Rydberg      Total
 -----------------------------------------------------------------------
      C    1   -0.28866      0.99966     2.28323    0.00577     3.28866
      C    2   -0.20115      0.99959     2.18878    0.01278     3.20115
      C    3   -0.07067      0.99954     2.05773    0.01340     3.07067
      C    4   -0.00569      0.99952     1.99209    0.01408     3.00569
      O    5   -0.37032      0.99990     3.36354    0.00688     4.37032
      C    6   -0.01035      0.99951     1.99771    0.01312     3.01035
      O    7   -0.29579      0.99988     3.28602    0.00989     4.29579
      C    8   -0.02613      0.99956     2.01315    0.01342     3.02613
      C    9   -0.09532      0.99956     2.08648    0.00928     3.09532
      C   10   -0.19863      0.99957     2.19238    0.00667     3.19863
      C   11   -0.01500      0.99949     2.00242    0.01309     3.01500
      O   12   -0.28583      0.99986     3.27722    0.00876     4.28583
      C   13    0.42663      0.99960     1.54719    0.02658     2.57337
      O   14   -0.31301      0.99987     3.30821    0.00493     4.31301
      C   15   -0.05915      0.99948     2.04956    0.01011     3.05915
      C   16   -0.10773      0.99953     2.10046    0.00774     3.10773
      C   17   -0.29221      0.99964     2.28710    0.00546     3.29221
      H   18    0.09295      0.00000     0.40553    0.00152     0.40705
      H   19    0.10113      0.00000     0.39802    0.00084     0.39887
      H   20    0.09819      0.00000     0.40086    0.00095     0.40181
      H   21    0.09464      0.00000     0.40395    0.00141     0.40536
      H   22    0.11736      0.00000     0.38086    0.00178     0.38264
      H   23    0.08664      0.00000     0.41224    0.00112     0.41336
      H   24    0.08124      0.00000     0.41763    0.00113     0.41876
      H   25    0.23189      0.00000     0.26320    0.00491     0.26811
      H   26    0.08863      0.00000     0.41014    0.00124     0.41137
      H   27    0.08768      0.00000     0.41084    0.00147     0.41232
      H   28    0.07636      0.00000     0.42233    0.00131     0.42364
      H   29    0.09866      0.00000     0.40021    0.00113     0.40134
      H   30    0.11205      0.00000     0.38642    0.00153     0.38795
      H   31    0.09171      0.00000     0.40722    0.00108     0.40829
      H   32    0.08674      0.00000     0.41195    0.00132     0.41326
      H   33    0.08904      0.00000     0.40985    0.00111     0.41096
      H   34    0.10169      0.00000     0.39707    0.00124     0.39831
      H   35    0.08007      0.00000     0.41905    0.00088     0.41993
      H   36    0.09688      0.00000     0.40210    0.00102     0.40312
      H   37    0.10162      0.00000     0.39746    0.00092     0.39838
      H   38    0.10066      0.00000     0.39805    0.00129     0.39934
      H   39    0.09317      0.00000     0.40608    0.00076     0.40683
 =======================================================================
   * Total *    0.00000     16.99375    48.79435    0.21190    66.00000

 Normal termination of Gaussian 16 at Fri Dec 11 14:24:32 2020.
