 Gaussian 16, Revision A.03,

 -----------------------------------------------------------
 # opt freq B3LYP/6-31G(d) empiricaldispersion=gd3bj scf=xqc
 -----------------------------------------------------------

 -------------------------------
 CID_113839874_JID_7533_neutraal
 -------------------------------
 Symbolic Z-matrix:
 Charge =  0 Multiplicity = 1

 SCF Done:  E(RB3LYP) =  -1413.38436392     A.U. after   15 cycles
 SCF Done:  E(RB3LYP) =  -1413.39168927     A.U. after   13 cycles
 SCF Done:  E(RB3LYP) =  -1413.38852424     A.U. after   15 cycles
 SCF Done:  E(RB3LYP) =  -1413.39259190     A.U. after   13 cycles
 SCF Done:  E(RB3LYP) =  -1413.39318827     A.U. after   12 cycles
 SCF Done:  E(RB3LYP) =  -1413.39433872     A.U. after   15 cycles
 SCF Done:  E(RB3LYP) =  -1413.39299210     A.U. after   15 cycles
 SCF Done:  E(RB3LYP) =  -1413.39620983     A.U. after   13 cycles
 SCF Done:  E(RB3LYP) =  -1413.39601737     A.U. after   12 cycles
 SCF Done:  E(RB3LYP) =  -1413.39672214     A.U. after   12 cycles
 SCF Done:  E(RB3LYP) =  -1413.39779635     A.U. after   10 cycles
 SCF Done:  E(RB3LYP) =  -1413.39779715     A.U. after    9 cycles
 SCF Done:  E(RB3LYP) =  -1413.39779692     A.U. after    9 cycles
 SCF Done:  E(RB3LYP) =  -1413.39779736     A.U. after    9 cycles
 SCF Done:  E(RB3LYP) =  -1413.39779738     A.U. after    7 cycles
 SCF Done:  E(RB3LYP) =  -1413.39779738     A.U. after    7 cycles
 Optimization completed.
    -- Stationary point found.
 Normal termination of Gaussian 16 at Mon Dec 14 17:11:50 2020.

 --------------------------------------------------------------------
 #N Geom=AllCheck Guess=TCheck SCRF=Check GenChk RB3LYP/6-31G(d) Freq
 --------------------------------------------------------------------

 Structure from the checkpoint file:  "JID_7533.chk"
 -------------------------------
 CID_113839874_JID_7533_neutraal
 -------------------------------
 Charge =  0 Multiplicity = 1

 SCF Done:  E(RB3LYP) =  -1413.39779738     A.U. after    1 cycles

  Exact polarizability: 200.467 -32.253 232.381   1.592 -11.953 136.866
 Approx polarizability: 279.494 -77.950 388.994   3.966 -37.822 219.397

                      1                      2                      3
                      A                      A                      A
 Frequencies --     15.9584                29.1452                33.5993
 Red. masses --      4.5680                 4.3435                 3.7102
 Frc consts  --      0.0007                 0.0022                 0.0025
 IR Inten    --      1.6943                 1.7963                 1.6228

                      4                      5                      6
                      A                      A                      A
 Frequencies --     40.8495                60.3527               101.9419
 Red. masses --      2.9573                 3.1006                 3.1333
 Frc consts  --      0.0029                 0.0067                 0.0192
 IR Inten    --      0.2276                 0.5736                 0.0220

                      7                      8                      9
                      A                      A                      A
 Frequencies --    111.9929               118.6819               136.7013
 Red. masses --      4.4953                 5.2292                 2.9098
 Frc consts  --      0.0332                 0.0434                 0.0320
 IR Inten    --      1.7171                 2.3999                 0.5332

                     10                     11                     12
                      A                      A                      A
 Frequencies --    185.9019               210.2975               233.5612
 Red. masses --      5.7251                 4.0301                 3.2957
 Frc consts  --      0.1166                 0.1050                 0.1059
 IR Inten    --      7.9369                 0.9714                 2.2791

                     13                     14                     15
                      A                      A                      A
 Frequencies --    254.7768               265.1398               299.4958
 Red. masses --      2.2624                 2.0717                 3.2326
 Frc consts  --      0.0865                 0.0858                 0.1708
 IR Inten    --      1.0474                 0.9335                 1.2229

                     16                     17                     18
                      A                      A                      A
 Frequencies --    305.3690               317.1848               323.9440
 Red. masses --      1.4282                 2.4983                 3.1827
 Frc consts  --      0.0785                 0.1481                 0.1968
 IR Inten    --      1.4668                 0.3086                 1.0664

                     19                     20                     21
                      A                      A                      A
 Frequencies --    431.6061               440.1348               472.4523
 Red. masses --      2.7119                 3.5998                 7.1129
 Frc consts  --      0.2976                 0.4109                 0.9354
 IR Inten    --      0.7826                 3.1629                 3.1603

                     22                     23                     24
                      A                      A                      A
 Frequencies --    538.9896               546.3487               596.8343
 Red. masses --      1.8238                 3.8436                 1.2927
 Frc consts  --      0.3122                 0.6760                 0.2713
 IR Inten    --      2.0735                 8.3450                77.4832

                     25                     26                     27
                      A                      A                      A
 Frequencies --    621.8834               631.2064               639.5423
 Red. masses --      3.4026                 2.7414                 3.7156
 Frc consts  --      0.7753                 0.6435                 0.8954
 IR Inten    --      1.3460                 2.8291                 1.5342

                     28                     29                     30
                      A                      A                      A
 Frequencies --    644.1358               664.9911               728.3781
 Red. masses --      5.4696                 4.7300                 4.3425
 Frc consts  --      1.3371                 1.2324                 1.3574
 IR Inten    --      2.4072                 5.2325                 3.5342

                     31                     32                     33
                      A                      A                      A
 Frequencies --    759.5218               786.2527               813.2167
 Red. masses --      4.1887                 1.3707                 2.3217
 Frc consts  --      1.4237                 0.4993                 0.9046
 IR Inten    --      3.1713                 5.2556                 4.4949

                     34                     35                     36
                      A                      A                      A
 Frequencies --    851.2160               859.7387               872.9935
 Red. masses --      1.9475                 1.7010                 1.9744
 Frc consts  --      0.8314                 0.7408                 0.8866
 IR Inten    --      2.0467                 3.8290                 3.5728

                     37                     38                     39
                      A                      A                      A
 Frequencies --    895.2796               897.6285               913.1688
 Red. masses --      1.4938                 2.0415                 2.0529
 Frc consts  --      0.7054                 0.9691                 1.0086
 IR Inten    --     10.3577                 1.5863                 1.8872

                     40                     41                     42
                      A                      A                      A
 Frequencies --    920.1816               932.2039               953.0070
 Red. masses --      2.2661                 1.8993                 1.9396
 Frc consts  --      1.1305                 0.9725                 1.0379
 IR Inten    --      0.4469                 0.9198                 0.8070

                     43                     44                     45
                      A                      A                      A
 Frequencies --    954.7833               998.6003              1009.8747
 Red. masses --      2.7755                 4.3327                 3.2564
 Frc consts  --      1.4907                 2.5456                 1.9567
 IR Inten    --      9.8133                80.0307                39.0010

                     46                     47                     48
                      A                      A                      A
 Frequencies --   1037.7568              1054.9188              1069.0012
 Red. masses --      1.6763                 1.9513                 1.6752
 Frc consts  --      1.0637                 1.2794                 1.1279
 IR Inten    --      1.7889                 2.6370                 0.5329

                     49                     50                     51
                      A                      A                      A
 Frequencies --   1083.2198              1090.2446              1114.7634
 Red. masses --      2.1309                 1.6569                 1.6181
 Frc consts  --      1.4731                 1.1604                 1.1847
 IR Inten    --      0.7940                 9.8283                 4.3914

                     52                     53                     54
                      A                      A                      A
 Frequencies --   1135.0718              1175.5264              1181.0840
 Red. masses --      1.8180                 1.3476                 1.4622
 Frc consts  --      1.3800                 1.0972                 1.2017
 IR Inten    --     32.1273                10.9936                10.4891

                     55                     56                     57
                      A                      A                      A
 Frequencies --   1196.4861              1217.3528              1249.3194
 Red. masses --      1.4679                 2.2611                 1.3673
 Frc consts  --      1.2381                 1.9742                 1.2574
 IR Inten    --      5.0326                51.9214                 0.4942

                     58                     59                     60
                      A                      A                      A
 Frequencies --   1261.4758              1270.8616              1279.0504
 Red. masses --      1.3070                 1.3305                 1.3495
 Frc consts  --      1.2254                 1.2661                 1.3008
 IR Inten    --      1.5666                 3.6380                12.7474

                     61                     62                     63
                      A                      A                      A
 Frequencies --   1295.0395              1302.9105              1314.1447
 Red. masses --      1.3048                 1.7223                 1.2653
 Frc consts  --      1.2893                 1.7226                 1.2874
 IR Inten    --      9.1302                77.1308                 0.0939

                     64                     65                     66
                      A                      A                      A
 Frequencies --   1326.4846              1333.0190              1354.4416
 Red. masses --      1.6053                 1.6050                 1.7790
 Frc consts  --      1.6642                 1.6804                 1.9228
 IR Inten    --      6.5146                 5.9201                46.5430

                     67                     68                     69
                      A                      A                      A
 Frequencies --   1355.1962              1360.2888              1367.9555
 Red. masses --      1.2232                 1.2765                 1.4576
 Frc consts  --      1.3236                 1.3917                 1.6070
 IR Inten    --     12.1629                 3.0932                19.2737

                     70                     71                     72
                      A                      A                      A
 Frequencies --   1380.3959              1399.4662              1425.3100
 Red. masses --      2.1863                 1.4011                 1.8509
 Frc consts  --      2.4545                 1.6168                 2.2154
 IR Inten    --     32.9968                 3.3188                37.0109

                     73                     74                     75
                      A                      A                      A
 Frequencies --   1447.5226              1482.0704              1488.9445
 Red. masses --      1.2521                 1.2850                 1.0886
 Frc consts  --      1.5458                 1.6630                 1.4219
 IR Inten    --      5.1280                36.9429                 0.7982

                     76                     77                     78
                      A                      A                      A
 Frequencies --   1502.1497              1513.0207              1520.0231
 Red. masses --      2.4405                 1.0934                 1.0907
 Frc consts  --      3.2446                 1.4748                 1.4848
 IR Inten    --     97.0653                 3.6015                 1.4722

                     79                     80                     81
                      A                      A                      A
 Frequencies --   1524.1962              1527.1340              1533.7811
 Red. masses --      1.0964                 1.0838                 1.0505
 Frc consts  --      1.5007                 1.4893                 1.4561
 IR Inten    --      6.6985                 8.0121                10.7763

                     82                     83                     84
                      A                      A                      A
 Frequencies --   1545.5058              1548.4349              1645.0559
 Red. masses --      1.1121                 1.0534                 3.5705
 Frc consts  --      1.5651                 1.4880                 5.6930
 IR Inten    --      5.3255                11.5640               182.8993

                     85                     86                     87
                      A                      A                      A
 Frequencies --   1693.5637              3025.3958              3033.3452
 Red. masses --      7.5948                 1.0724                 1.0645
 Frc consts  --     12.8342                 5.7832                 5.7711
 IR Inten    --    489.4348                19.5096                29.7785

                     88                     89                     90
                      A                      A                      A
 Frequencies --   3051.2675              3054.7505              3059.4034
 Red. masses --      1.0686                 1.0358                 1.0645
 Frc consts  --      5.8618                 5.6948                 5.8702
 IR Inten    --     25.5241                14.7844                30.1834

                     91                     92                     93
                      A                      A                      A
 Frequencies --   3065.4708              3071.8419              3078.9414
 Red. masses --      1.0643                 1.0625                 1.0934
 Frc consts  --      5.8926                 5.9074                 6.1068
 IR Inten    --     10.1649                15.1272                16.3030

                     94                     95                     96
                      A                      A                      A
 Frequencies --   3080.2298              3097.4414              3106.4720
 Red. masses --      1.0693                 1.0881                 1.0926
 Frc consts  --      5.9774                 6.1510                 6.2119
 IR Inten    --      6.3851                12.1753                25.8903

                     97                     98                     99
                      A                      A                      A
 Frequencies --   3110.6141              3116.3674              3116.6293
 Red. masses --      1.0989                 1.1059                 1.1030
 Frc consts  --      6.2648                 6.3278                 6.3124
 IR Inten    --     26.6080                 8.4325                31.8574

                    100                    101                    102
                      A                      A                      A
 Frequencies --   3124.3022              3124.9683              3127.5923
 Red. masses --      1.1019                 1.0995                 1.1033
 Frc consts  --      6.3374                 6.3260                 6.3587
 IR Inten    --     45.0997                49.7802                25.4848

                    103                    104                    105
                      A                      A                      A
 Frequencies --   3189.3485              3241.3183              3567.4301
 Red. masses --      1.0953                 1.0924                 1.0775
 Frc consts  --      6.5641                 6.7620                 8.0795
 IR Inten    --      1.0788                 1.8496               115.8854

 - Thermochemistry -
 -------------------
 Temperature   298.150 Kelvin.  Pressure   1.00000 Atm.
 Atom     1 has atomic number  6 and mass  12.00000

 Molecular mass:   268.10679 amu.
 Principal axes and moments of inertia in atomic units:
                           1         2         3
     Eigenvalues --  4462.196436151.945409317.02518
           X            0.99974   0.02213   0.00495
           Y           -0.02218   0.99969   0.01107
           Z           -0.00470  -0.01118   0.99993
 This molecule is an asymmetric top.
 Rotational symmetry number  1.
 Warning -- assumption of classical behavior for rotation
           may cause significant error
 Rotational temperatures (Kelvin)      0.01941     0.01408     0.00930
 Rotational constants (GHZ):           0.40445     0.29336     0.19370
 Zero-point vibrational energy     834182.3 (Joules/Mol)
                                  199.37434 (Kcal/Mol)
 Warning -- explicit consideration of  24 degrees of freedom as
           vibrations may cause significant error
 Vibrational temperatures:     22.96    41.93    48.34    58.77    86.83
          (Kelvin)            146.67   161.13   170.76   196.68   267.47
                              302.57   336.04   366.57   381.48   430.91
                              439.36   456.36   466.08   620.98   633.26
                              679.75   775.49   786.07   858.71   894.75
                              908.17   920.16   926.77   956.77  1047.97
                             1092.78  1131.24  1170.04  1224.71  1236.97
                             1256.04  1288.11  1291.49  1313.85  1323.94
                             1341.23  1371.16  1373.72  1436.76  1452.98
                             1493.10  1517.79  1538.05  1558.51  1568.62
                             1603.90  1633.12  1691.32  1699.32  1721.48
                             1751.50  1797.49  1814.98  1828.49  1840.27
                             1863.27  1874.60  1890.76  1908.52  1917.92
                             1948.74  1949.83  1957.15  1968.18  1986.08
                             2013.52  2050.70  2082.66  2132.37  2142.26
                             2161.26  2176.90  2186.97  2192.98  2197.21
                             2206.77  2223.64  2227.85  2366.87  2436.66
                             4352.87  4364.31  4390.09  4395.10  4401.80
                             4410.53  4419.70  4429.91  4431.76  4456.53
                             4469.52  4475.48  4483.76  4484.13  4495.17
                             4496.13  4499.91  4588.76  4663.53  5132.74

 Zero-point correction=                           0.317723 (Hartree/Particle)
 Thermal correction to Energy=                    0.335373
 Thermal correction to Enthalpy=                  0.336317
 Thermal correction to Gibbs Free Energy=         0.268892
 Sum of electronic and zero-point Energies=          -1413.080074
 Sum of electronic and thermal Energies=             -1413.062424
 Sum of electronic and thermal Enthalpies=           -1413.061480
 Sum of electronic and thermal Free Energies=        -1413.128906

                     E (Thermal)             CV                S
                      KCal/Mol        Cal/Mol-Kelvin    Cal/Mol-Kelvin
 Total                  210.450             65.814            141.909
 Electronic               0.000              0.000              0.000
 Translational            0.889              2.981             42.658
 Rotational               0.889              2.981             33.902
 Vibrational            208.672             59.853             65.349
 Vibration     1          0.593              1.986              7.083
 Vibration     2          0.593              1.984              5.887
 Vibration     3          0.594              1.983              5.605
 Vibration     4          0.594              1.981              5.217
 Vibration     5          0.597              1.973              4.446
 Vibration     6          0.604              1.948              3.417
 Vibration     7          0.607              1.940              3.234
 Vibration     8          0.609              1.934              3.122
 Vibration     9          0.614              1.917              2.850
 Vibration    10          0.632              1.859              2.268
 Vibration    11          0.642              1.825              2.041
 Vibration    12          0.654              1.790              1.851
 Vibration    13          0.665              1.755              1.697
 Vibration    14          0.671              1.737              1.628
 Vibration    15          0.692              1.675              1.420
 Vibration    16          0.696              1.664              1.387
 Vibration    17          0.704              1.641              1.325
 Vibration    18          0.708              1.628              1.290
 Vibration    19          0.793              1.401              0.853
 Vibration    20          0.800              1.383              0.826
 Vibration    21          0.829              1.311              0.731
 Vibration    22          0.894              1.164              0.567
 Vibration    23          0.902              1.148              0.552
 Vibration    24          0.955              1.039              0.455

                           ! Non-Optimized Parameters !
 Normal termination of Gaussian 16 at Mon Dec 14 17:29:01 2020.

 ----------------------------------------------------------------------
 # B3LYP/6-311++G(d,p) empiricaldispersion=gd3bj scf=xqc pop=npa geom=c
 heck
 ----------------------------------------------------------------------

 ---------------------------------------
 CID_113839874_JID_7533_Energie_neutraal
 ---------------------------------------
 Structure from the checkpoint file:  "JID_7533.chk"
 Charge =  0 Multiplicity = 1

 SCF Done:  E(RB3LYP) =  -1413.61466293     A.U. after   16 cycles
 Normal termination of Gaussian 16 at Mon Dec 14 17:37:53 2020.

 ----------------------------------------------------------------------
 # B3LYP/6-311++G(d,p) empiricaldispersion=gd3bj scf=xqc pop=npa geom=c
 heck
 ----------------------------------------------------------------------

 -------------------------------------
 CID_113839874_JID_7533_Energie_kation
 -------------------------------------
 Structure from the checkpoint file:  "JID_7533.chk"
 Charge =  1 Multiplicity = 2

 SCF Done:  E(UB3LYP) =  -1413.34763174     A.U. after   26 cycles
 Normal termination of Gaussian 16 at Mon Dec 14 17:57:09 2020.
 Gaussian 16:  ES64L-G16RevA.03 25-Dec-2016

 ----------------------------------------------------------------------
 # B3LYP/6-311++G(d,p) empiricaldispersion=gd3bj scf=xqc pop=npa geom=c
 heck
 ----------------------------------------------------------------------

 ------------------------------------
 CID_113839874_JID_7533_Energie_anion
 ------------------------------------
 Structure from the checkpoint file:  "JID_7533.chk"
 Charge = -1 Multiplicity = 2

                         Standard orientation:
 ---------------------------------------------------------------------
 Center     Atomic      Atomic             Coordinates (Angstroms)
 Number     Number       Type             X           Y           Z
 ---------------------------------------------------------------------
      1          6           0       -4.197698   -0.873447   -0.419850
      2          6           0       -3.414520   -1.892746   -1.250215
      3          6           0       -1.909153   -1.922401   -0.977231
      4         16           0       -1.404440   -2.411916    0.728538
      5          6           0       -1.489754   -0.803111    1.619453
      6          6           0       -0.715064    0.290196    0.934106
      7          7           0       -1.285425    1.430343    0.702669
      8          6           0       -0.564027    2.441754    0.057341
      9         16           0       -1.275397    3.917383   -0.255501
     10          6           0        0.794667    2.137922   -0.337733
     11          6           0        1.349118    0.921667   -0.092363
     12          7           0        0.572877   -0.005159    0.577921
     13          6           0        2.724709    0.484281   -0.497432
     14          6           0        3.639428    0.138246    0.721727
     15          6           0        4.424394   -1.111700    0.294478
     16          6           0        3.402473   -1.899884   -0.535677
     17          6           0        2.715717   -0.812340   -1.381669
     18          1           0       -4.252287   -1.181582    0.629407
     19          1           0       -5.225491   -0.786075   -0.787006
     20          1           0       -3.737520    0.120546   -0.459552
     21          1           0       -3.827878   -2.896947   -1.096493
     22          1           0       -3.535029   -1.664845   -2.318778
     23          1           0       -1.422111   -2.662979   -1.620114
     24          1           0       -1.454795   -0.950948   -1.200563
     25          1           0       -2.513714   -0.457255    1.745694
     26          1           0       -1.066065   -1.011207    2.608640
     27          1           0        1.364416    2.898583   -0.856682
     28          1           0        0.885603   -0.964491    0.680641
     29          1           0        3.163575    1.309219   -1.063870
     30          1           0        4.275855    0.982557    1.000481
     31          1           0        3.022281   -0.096391    1.597685
     32          1           0        4.821852   -1.673940    1.145424
     33          1           0        5.274199   -0.826467   -0.339027
     34          1           0        2.676630   -2.386158    0.132484
     35          1           0        3.850252   -2.689678   -1.146764
     36          1           0        1.707119   -1.090845   -1.703390
     37          1           0        3.296582   -0.625482   -2.290549
 ---------------------------------------------------------------------

 SCF Done:  E(UB3LYP) =  -1413.62692040     A.U. after   32 cycles

 The electronic state is 2-A.
 Alpha  occ. eigenvalues --  -88.74159 -88.62380 -14.23236 -14.17116 -10.11823
 Alpha  occ. eigenvalues --  -10.10312 -10.09794 -10.09727 -10.08952 -10.08466
 Alpha  occ. eigenvalues --  -10.08436 -10.08302 -10.08115 -10.08017 -10.07339
 Alpha  occ. eigenvalues --  -10.06393 -10.04403  -7.82778  -7.71155  -5.79165
 Alpha  occ. eigenvalues --   -5.78803  -5.78161  -5.67478  -5.67149  -5.66688
 Alpha  occ. eigenvalues --   -0.87780  -0.77751  -0.75055  -0.72277  -0.69250
 Alpha  occ. eigenvalues --   -0.65775  -0.62822  -0.62740  -0.60379  -0.57776
 Alpha  occ. eigenvalues --   -0.54374  -0.51453  -0.49239  -0.48860  -0.47378
 Alpha  occ. eigenvalues --   -0.45439  -0.43167  -0.40516  -0.39359  -0.37620
 Alpha  occ. eigenvalues --   -0.36752  -0.36132  -0.34552  -0.34290  -0.33388
 Alpha  occ. eigenvalues --   -0.31674  -0.31586  -0.30499  -0.29188  -0.28664
 Alpha  occ. eigenvalues --   -0.26708  -0.26307  -0.26105  -0.25819  -0.25374
 Alpha  occ. eigenvalues --   -0.25029  -0.24828  -0.24297  -0.23899  -0.21706
 Alpha  occ. eigenvalues --   -0.20214  -0.19759  -0.16080  -0.13682  -0.12942
 Alpha  occ. eigenvalues --   -0.07177  -0.04803   0.03511
 Alpha virt. eigenvalues --    0.05596   0.06808   0.07127   0.07878   0.08463
 Alpha virt. eigenvalues --    0.08717   0.09184   0.10134   0.10248   0.10571
 Alpha virt. eigenvalues --    0.10659   0.11198   0.11308   0.12225   0.12835

  Beta  occ. eigenvalues --  -88.74131 -88.62296 -14.22999 -14.17283 -10.11493
  Beta  occ. eigenvalues --  -10.10303 -10.09731 -10.09588 -10.08968 -10.08457
  Beta  occ. eigenvalues --  -10.08426 -10.08300 -10.08087 -10.07996 -10.06874
  Beta  occ. eigenvalues --  -10.06391 -10.04516  -7.82747  -7.71080  -5.79121
  Beta  occ. eigenvalues --   -5.78768  -5.78139  -5.67447  -5.66871  -5.66641
  Beta  occ. eigenvalues --   -0.87346  -0.77540  -0.74952  -0.72170  -0.68983
  Beta  occ. eigenvalues --   -0.65649  -0.62707  -0.62621  -0.60338  -0.57337
  Beta  occ. eigenvalues --   -0.54233  -0.51337  -0.49189  -0.48723  -0.47301
  Beta  occ. eigenvalues --   -0.45107  -0.42933  -0.40441  -0.39276  -0.37493
  Beta  occ. eigenvalues --   -0.36624  -0.35995  -0.34258  -0.34029  -0.33287
  Beta  occ. eigenvalues --   -0.31535  -0.31429  -0.30172  -0.29043  -0.28453
  Beta  occ. eigenvalues --   -0.26682  -0.26116  -0.26040  -0.25787  -0.25250
  Beta  occ. eigenvalues --   -0.24972  -0.24776  -0.24103  -0.23836  -0.21556
  Beta  occ. eigenvalues --   -0.19396  -0.18905  -0.15366  -0.13607  -0.12932
  Beta  occ. eigenvalues --   -0.05830  -0.04616
  Beta virt. eigenvalues --    0.05559   0.06701   0.07221   0.07801   0.08411
  Beta virt. eigenvalues --    0.08649   0.09072   0.09446   0.10188   0.10493
  Beta virt. eigenvalues --    0.10544   0.10691   0.11125   0.11288   0.12186

 Mulliken charges and spin densities:
               1          2
     1  C   -0.514866  -0.048914
     2  C   -0.483598   0.023094
     3  C   -0.098882  -0.003713
     4  S    0.510466  -0.381572
     5  C   -0.742397   0.366486
     6  C   -0.393167  -0.091966
     7  N    0.291365  -0.089659
     8  C    0.365537   0.225898
     9  S   -1.060082   0.186107
    10  C   -0.257849  -0.170819
    11  C    0.581998   0.027658
    12  N   -0.010168   0.159034
    13  C   -0.321779   0.276898
    14  C   -0.413280  -0.013604
    15  C   -0.265984  -0.177913
    16  C   -0.130336  -0.128638
    17  C   -0.271698  -0.170374
    18  H    0.106632   0.018272
    19  H    0.123744  -0.004016
    20  H    0.187212   0.012797
    21  H    0.101797   0.018528
    22  H    0.087181   0.031873
    23  H    0.086837   0.131668
    24  H    0.141857   0.037544
    25  H    0.214662  -0.016266
    26  H    0.054320   0.192240
    27  H    0.140747   0.008735
    28  H    0.160894  -0.000637
    29  H    0.201563   0.023158
    30  H    0.146140  -0.001344
    31  H    0.124591   0.050677
    32  H   -0.031501   0.184981
    33  H    0.119082   0.000631
    34  H    0.007091   0.102561
    35  H    0.009073   0.148783
    36  H    0.192227  -0.040451
    37  H    0.040570   0.112265
 Sum of Mulliken charges =  -1.00000   1.00000

 Dipole moment (field-independent basis, Debye):
    X=              4.1961    Y=             -8.7962    Z=             -0.9743  Tot=              9.7944
 Quadrupole moment (field-independent basis, Debye-Ang):
   XX=           -150.0319   YY=           -194.6507   ZZ=           -134.0634
   XY=             19.4739   XZ=              0.2435   YZ=              5.1552

 Summary of Natural Population Analysis:

                                       Natural Population
                Natural  -----------------------------------------------
    Atom  No    Charge         Core      Valence    Rydberg      Total
 -----------------------------------------------------------------------
      C    1   -0.29345      0.99967     2.28843    0.00535     3.29345
      C    2   -0.19383      0.99963     2.18644    0.00775     3.19383
      C    3   -0.25391      0.99958     2.24140    0.01293     3.25391
      S    4    0.08069      4.99965     2.90178    0.01788     7.91931
      C    5   -0.26581      0.99954     2.25473    0.01154     3.26581
      C    6    0.27401      0.99958     1.70915    0.01726     2.72599
      N    7   -0.29023      0.99964     2.77890    0.01169     3.79023
      C    8    0.08898      0.99958     1.89414    0.01729     2.91102
      S    9   -0.09789      4.99954     3.08293    0.01542     8.09789
      C   10   -0.16298      0.99944     2.15443    0.00911     3.16298
      C   11    0.14590      0.99948     1.84090    0.01373     2.85410
      N   12   -0.27371      0.99960     2.76401    0.01010     3.77371
      C   13   -0.12527      0.99957     2.11606    0.00964     3.12527
      C   14   -0.18593      0.99963     2.17759    0.00871     3.18593
      C   15   -0.19173      0.99964     2.18522    0.00688     3.19173
      C   16   -0.19366      0.99964     2.18694    0.00708     3.19366
      C   17   -0.18725      0.99963     2.18033    0.00729     3.18725
      H   18    0.09661      0.00000     0.40236    0.00103     0.40339
      H   19    0.09500      0.00000     0.40421    0.00078     0.40500
      H   20    0.11303      0.00000     0.38560    0.00137     0.38697
      H   21    0.09292      0.00000     0.40562    0.00146     0.40708
      H   22    0.09449      0.00000     0.40420    0.00131     0.40551
      H   23    0.10287      0.00000     0.39618    0.00095     0.39713
      H   24    0.10942      0.00000     0.38919    0.00139     0.39058
      H   25    0.11506      0.00000     0.38353    0.00141     0.38494
      H   26    0.11317      0.00000     0.38546    0.00138     0.38683
      H   27    0.10687      0.00000     0.39197    0.00116     0.39313
      H   28    0.19853      0.00000     0.29804    0.00343     0.30147
      H   29    0.10504      0.00000     0.39357    0.00139     0.39496
      H   30    0.10019      0.00000     0.39901    0.00081     0.39981
      H   31    0.09953      0.00000     0.39926    0.00121     0.40047
      H   32    0.09905      0.00000     0.39975    0.00120     0.40095
      H   33    0.09089      0.00000     0.40789    0.00122     0.40911
      H   34    0.09415      0.00000     0.40382    0.00203     0.40585
      H   35    0.09833      0.00000     0.40066    0.00100     0.40167
      H   36    0.10415      0.00000     0.39467    0.00118     0.39585
      H   37    0.09677      0.00000     0.40218    0.00105     0.40323
 =======================================================================
   * Total *    0.00000     24.99304    46.79055    0.21641    72.00000

 Normal termination of Gaussian 16 at Mon Dec 14 18:19:29 2020.
