 Gaussian 16, Revision A.03,

 -----------------------------------------------------------
 # opt freq B3LYP/6-31G(d) empiricaldispersion=gd3bj scf=xqc
 -----------------------------------------------------------

 ------------------------------
 CID_91159159_JID_2323_neutraal
 ------------------------------
 Symbolic Z-matrix:
 Charge =  0 Multiplicity = 1

 SCF Done:  E(RB3LYP) =  -501.455962682     A.U. after   14 cycles
 SCF Done:  E(RB3LYP) =  -501.457420344     A.U. after   11 cycles
 SCF Done:  E(RB3LYP) =  -501.457722150     A.U. after   11 cycles
 SCF Done:  E(RB3LYP) =  -501.457806153     A.U. after   10 cycles
 SCF Done:  E(RB3LYP) =  -501.457823198     A.U. after   10 cycles
 SCF Done:  E(RB3LYP) =  -501.457828182     A.U. after    9 cycles
 SCF Done:  E(RB3LYP) =  -501.457830742     A.U. after    9 cycles
 SCF Done:  E(RB3LYP) =  -501.457834091     A.U. after    9 cycles
 SCF Done:  E(RB3LYP) =  -501.457837960     A.U. after    9 cycles
 SCF Done:  E(RB3LYP) =  -501.457842897     A.U. after    9 cycles
 SCF Done:  E(RB3LYP) =  -501.457859744     A.U. after    9 cycles
 SCF Done:  E(RB3LYP) =  -501.457859776     A.U. after    7 cycles
 SCF Done:  E(RB3LYP) =  -501.457859827     A.U. after    6 cycles
 SCF Done:  E(RB3LYP) =  -501.457859896     A.U. after    6 cycles
 Optimization completed.
    -- Stationary point found.
 Normal termination of Gaussian 16 at Wed Dec  9 17:06:52 2020.

 --------------------------------------------------------------------
 #N Geom=AllCheck Guess=TCheck SCRF=Check GenChk RB3LYP/6-31G(d) Freq
 --------------------------------------------------------------------

 Structure from the checkpoint file:  "JID_2323.chk"
 ------------------------------
 CID_91159159_JID_2323_neutraal
 ------------------------------
 Charge =  0 Multiplicity = 1

 SCF Done:  E(RB3LYP) =  -501.457859896     A.U. after    1 cycles

  Exact polarizability: 140.959   3.770 113.701   5.875   1.122  89.875
 Approx polarizability: 183.976   4.160 181.821  14.909   0.869 127.429

                      1                      2                      3
                      A                      A                      A
 Frequencies --     23.3532                49.4921                61.6938
 Red. masses --      2.1839                 2.2760                 3.0059
 Frc consts  --      0.0007                 0.0033                 0.0067
 IR Inten    --      0.6011                 0.0294                 0.2466

                      4                      5                      6
                      A                      A                      A
 Frequencies --     93.6737               128.9073               150.2642
 Red. masses --      1.8565                 1.6020                 2.4572
 Frc consts  --      0.0096                 0.0157                 0.0327
 IR Inten    --      0.0943                 0.4832                 0.2452

                      7                      8                      9
                      A                      A                      A
 Frequencies --    181.2682               223.2478               238.3421
 Red. masses --      2.1852                 1.3803                 1.3393
 Frc consts  --      0.0423                 0.0405                 0.0448
 IR Inten    --      0.1772                 0.1961                 0.6266

                     10                     11                     12
                      A                      A                      A
 Frequencies --    246.3537               253.4998               280.9732
 Red. masses --      1.4428                 1.3693                 2.8680
 Frc consts  --      0.0516                 0.0518                 0.1334
 IR Inten    --      0.2046                 0.5700                 2.0051

                     13                     14                     15
                      A                      A                      A
 Frequencies --    304.1382               343.0011               407.4284
 Red. masses --      2.5334                 2.1314                 2.8248
 Frc consts  --      0.1381                 0.1477                 0.2763
 IR Inten    --      0.3483                 0.9368                 1.0618

                     16                     17                     18
                      A                      A                      A
 Frequencies --    428.3307               464.4591               498.2162
 Red. masses --      2.7588                 2.6996                 3.1150
 Frc consts  --      0.2982                 0.3431                 0.4556
 IR Inten    --      0.6912                 1.4022                 1.0396

                     19                     20                     21
                      A                      A                      A
 Frequencies --    608.1660               664.9620               690.0321
 Red. masses --      2.5763                 6.1523                 4.0648
 Frc consts  --      0.5614                 1.6028                 1.1403
 IR Inten    --      1.5602                 0.8493                 2.9632

                     22                     23                     24
                      A                      A                      A
 Frequencies --    713.2907               737.4978               824.6495
 Red. masses --      3.7070                 2.1771                 1.5720
 Frc consts  --      1.1112                 0.6977                 0.6299
 IR Inten    --      5.6033                 0.9536                15.0537

                     25                     26                     27
                      A                      A                      A
 Frequencies --    862.2041               877.6254               901.6311
 Red. masses --      1.3614                 2.3876                 2.5810
 Frc consts  --      0.5963                 1.0835                 1.2362
 IR Inten    --      8.1294                 3.6423                 2.8478

                     28                     29                     30
                      A                      A                      A
 Frequencies --    918.1094               939.7478               961.7354
 Red. masses --      1.3986                 1.1799                 2.2661
 Frc consts  --      0.6946                 0.6139                 1.2349
 IR Inten    --      3.4509                 0.6588                20.1660

                     31                     32                     33
                      A                      A                      A
 Frequencies --    972.0994              1048.0115              1065.2066
 Red. masses --      1.4949                 1.8658                 1.6919
 Frc consts  --      0.8323                 1.2074                 1.1311
 IR Inten    --      0.0083                 2.9256                20.0421

                     34                     35                     36
                      A                      A                      A
 Frequencies --   1072.2489              1085.6293              1120.6664
 Red. masses --      1.4565                 1.8338                 1.9810
 Frc consts  --      0.9866                 1.2734                 1.4659
 IR Inten    --      1.6450                 7.3916                 2.0774

                     37                     38                     39
                      A                      A                      A
 Frequencies --   1140.1717              1168.4305              1186.9227
 Red. masses --      2.3083                 2.0239                 1.8137
 Frc consts  --      1.7680                 1.6280                 1.5055
 IR Inten    --      2.6699                 0.2693                 3.8269

                     40                     41                     42
                      A                      A                      A
 Frequencies --   1216.5139              1228.6463              1277.8563
 Red. masses --      1.8040                 2.5768                 1.8742
 Frc consts  --      1.5730                 2.2919                 1.8031
 IR Inten    --      5.0859                 7.5936                 0.8501

                     43                     44                     45
                      A                      A                      A
 Frequencies --   1309.9821              1342.6914              1362.5049
 Red. masses --      1.2630                 1.9851                 2.1326
 Frc consts  --      1.2770                 2.1086                 2.3326
 IR Inten    --      0.7064                 4.2224                22.9726

                     46                     47                     48
                      A                      A                      A
 Frequencies --   1363.8142              1398.0353              1409.6268
 Red. masses --      1.3152                 1.4311                 1.4363
 Frc consts  --      1.4413                 1.6480                 1.6816
 IR Inten    --      2.5530                 3.0754                32.2833

                     49                     50                     51
                      A                      A                      A
 Frequencies --   1425.8441              1432.5923              1437.5493
 Red. masses --      1.2321                 3.2531                 1.7323
 Frc consts  --      1.4758                 3.9336                 2.1092
 IR Inten    --      3.8990                 2.6635                17.2884

                     52                     53                     54
                      A                      A                      A
 Frequencies --   1444.7017              1450.2003              1453.3201
 Red. masses --      1.6147                 1.3722                 1.2448
 Frc consts  --      1.9856                 1.7003                 1.5491
 IR Inten    --     17.6302                11.3220                 8.4635

                     55                     56                     57
                      A                      A                      A
 Frequencies --   1501.7731              1511.3368              1513.2986
 Red. masses --      1.1041                 1.1704                 1.2543
 Frc consts  --      1.4671                 1.5751                 1.6924
 IR Inten    --      0.3405                 7.8933                15.1723

                     58                     59                     60
                      A                      A                      A
 Frequencies --   1516.8400              1519.1431              1524.7483
 Red. masses --      1.1013                 1.0595                 1.2550
 Frc consts  --      1.4929                 1.4407                 1.7190
 IR Inten    --      2.6011                 0.8463                 6.9026

                     61                     62                     63
                      A                      A                      A
 Frequencies --   1528.4993              1529.3883              1533.3725
 Red. masses --      1.1962                 1.0847                 1.0647
 Frc consts  --      1.6466                 1.4948                 1.4749
 IR Inten    --      4.4822                 5.3771                 9.1868

                     64                     65                     66
                      A                      A                      A
 Frequencies --   1537.5688              1541.1608              1619.0609
 Red. masses --      1.3298                 1.0807                 5.5285
 Frc consts  --      1.8522                 1.5123                 8.5385
 IR Inten    --      9.1901                 5.8702                 7.4309

                     67                     68                     69
                      A                      A                      A
 Frequencies --   3025.7958              3040.4153              3043.7139
 Red. masses --      1.0840                 1.0570                 1.0456
 Frc consts  --      5.8472                 5.7567                 5.7072
 IR Inten    --     19.9068                 6.4901                42.8499

                     70                     71                     72
                      A                      A                      A
 Frequencies --   3044.8957              3049.8008              3056.3440
 Red. masses --      1.0353                 1.0364                 1.0373
 Frc consts  --      5.6556                 5.6795                 5.7092
 IR Inten    --     24.8702                36.3161                22.9930

                     73                     74                     75
                      A                      A                      A
 Frequencies --   3071.0131              3077.7396              3089.5063
 Red. masses --      1.0792                 1.0855                 1.1001
 Frc consts  --      5.9969                 6.0583                 6.1867
 IR Inten    --     19.6912                45.3682                21.7152

                     76                     77                     78
                      A                      A                      A
 Frequencies --   3108.0723              3114.1220              3119.6248
 Red. masses --      1.1018                 1.1013                 1.1029
 Frc consts  --      6.2710                 6.2928                 6.3239
 IR Inten    --      1.5596                99.3800                30.4871

                     79                     80                     81
                      A                      A                      A
 Frequencies --   3122.5459              3124.3939              3135.6155
 Red. masses --      1.1026                 1.1021                 1.1015
 Frc consts  --      6.3339                 6.3387                 6.3806
 IR Inten    --     23.7979                34.8610                14.1848

                     82                     83                     84
                      A                      A                      A
 Frequencies --   3139.8303              3161.3502              3241.1282
 Red. masses --      1.1013                 1.0946                 1.0957
 Frc consts  --      6.3970                 6.4456                 6.7814
 IR Inten    --     36.3406                13.3215                11.1027

 - Thermochemistry -
 -------------------
 Temperature   298.150 Kelvin.  Pressure   1.00000 Atm.
 Atom     1 has atomic number  6 and mass  12.00000

 Molecular mass:   166.14700 amu.
 Principal axes and moments of inertia in atomic units:
                           1         2         3
     Eigenvalues --  1051.889503318.114563516.75105
           X            0.99999  -0.00044  -0.00503
           Y            0.00073   0.99828   0.05858
           Z            0.00499  -0.05858   0.99827
 This molecule is an asymmetric top.
 Rotational symmetry number  1.
 Warning -- assumption of classical behavior for rotation
           may cause significant error
 Rotational temperatures (Kelvin)      0.08234     0.02610     0.02463
 Rotational constants (GHZ):           1.71571     0.54391     0.51318
 Zero-point vibrational energy     709574.9 (Joules/Mol)
                                  169.59247 (Kcal/Mol)
 Warning -- explicit consideration of  19 degrees of freedom as
           vibrations may cause significant error
 Vibrational temperatures:     33.60    71.21    88.76   134.78   185.47
          (Kelvin)            216.20   260.80   321.20   342.92   354.45
                              364.73   404.26   437.59   493.50   586.20
                              616.27   668.25   716.82   875.02   956.73
                              992.80  1026.27  1061.09  1186.49  1240.52
                             1262.71  1297.25  1320.95  1352.09  1383.72
                             1398.63  1507.85  1532.59  1542.73  1561.98
                             1612.39  1640.45  1681.11  1707.72  1750.29
                             1767.75  1838.55  1884.77  1931.83  1960.34
                             1962.22  2011.46  2028.14  2051.47  2061.18
                             2068.31  2078.60  2086.51  2091.00  2160.72
                             2174.48  2177.30  2182.39  2185.71  2193.77
                             2199.17  2200.45  2206.18  2212.22  2217.39
                             2329.47  4353.45  4374.48  4379.23  4380.93
                             4387.98  4397.40  4418.50  4428.18  4445.11
                             4471.82  4480.53  4488.44  4492.65  4495.31
                             4511.45  4517.52  4548.48  4663.26

 Zero-point correction=                           0.270263 (Hartree/Particle)
 Thermal correction to Energy=                    0.283999
 Thermal correction to Enthalpy=                  0.284943
 Thermal correction to Gibbs Free Energy=         0.229137
 Sum of electronic and zero-point Energies=           -501.187597
 Sum of electronic and thermal Energies=              -501.173861
 Sum of electronic and thermal Enthalpies=            -501.172917
 Sum of electronic and thermal Free Energies=         -501.228723

                     E (Thermal)             CV                S
                      KCal/Mol        Cal/Mol-Kelvin    Cal/Mol-Kelvin
 Total                  178.212             50.147            117.454
 Electronic               0.000              0.000              0.000
 Translational            0.889              2.981             41.231
 Rotational               0.889              2.981             30.885
 Vibrational            176.434             44.186             45.338
 Vibration     1          0.593              1.985              6.326
 Vibration     2          0.595              1.978              4.838
 Vibration     3          0.597              1.973              4.402
 Vibration     4          0.603              1.954              3.582
 Vibration     5          0.611              1.924              2.962
 Vibration     6          0.618              1.902              2.669
 Vibration     7          0.630              1.865              2.315
 Vibration     8          0.649              1.806              1.933
 Vibration     9          0.656              1.782              1.815
 Vibration    10          0.661              1.769              1.757
 Vibration    11          0.665              1.757              1.706
 Vibration    12          0.681              1.709              1.528
 Vibration    13          0.695              1.666              1.394
 Vibration    14          0.722              1.589              1.198
 Vibration    15          0.772              1.454              0.936
 Vibration    16          0.790              1.409              0.864
 Vibration    17          0.822              1.329              0.753
 Vibration    18          0.854              1.254              0.663
 Vibration    19          0.967              1.015              0.436

 Optimization completed.
    -- Stationary point found.
 Normal termination of Gaussian 16 at Wed Dec  9 17:14:27 2020.

 ----------------------------------------------------------------------
 # B3LYP/6-311++G(d,p) empiricaldispersion=gd3bj scf=xqc pop=npa geom=c
 heck
 ----------------------------------------------------------------------

 --------------------------------------
 CID_91159159_JID_2323_Energie_neutraal
 --------------------------------------
 Structure from the checkpoint file:  "JID_2323.chk"
 Charge =  0 Multiplicity = 1

 SCF Done:  E(RB3LYP) =  -501.592023496     A.U. after   14 cycles
 Normal termination of Gaussian 16 at Wed Dec  9 17:17:30 2020.

 ----------------------------------------------------------------------
 # B3LYP/6-311++G(d,p) empiricaldispersion=gd3bj scf=xqc pop=npa geom=c
 heck
 ----------------------------------------------------------------------

 ------------------------------------
 CID_91159159_JID_2323_Energie_kation
 ------------------------------------
 Structure from the checkpoint file:  "JID_2323.chk"
 Charge =  1 Multiplicity = 2

 SCF Done:  E(UB3LYP) =  -501.292936719     A.U. after   33 cycles
 SCF Done:  E(UB3LYP) =  -501.292936719     a.u. after    1 cycles
 Normal termination of Gaussian 16 at Wed Dec  9 17:26:19 2020.
 Gaussian 16:  ES64L-G16RevA.03 25-Dec-2016

 ----------------------------------------------------------------------
 # B3LYP/6-311++G(d,p) empiricaldispersion=gd3bj scf=xqc pop=npa geom=c
 heck
 ----------------------------------------------------------------------

 -----------------------------------
 CID_91159159_JID_2323_Energie_anion
 -----------------------------------
 Structure from the checkpoint file:  "JID_2323.chk"
 Charge = -1 Multiplicity = 2

                         Standard orientation:
 ---------------------------------------------------------------------
 Center     Atomic      Atomic             Coordinates (Angstroms)
 Number     Number       Type             X           Y           Z
 ---------------------------------------------------------------------
      1          6           0       -3.340153    0.424459    1.262762
      2          6           0       -3.072229   -0.758225    0.330618
      3          6           0       -2.309049   -0.365315   -0.941387
      4          7           0       -1.002250    0.210986   -0.670312
      5          6           0        0.157545   -0.443262   -0.351979
      6          6           0        1.098892    0.545214   -0.072878
      7          6           0        0.389878    1.755675   -0.250111
      8          7           0       -0.877924    1.559165   -0.606750
      9          6           0        2.549755    0.412491    0.319958
     10          6           0        2.733548   -0.354282    1.641486
     11          6           0        3.410103   -0.193037   -0.803714
     12          6           0        0.248965   -1.936880   -0.352128
     13          1           0       -2.405139    0.892930    1.583257
     14          1           0       -3.888324    0.100925    2.154245
     15          1           0       -3.933552    1.195551    0.758597
     16          1           0       -2.508929   -1.534922    0.863586
     17          1           0       -4.019230   -1.220216    0.021070
     18          1           0       -2.177529   -1.235876   -1.592991
     19          1           0       -2.859734    0.395560   -1.499891
     20          1           0        0.766720    2.764910   -0.136528
     21          1           0        2.916085    1.434711    0.488123
     22          1           0        2.411153   -1.397442    1.547719
     23          1           0        3.787046   -0.358900    1.945563
     24          1           0        2.145487    0.104396    2.443175
     25          1           0        3.301317    0.380831   -1.729710
     26          1           0        4.470070   -0.198360   -0.522769
     27          1           0        3.118970   -1.227597   -1.018432
     28          1           0       -0.304076   -2.386010    0.482609
     29          1           0       -0.151491   -2.367585   -1.277913
     30          1           0        1.288847   -2.254986   -0.266032
 ---------------------------------------------------------------------

 SCF Done:  E(UB3LYP) =  -501.577740182     A.U. after   33 cycles
 SCF Done:  E(UB3LYP) =  -501.577740182     a.u. after    1 cycles

 The electronic state is 2-A.
 Alpha  occ. eigenvalues --  -14.27731 -14.21827 -10.10786 -10.10363 -10.08285
 Alpha  occ. eigenvalues --  -10.07918 -10.07175 -10.07052 -10.06045 -10.05977
 Alpha  occ. eigenvalues --  -10.05801 -10.05788  -0.94020  -0.74580  -0.71902
 Alpha  occ. eigenvalues --   -0.68440  -0.65470  -0.60265  -0.58594  -0.58532
 Alpha  occ. eigenvalues --   -0.52000  -0.49984  -0.47206  -0.43019  -0.40261
 Alpha  occ. eigenvalues --   -0.37402  -0.36462  -0.34683  -0.34196  -0.32844
 Alpha  occ. eigenvalues --   -0.31549  -0.31203  -0.30642  -0.30440  -0.29033
 Alpha  occ. eigenvalues --   -0.28549  -0.28167  -0.25540  -0.25100  -0.25063
 Alpha  occ. eigenvalues --   -0.24420  -0.23992  -0.22789  -0.18436  -0.14281
 Alpha  occ. eigenvalues --   -0.12865   0.04462
 Alpha virt. eigenvalues --    0.06337   0.07535   0.08029   0.08793   0.08814
 Alpha virt. eigenvalues --    0.09485   0.10261   0.10576   0.11129   0.11303
 Alpha virt. eigenvalues --    0.11789   0.12090   0.12576   0.12893   0.14152

  Beta  occ. eigenvalues --  -14.27733 -14.21821 -10.10765 -10.10357 -10.08279
  Beta  occ. eigenvalues --  -10.07915 -10.07120 -10.07019 -10.06045 -10.05950
  Beta  occ. eigenvalues --  -10.05773 -10.05770  -0.94012  -0.74560  -0.71881
  Beta  occ. eigenvalues --   -0.68405  -0.65434  -0.60198  -0.58555  -0.58473
  Beta  occ. eigenvalues --   -0.51944  -0.49944  -0.47163  -0.42974  -0.40218
  Beta  occ. eigenvalues --   -0.37360  -0.36431  -0.34647  -0.34170  -0.32794
  Beta  occ. eigenvalues --   -0.31529  -0.31154  -0.30600  -0.30404  -0.29004
  Beta  occ. eigenvalues --   -0.28517  -0.28125  -0.25502  -0.25064  -0.25012
  Beta  occ. eigenvalues --   -0.24389  -0.23957  -0.22757  -0.18420  -0.14263
  Beta  occ. eigenvalues --   -0.12843
  Beta virt. eigenvalues --    0.06685   0.07326   0.08181   0.08590   0.09166
  Beta virt. eigenvalues --    0.09338   0.09867   0.10795   0.10881   0.11346
  Beta virt. eigenvalues --    0.11777   0.11962   0.12399   0.12781   0.13388

 Mulliken charges and spin densities:
               1          2
     1  C    0.458074  -1.034746
     2  C   -0.408169   0.354715
     3  C    0.027405  -0.329578
     4  N    0.402427   0.093168
     5  C   -3.436241   2.750741
     6  C    3.195304  -2.428440
     7  C    1.523406  -1.456057
     8  N   -0.430888   0.146469
     9  C   -4.380578   4.213688
    10  C    0.753500  -1.382355
    11  C    0.891609  -1.501252
    12  C    3.027546  -3.688913
    13  H    0.100085   0.072788
    14  H   -0.239731   0.368615
    15  H    0.131258  -0.011351
    16  H   -0.128122   0.264666
    17  H   -0.616524   0.774811
    18  H   -0.168865   0.308874
    19  H   -0.112688   0.295654
    20  H    0.068617   0.061211
    21  H    0.006963   0.152025
    22  H   -0.207918   0.359066
    23  H   -0.353118   0.495115
    24  H   -0.013890   0.145184
    25  H   -0.027239   0.162104
    26  H   -0.290612   0.431176
    27  H   -0.181670   0.328003
    28  H   -0.203037   0.373354
    29  H   -0.384809   0.552587
    30  H   -0.002094   0.128676
 Sum of Mulliken charges =  -1.00000   1.00000

 Dipole moment (field-independent basis, Debye):
    X=              0.6626    Y=              4.6703    Z=             -0.3081  Tot=              4.7271
 Quadrupole moment (field-independent basis, Debye-Ang):
   XX=           -151.5660   YY=           -118.3369   ZZ=           -112.0098
   XY=             -1.6454   XZ=             -1.9220   YZ=             -0.1232

 Summary of Natural Population Analysis:

                                       Natural Population
                Natural  -----------------------------------------------
    Atom  No    Charge         Core      Valence    Rydberg      Total
 -----------------------------------------------------------------------
      C    1   -0.28776      0.99966     2.28188    0.00622     3.28776
      C    2   -0.19331      0.99963     2.18601    0.00766     3.19331
      C    3   -0.08240      0.99960     2.07070    0.01210     3.08240
      N    4   -0.11317      0.99962     2.59933    0.01423     3.61317
      C    5    0.09168      0.99947     1.89689    0.01196     2.90832
      C    6   -0.07054      0.99945     2.06010    0.01099     3.07054
      C    7   -0.01146      0.99957     1.99831    0.01358     3.01146
      N    8   -0.15850      0.99974     2.64791    0.01086     3.65850
      C    9   -0.11808      0.99959     2.10850    0.00999     3.11808
      C   10   -0.27937      0.99965     2.27429    0.00542     3.27937
      C   11   -0.27856      0.99965     2.27359    0.00532     3.27856
      C   12   -0.30398      0.99963     2.29856    0.00579     3.30398
      H   13    0.10353      0.00000     0.39526    0.00120     0.39647
      H   14    0.09757      0.00000     0.40159    0.00084     0.40243
      H   15    0.09551      0.00000     0.40359    0.00089     0.40449
      H   16    0.09798      0.00000     0.40015    0.00187     0.40202
      H   17    0.09863      0.00000     0.39916    0.00222     0.40137
      H   18    0.10326      0.00000     0.39512    0.00162     0.39674
      H   19    0.10419      0.00000     0.39413    0.00168     0.39581
      H   20    0.09352      0.00000     0.40551    0.00098     0.40648
      H   21    0.09431      0.00000     0.40386    0.00183     0.40569
      H   22    0.09812      0.00000     0.40069    0.00119     0.40188
      H   23    0.09680      0.00000     0.40210    0.00110     0.40320
      H   24    0.10036      0.00000     0.39854    0.00110     0.39964
      H   25    0.09934      0.00000     0.39968    0.00098     0.40066
      H   26    0.09672      0.00000     0.40224    0.00104     0.40328
      H   27    0.09724      0.00000     0.40166    0.00110     0.40276
      H   28    0.10964      0.00000     0.38836    0.00200     0.39036
      H   29    0.10891      0.00000     0.38941    0.00168     0.39109
      H   30    0.10982      0.00000     0.38888    0.00130     0.39018
 =======================================================================
   * Total *   -0.00000     11.99527    33.86598    0.13875    46.00000

 Normal termination of Gaussian 16 at Wed Dec  9 17:34:40 2020.
