 Gaussian 16, Revision A.03,

 -----------------------------------------------------------
 # opt freq B3LYP/6-31G(d) empiricaldispersion=gd3bj scf=xqc
 -----------------------------------------------------------

 -------------------------------
 CID_101796677_JID_2359_neutraal
 -------------------------------
 Symbolic Z-matrix:
 Charge =  0 Multiplicity = 1

 SCF Done:  E(RB3LYP) =  -612.941791492     A.U. after   15 cycles
 SCF Done:  E(RB3LYP) =  -612.949945021     A.U. after   12 cycles
 SCF Done:  E(RB3LYP) =  -612.951466391     A.U. after   12 cycles
 SCF Done:  E(RB3LYP) =  -612.951088914     A.U. after   13 cycles
 SCF Done:  E(RB3LYP) =  -612.952370436     A.U. after   12 cycles
 SCF Done:  E(RB3LYP) =  -612.952320580     A.U. after   12 cycles
 SCF Done:  E(RB3LYP) =  -612.952414531     A.U. after   12 cycles
 SCF Done:  E(RB3LYP) =  -612.952551983     A.U. after   11 cycles
 SCF Done:  E(RB3LYP) =  -612.952562686     A.U. after    9 cycles
 SCF Done:  E(RB3LYP) =  -612.952566691     A.U. after   10 cycles
 SCF Done:  E(RB3LYP) =  -612.952567379     A.U. after    8 cycles
 SCF Done:  E(RB3LYP) =  -612.952567721     A.U. after    7 cycles
 SCF Done:  E(RB3LYP) =  -612.952567864     A.U. after    7 cycles
 SCF Done:  E(RB3LYP) =  -612.952567914     A.U. after    7 cycles
 SCF Done:  E(RB3LYP) =  -612.952567935     A.U. after    7 cycles
 Optimization completed.
    -- Stationary point found.

 1\1\GINC-NODE361\FOpt\RB3LYP\6-31G(d)\C8H12O4\VSC10255\09-Dec-2020\0\\
 # opt freq B3LYP/6-31G(d) empiricaldispersion=gd3bj scf=xqc\\CID_10179
 6677_JID_2359_neutraal\\0,1\C,1.1246491614,-0.0046458499,-0.1695412876
 \O,0.2392115805,1.0119752321,-0.6215347739\C,0.5979544839,2.2997390965
 ,-0.4043969503\C,1.6254282344,2.7232115404,0.3624710052\C,2.0459472991
 ,4.1184309609,0.4613864153\C,2.6535214968,4.6221826401,1.5517204385\C,
 1.9457766202,4.9794919543,-0.763866984\O,2.0604929239,4.5861764191,-1.
 9074041009\O,1.7670234818,6.2844615169,-0.4545081051\C,1.7537040888,7.

 Normal termination of Gaussian 16 at Wed Dec  9 17:11:58 2020.

 --------------------------------------------------------------------
 #N Geom=AllCheck Guess=TCheck SCRF=Check GenChk RB3LYP/6-31G(d) Freq
 --------------------------------------------------------------------

 Structure from the checkpoint file:  "JID_2359.chk"
 -------------------------------
 CID_101796677_JID_2359_neutraal
 -------------------------------
 Charge =  0 Multiplicity = 1

 SCF Done:  E(RB3LYP) =  -612.952567935     A.U. after    1 cycles

  Exact polarizability: 125.612  12.028 117.417  -5.752  -4.383  60.973
 Approx polarizability: 160.619  36.324 183.431 -10.555 -10.965  96.526

                      1                      2                      3
                      A                      A                      A
 Frequencies --     34.8297                53.4847                99.9546
 Red. masses --      3.8439                 4.7561                 2.9357
 Frc consts  --      0.0027                 0.0080                 0.0173
 IR Inten    --      1.2565                 2.0056                 4.8220

                      4                      5                      6
                      A                      A                      A
 Frequencies --    116.1122               123.7221               137.6083
 Red. masses --      1.2931                 1.7985                 2.4482
 Frc consts  --      0.0103                 0.0162                 0.0273
 IR Inten    --      5.7358                 0.4595                 7.7708

                      7                      8                      9
                      A                      A                      A
 Frequencies --    143.7310               159.1710               198.0035
 Red. masses --      2.7808                 1.7950                 3.6527
 Frc consts  --      0.0338                 0.0268                 0.0844
 IR Inten    --      1.4985                 0.2346                 5.6008

                     10                     11                     12
                      A                      A                      A
 Frequencies --    226.5675               237.9278               269.1757
 Red. masses --      1.6581                 3.8781                 1.8466
 Frc consts  --      0.0501                 0.1293                 0.0788
 IR Inten    --      1.3248                 2.0897                 0.5306

                     13                     14                     15
                      A                      A                      A
 Frequencies --    295.2459               347.5871               357.0921
 Red. masses --      3.6472                 4.5829                 3.6963
 Frc consts  --      0.1873                 0.3262                 0.2777
 IR Inten    --      6.1289                 8.7865                14.2085

                     16                     17                     18
                      A                      A                      A
 Frequencies --    411.9142               500.1895               585.4723
 Red. masses --      4.0653                 4.6466                 5.2058
 Frc consts  --      0.4064                 0.6849                 1.0514
 IR Inten    --      2.2765                 5.2320                 4.9512

                     19                     20                     21
                      A                      A                      A
 Frequencies --    623.1849               642.1048               695.5630
 Red. masses --      3.5475                 4.6532                 3.7873
 Frc consts  --      0.8117                 1.1303                 1.0796
 IR Inten    --     14.3318                 5.8708                 1.3107

                     22                     23                     24
                      A                      A                      A
 Frequencies --    701.2331               787.9988               809.9971
 Red. masses --      1.4067                 2.1516                 2.2062
 Frc consts  --      0.4076                 0.7872                 0.8528
 IR Inten    --     17.4106                19.0499                26.1401

                     25                     26                     27
                      A                      A                      A
 Frequencies --    847.2493               881.2599               916.7866
 Red. masses --      4.9723                 3.9840                 1.4037
 Frc consts  --      2.1030                 1.8230                 0.6951
 IR Inten    --     15.5746                14.8999                33.1194

                     28                     29                     30
                      A                      A                      A
 Frequencies --   1020.6304              1033.3093              1057.6298
 Red. masses --      1.8984                 5.3456                 7.1289
 Frc consts  --      1.1652                 3.3629                 4.6983
 IR Inten    --     10.3485                 6.5605                72.5122

                     31                     32                     33
                      A                      A                      A
 Frequencies --   1122.8065              1182.1008              1186.5460
 Red. masses --      4.0039                 1.2782                 1.2779
 Frc consts  --      2.9740                 1.0524                 1.0600
 IR Inten    --    118.6018                 1.8432                 1.0208

                     34                     35                     36
                      A                      A                      A
 Frequencies --   1189.3952              1200.9222              1211.9695
 Red. masses --      1.2735                 2.1373                 1.5528
 Frc consts  --      1.0615                 1.8161                 1.3439
 IR Inten    --      1.9261                51.8276               130.9819

                     37                     38                     39
                      A                      A                      A
 Frequencies --   1228.1514              1239.6142              1266.1163
 Red. masses --      1.8469                 1.8766                 2.5011
 Frc consts  --      1.6414                 1.6990                 2.3623
 IR Inten    --    189.1106                99.8757               256.1075

                     40                     41                     42
                      A                      A                      A
 Frequencies --   1372.9829              1393.4154              1460.9477
 Red. masses --      2.3684                 2.5702                 1.2732
 Frc consts  --      2.6304                 2.9402                 1.6011
 IR Inten    --    194.8068                25.0512                30.6230

                     43                     44                     45
                      A                      A                      A
 Frequencies --   1490.2826              1492.9933              1508.4435
 Red. masses --      1.1809                 1.2196                 1.2471
 Frc consts  --      1.5453                 1.6018                 1.6719
 IR Inten    --      8.2936                18.1685                22.8246

                     46                     47                     48
                      A                      A                      A
 Frequencies --   1512.1085              1517.7650              1520.4121
 Red. masses --      1.0489                 1.0699                 1.0850
 Frc consts  --      1.4130                 1.4522                 1.4778
 IR Inten    --      4.0031                 9.1727                14.3053

                     49                     50                     51
                      A                      A                      A
 Frequencies --   1525.2602              1531.4190              1538.0374
 Red. masses --      1.0488                 1.0623                 1.0506
 Frc consts  --      1.4375                 1.4679                 1.4642
 IR Inten    --     10.5989                12.8217                14.1623

                     52                     53                     54
                      A                      A                      A
 Frequencies --   1674.1919              1719.8571              1801.5428
 Red. masses --      4.6666                 7.6415                11.4844
 Frc consts  --      7.7067                13.3172                21.9608
 IR Inten    --      4.1624               437.9791               198.6833

                     55                     56                     57
                      A                      A                      A
 Frequencies --   3041.2141              3072.2123              3074.0589
 Red. masses --      1.0331                 1.0297                 1.0286
 Frc consts  --      5.6300                 5.7260                 5.7270
 IR Inten    --     40.5058                31.2942                47.8048

                     58                     59                     60
                      A                      A                      A
 Frequencies --   3106.1259              3144.6921              3156.3545
 Red. masses --      1.1064                 1.1071                 1.1086
 Frc consts  --      6.2893                 6.4505                 6.5072
 IR Inten    --     31.8665                23.2131                20.7891

                     61                     62                     63
                      A                      A                      A
 Frequencies --   3165.0741              3174.6229              3176.4052
 Red. masses --      1.1025                 1.1064                 1.0614
 Frc consts  --      6.5073                 6.5697                 6.3096
 IR Inten    --     22.8269                19.7418                 8.6993

                     64                     65                     66
                      A                      A                      A
 Frequencies --   3178.6449              3224.2371              3271.9122
 Red. masses --      1.1068                 1.0886                 1.1140
 Frc consts  --      6.5887                 6.6677                 7.0264
 IR Inten    --     19.4260                10.9768                 5.7267

 - Thermochemistry -
 -------------------
 Temperature   298.150 Kelvin.  Pressure   1.00000 Atm.
 Atom     1 has atomic number  6 and mass  12.00000

 Molecular mass:   172.07356 amu.
 Principal axes and moments of inertia in atomic units:
                           1         2         3
     Eigenvalues --  1141.918732953.020633750.85865
           X            0.99981  -0.01692  -0.00954
           Y            0.01692   0.99986   0.00072
           Z            0.00953  -0.00088   0.99995
 This molecule is an asymmetric top.
 Rotational symmetry number  1.
 Warning -- assumption of classical behavior for rotation
           may cause significant error
 Rotational temperatures (Kelvin)      0.07585     0.02933     0.02309
 Rotational constants (GHZ):           1.58045     0.61115     0.48115
 Zero-point vibrational energy     514319.9 (Joules/Mol)
                                  122.92541 (Kcal/Mol)
 Warning -- explicit consideration of  18 degrees of freedom as
           vibrations may cause significant error
 Vibrational temperatures:     50.11    76.95   143.81   167.06   178.01
          (Kelvin)            197.99   206.80   229.01   284.88   325.98
                              342.33   387.28   424.79   500.10   513.78
                              592.65   719.66   842.36   896.62   923.85
                             1000.76  1008.92  1133.75  1165.41  1219.00
                             1267.94  1319.05  1468.46  1486.70  1521.69
                             1615.47  1700.78  1707.18  1711.27  1727.86
                             1743.75  1767.04  1783.53  1821.66  1975.42
                             2004.81  2101.98  2144.18  2148.08  2170.31
                             2175.59  2183.73  2187.53  2194.51  2203.37
                             2212.89  2408.79  2474.49  2592.02  4375.63
                             4420.23  4422.89  4469.02  4524.51  4541.29
                             4553.84  4567.57  4570.14  4573.36  4638.96
                             4707.55

 Zero-point correction=                           0.195894 (Hartree/Particle)
 Thermal correction to Energy=                    0.209539
 Thermal correction to Enthalpy=                  0.210483
 Thermal correction to Gibbs Free Energy=         0.155071
 Sum of electronic and zero-point Energies=           -612.756674
 Sum of electronic and thermal Energies=              -612.743029
 Sum of electronic and thermal Enthalpies=            -612.742085
 Sum of electronic and thermal Free Energies=         -612.797497

                     E (Thermal)             CV                S
                      KCal/Mol        Cal/Mol-Kelvin    Cal/Mol-Kelvin
 Total                  131.488             47.569            116.624
 Electronic               0.000              0.000              0.000
 Translational            0.889              2.981             41.336
 Rotational               0.889              2.981             30.915
 Vibrational            129.710             41.607             44.374
 Vibration     1          0.594              1.983              5.533
 Vibration     2          0.596              1.976              4.684
 Vibration     3          0.604              1.949              3.455
 Vibration     4          0.608              1.936              3.164
 Vibration     5          0.610              1.929              3.041
 Vibration     6          0.614              1.916              2.837
 Vibration     7          0.616              1.909              2.754
 Vibration     8          0.621              1.892              2.560
 Vibration     9          0.637              1.843              2.152
 Vibration    10          0.650              1.801              1.906
 Vibration    11          0.656              1.783              1.818
 Vibration    12          0.674              1.730              1.601
 Vibration    13          0.689              1.683              1.444
 Vibration    14          0.725              1.580              1.177
 Vibration    15          0.732              1.561              1.135
 Vibration    16          0.776              1.444              0.920
 Vibration    17          0.856              1.250              0.658
 Vibration    18          0.942              1.063              0.475

 Optimization completed.
    -- Stationary point found.

 1\1\GINC-NODE361\Freq\RB3LYP\6-31G(d)\C8H12O4\VSC10255\09-Dec-2020\0\\
 #N Geom=AllCheck Guess=TCheck SCRF=Check GenChk RB3LYP/6-31G(d) Freq\\
 CID_101796677_JID_2359_neutraal\\0,1\C,1.1246491614,-0.0046458499,-0.1
 695412876\O,0.2392115805,1.0119752321,-0.6215347739\C,0.5979544839,2.2
 997390965,-0.4043969503\C,1.6254282344,2.7232115404,0.3624710052\C,2.0
 459472991,4.1184309609,0.4613864153\C,2.6535214968,4.6221826401,1.5517
 204385\C,1.9457766202,4.9794919543,-0.763866984\O,2.0604929239,4.58617
 64191,-1.9074041009\O,1.7670234818,6.2844615169,-0.4545081051\C,1.7537

 Normal termination of Gaussian 16 at Wed Dec  9 17:17:01 2020.

 ----------------------------------------------------------------------
 # B3LYP/6-311++G(d,p) empiricaldispersion=gd3bj scf=xqc pop=npa geom=c
 heck
 ----------------------------------------------------------------------

 ---------------------------------------
 CID_101796677_JID_2359_Energie_neutraal
 ---------------------------------------
 Structure from the checkpoint file:  "JID_2359.chk"
 Charge =  0 Multiplicity = 1

 SCF Done:  E(RB3LYP) =  -613.136156960     A.U. after   15 cycles
 Normal termination of Gaussian 16 at Wed Dec  9 17:19:13 2020.

 ----------------------------------------------------------------------
 # B3LYP/6-311++G(d,p) empiricaldispersion=gd3bj scf=xqc pop=npa geom=c
 heck
 ----------------------------------------------------------------------

 -------------------------------------
 CID_101796677_JID_2359_Energie_kation
 -------------------------------------
 Structure from the checkpoint file:  "JID_2359.chk"
 Charge =  1 Multiplicity = 2

 SCF Done:  E(UB3LYP) =  -612.850957596     A.U. after   21 cycles
 Normal termination of Gaussian 16 at Wed Dec  9 17:22:55 2020.
 Gaussian 16:  ES64L-G16RevA.03 25-Dec-2016

 ------------------------------------
 CID_101796677_JID_2359_Energie_anion
 ------------------------------------
 Structure from the checkpoint file:  "JID_2359.chk"
 Charge = -1 Multiplicity = 2

                         Standard orientation:
 ---------------------------------------------------------------------
 Center     Atomic      Atomic             Coordinates (Angstroms)
 Number     Number       Type             X           Y           Z
 ---------------------------------------------------------------------
      1          6           0       -3.565669    0.723961    0.542561
      2          8           0       -2.796999   -0.251095   -0.150424
      3          6           0       -1.472410   -0.014151   -0.303731
      4          6           0       -0.831500    1.141696   -0.027383
      5          6           0        0.618650    1.303563   -0.091598
      6          6           0        1.210654    2.484780   -0.348499
      7          6           0        1.481769    0.142761    0.308739
      8          8           0        1.188795   -0.694117    1.139001
      9          8           0        2.677028    0.156003   -0.325124
     10          6           0        3.584394   -0.876739    0.080572
     11          8           0       -0.831016   -1.068988   -0.837699
     12          6           0       -1.062961   -2.344799   -0.217259
     13          1           0       -4.549548    0.278585    0.697269
     14          1           0       -3.669096    1.639154   -0.052926
     15          1           0       -3.103701    0.968407    1.506086
     16          1           0       -1.414559    2.025263    0.201651
     17          1           0        2.288150    2.594039   -0.333640
     18          1           0        0.620257    3.370645   -0.566171
     19          1           0        3.816435   -0.792008    1.145881
     20          1           0        3.150720   -1.862524   -0.107624
     21          1           0        4.481854   -0.730785   -0.521312
     22          1           0       -0.457806   -3.055147   -0.781915
     23          1           0       -0.724800   -2.313930    0.821933
     24          1           0       -2.117937   -2.622570   -0.275685
 ---------------------------------------------------------------------

 SCF Done:  E(UB3LYP) =  -613.123818019     A.U. after   33 cycles
 SCF Done:  E(UB3LYP) =  -613.123818019     a.u. after    1 cycles

 The electronic state is 2-A.
 Alpha  occ. eigenvalues --  -19.04329 -19.04127 -19.03143 -18.97168 -10.15898
 Alpha  occ. eigenvalues --  -10.15198 -10.11962 -10.10564 -10.10425 -10.04783
 Alpha  occ. eigenvalues --  -10.03283 -10.02278  -0.98785  -0.98076  -0.92158
 Alpha  occ. eigenvalues --   -0.88707  -0.68572  -0.64002  -0.61153  -0.59096
 Alpha  occ. eigenvalues --   -0.56767  -0.48968  -0.45834  -0.43240  -0.41407
 Alpha  occ. eigenvalues --   -0.39860  -0.37142  -0.36906  -0.35198  -0.34427
 Alpha  occ. eigenvalues --   -0.33510  -0.32517  -0.32025  -0.29941  -0.29437
 Alpha  occ. eigenvalues --   -0.27252  -0.25632  -0.25196  -0.23961  -0.23200
 Alpha  occ. eigenvalues --   -0.22003  -0.18810  -0.17946  -0.16679  -0.14725
 Alpha  occ. eigenvalues --   -0.08511   0.05260
 Alpha virt. eigenvalues --    0.07189   0.07257   0.08579   0.09573   0.10376
 Alpha virt. eigenvalues --    0.10909   0.11533   0.11815   0.12300   0.13249
 Alpha virt. eigenvalues --    0.13539   0.13827   0.14833   0.15078   0.16024

  Beta  occ. eigenvalues --  -19.04301 -19.04105 -19.03126 -18.97043 -10.15767
  Beta  occ. eigenvalues --  -10.15116 -10.11961 -10.10506 -10.10416 -10.04692
  Beta  occ. eigenvalues --  -10.03295 -10.02014  -0.98715  -0.97952  -0.92114
  Beta  occ. eigenvalues --   -0.88518  -0.68310  -0.63861  -0.61068  -0.58980
  Beta  occ. eigenvalues --   -0.56629  -0.48492  -0.45699  -0.43135  -0.41302
  Beta  occ. eigenvalues --   -0.39755  -0.36993  -0.36757  -0.35070  -0.34329
  Beta  occ. eigenvalues --   -0.33431  -0.32443  -0.31941  -0.29738  -0.29308
  Beta  occ. eigenvalues --   -0.26862  -0.25475  -0.25100  -0.23850  -0.23096
  Beta  occ. eigenvalues --   -0.21921  -0.18509  -0.17713  -0.16022  -0.14493
  Beta  occ. eigenvalues --   -0.07768
  Beta virt. eigenvalues --    0.07156   0.08249   0.08792   0.09538   0.09963
  Beta virt. eigenvalues --    0.10611   0.10876   0.11980   0.12137   0.12512
  Beta virt. eigenvalues --    0.13313   0.13567   0.14269   0.15141   0.15218

 Mulliken charges and spin densities:
               1          2
     1  C    1.301186  -1.619847
     2  O   -0.228045   0.078765
     3  C   -1.080609   0.677265
     4  C    0.386322  -0.457841
     5  C    1.634512  -0.434821
     6  C   -0.825752   0.482970
     7  C   -0.760700  -0.049919
     8  O   -0.298214   0.044824
     9  O   -0.061023   0.006493
    10  C   -0.123124  -0.114562
    11  O   -0.106107   0.019889
    12  C   -0.063036  -0.222243
    13  H   -1.030391   1.203373
    14  H   -0.251739   0.400151
    15  H   -0.279444   0.442606
    16  H    0.068990   0.136612
    17  H    0.118225  -0.005845
    18  H    0.042912   0.058520
    19  H    0.121063   0.046646
    20  H    0.106477   0.048099
    21  H    0.121120   0.004472
    22  H    0.015893   0.106636
    23  H    0.112535   0.074294
    24  H    0.078950   0.073465
 Sum of Mulliken charges =  -1.00000   1.00000

 Dipole moment (field-independent basis, Debye):
    X=              7.3493    Y=             -3.3875    Z=             -1.9978  Tot=              8.3353
 Quadrupole moment (field-independent basis, Debye-Ang):
   XX=           -133.0828   YY=            -97.0912   ZZ=            -94.8591
   XY=              1.1944   XZ=              6.9649   YZ=             -0.9582

 Summary of Natural Population Analysis:

                                       Natural Population
                Natural  -----------------------------------------------
    Atom  No    Charge         Core      Valence    Rydberg      Total
 -----------------------------------------------------------------------
      C    1   -0.09907      0.99960     2.09029    0.00917     3.09907
      O    2   -0.28101      0.99985     3.27114    0.01001     4.28101
      C    3    0.34294      0.99937     1.63945    0.01824     2.65706
      C    4   -0.19648      0.99947     2.18642    0.01059     3.19648
      C    5   -0.06363      0.99946     2.05172    0.01245     3.06363
      C    6   -0.12219      0.99955     2.11526    0.00738     3.12219
      C    7    0.42088      0.99963     1.55401    0.02548     2.57912
      O    8   -0.31016      0.99987     3.30464    0.00565     4.31016
      O    9   -0.27930      0.99986     3.27159    0.00785     4.27930
      C   10   -0.10516      0.99961     2.09702    0.00854     3.10516
      O   11   -0.27979      0.99985     3.27018    0.00976     4.27979
      C   12   -0.10233      0.99959     2.09485    0.00789     3.10233
      H   13    0.09477      0.00000     0.40173    0.00350     0.40523
      H   14    0.08313      0.00000     0.41523    0.00164     0.41687
      H   15    0.09032      0.00000     0.40739    0.00229     0.40968
      H   16    0.10466      0.00000     0.39397    0.00136     0.39534
      H   17    0.09118      0.00000     0.40778    0.00104     0.40882
      H   18    0.08474      0.00000     0.41437    0.00089     0.41526
      H   19    0.08705      0.00000     0.41140    0.00155     0.41295
      H   20    0.08903      0.00000     0.40939    0.00158     0.41097
      H   21    0.08405      0.00000     0.41495    0.00099     0.41595
      H   22    0.08517      0.00000     0.41365    0.00117     0.41483
      H   23    0.09539      0.00000     0.40318    0.00143     0.40461
      H   24    0.08582      0.00000     0.41230    0.00188     0.41418
 =======================================================================
   * Total *   -0.00000     11.99572    33.85193    0.15235    46.00000

 Normal termination of Gaussian 16 at Wed Dec  9 17:28:32 2020.
