 Gaussian 16, Revision A.03,

 -----------------------------------------------------------
 # opt freq B3LYP/6-31G(d) empiricaldispersion=gd3bj scf=xqc
 -----------------------------------------------------------

 -------------------------------
 CID_154169687_JID_7109_neutraal
 -------------------------------
 Symbolic Z-matrix:
 Charge =  0 Multiplicity = 1

 SCF Done:  E(RB3LYP) =  -870.379445430     A.U. after   15 cycles
 SCF Done:  E(RB3LYP) =  -870.383434646     A.U. after   13 cycles
 SCF Done:  E(RB3LYP) =  -870.381855253     A.U. after   13 cycles
 SCF Done:  E(RB3LYP) =  -870.384366967     A.U. after   12 cycles
 SCF Done:  E(RB3LYP) =  -870.384128358     A.U. after   12 cycles
 SCF Done:  E(RB3LYP) =  -870.384550184     A.U. after   11 cycles
 SCF Done:  E(RB3LYP) =  -870.384560072     A.U. after   11 cycles
 SCF Done:  E(RB3LYP) =  -870.384574302     A.U. after   10 cycles
 SCF Done:  E(RB3LYP) =  -870.384575071     A.U. after    8 cycles
 SCF Done:  E(RB3LYP) =  -870.384575703     A.U. after    9 cycles
 SCF Done:  E(RB3LYP) =  -870.384575929     A.U. after    8 cycles
 SCF Done:  E(RB3LYP) =  -870.384576074     A.U. after    8 cycles
 SCF Done:  E(RB3LYP) =  -870.384576129     A.U. after    8 cycles
 Optimization completed.
    -- Stationary point found.
 Normal termination of Gaussian 16 at Fri Dec 11 11:47:36 2020.

 --------------------------------------------------------------------
 #N Geom=AllCheck Guess=TCheck SCRF=Check GenChk RB3LYP/6-31G(d) Freq
 --------------------------------------------------------------------

 Structure from the checkpoint file:  "JID_7109.chk"
 -------------------------------
 CID_154169687_JID_7109_neutraal
 -------------------------------
 Charge =  0 Multiplicity = 1

 SCF Done:  E(RB3LYP) =  -870.384576129     A.U. after    1 cycles

  Exact polarizability: 225.876  -0.075 133.116  -2.102   5.183  54.436
 Approx polarizability: 368.247 -12.229 232.686  -9.528  16.995  92.528

                      1                      2                      3
                      A                      A                      A
 Frequencies --     35.1150                61.4307                83.2875
 Red. masses --     12.2276                10.4099                 6.1103
 Frc consts  --      0.0089                 0.0231                 0.0250
 IR Inten    --      0.3464                 0.8095                 0.1872

                      4                      5                      6
                      A                      A                      A
 Frequencies --     91.2769               143.2003               154.3172
 Red. masses --     10.5604                 8.1998                 7.4624
 Frc consts  --      0.0518                 0.0991                 0.1047
 IR Inten    --      1.4098                 3.1874                 1.1672

                      7                      8                      9
                      A                      A                      A
 Frequencies --    187.6684               218.9778               278.4464
 Red. masses --      8.0486                 5.1359                 7.9717
 Frc consts  --      0.1670                 0.1451                 0.3642
 IR Inten    --      1.6746                 0.2385                 0.6428

                     10                     11                     12
                      A                      A                      A
 Frequencies --    295.5317               329.3781               344.4925
 Red. masses --     10.0542                10.2503                 7.1134
 Frc consts  --      0.5174                 0.6552                 0.4974
 IR Inten    --      2.5212                 4.3373                 1.1508

                     13                     14                     15
                      A                      A                      A
 Frequencies --    395.0017               421.9391               473.9194
 Red. masses --      5.7273                 6.1859                 3.4001
 Frc consts  --      0.5265                 0.6489                 0.4499
 IR Inten    --      5.3278                 3.9033                 2.7852

                     16                     17                     18
                      A                      A                      A
 Frequencies --    477.6518               521.8499               555.0777
 Red. masses --      5.1528                 5.6125                 2.2016
 Frc consts  --      0.6927                 0.9005                 0.3997
 IR Inten    --      6.5735                30.7526                30.2641

                     19                     20                     21
                      A                      A                      A
 Frequencies --    596.0746               602.1326               614.5611
 Red. masses --      3.6338                 2.3360                 2.7813
 Frc consts  --      0.7607                 0.4990                 0.6189
 IR Inten    --     34.9937               112.0707                58.8675

                     22                     23                     24
                      A                      A                      A
 Frequencies --    632.9725               639.5723               681.0339
 Red. masses --      1.6632                 3.8332                 2.4404
 Frc consts  --      0.3926                 0.9238                 0.6669
 IR Inten    --      5.5747                54.5205                22.6801

                     25                     26                     27
                      A                      A                      A
 Frequencies --    688.7378               717.9557               758.0695
 Red. masses --      3.8387                 2.2296                 5.8012
 Frc consts  --      1.0729                 0.6771                 1.9642
 IR Inten    --     19.4353                49.5068                22.3870

                     28                     29                     30
                      A                      A                      A
 Frequencies --    770.8998               775.5775               785.3533
 Red. masses --      6.2747                 5.2239                 6.3537
 Frc consts  --      2.1970                 1.8514                 2.3089
 IR Inten    --     15.9719                10.4504                81.6536

                     31                     32                     33
                      A                      A                      A
 Frequencies --    805.2313               872.5740               893.2607
 Red. masses --      6.1077                 4.6848                 1.5209
 Frc consts  --      2.3333                 2.1016                 0.7150
 IR Inten    --     25.9783                 3.2974                14.4839

                     34                     35                     36
                      A                      A                      A
 Frequencies --    934.9439               953.5289               962.4562
 Red. masses --      1.4627                 1.4575                 3.6664
 Frc consts  --      0.7533                 0.7808                 2.0010
 IR Inten    --      0.4517                23.1695                29.7746

                     37                     38                     39
                      A                      A                      A
 Frequencies --   1047.0148              1136.3862              1190.1128
 Red. masses --      7.1928                 2.6873                 2.6993
 Frc consts  --      4.6457                 2.0446                 2.2526
 IR Inten    --      6.4934               160.4796               200.7359

                     40                     41                     42
                      A                      A                      A
 Frequencies --   1207.7844              1236.8024              1275.6825
 Red. masses --      1.8348                 2.8004                 1.4345
 Frc consts  --      1.5770                 2.5239                 1.3754
 IR Inten    --    299.7336                84.5559                27.7191

                     43                     44                     45
                      A                      A                      A
 Frequencies --   1286.6909              1311.4413              1357.0033
 Red. masses --      2.5312                 2.9873                 2.5350
 Frc consts  --      2.4690                 3.0271                 2.7504
 IR Inten    --     19.2293                21.1259                 3.4103

                     46                     47                     48
                      A                      A                      A
 Frequencies --   1383.1364              1394.1045              1399.4730
 Red. masses --      2.2346                 2.3464                 3.9155
 Frc consts  --      2.5187                 2.6869                 4.5182
 IR Inten    --     54.5299               117.5901                10.5648

                     49                     50                     51
                      A                      A                      A
 Frequencies --   1426.3373              1510.0418              1535.6614
 Red. masses --      3.5332                 4.8786                 3.5106
 Frc consts  --      4.2350                 6.5542                 4.8778
 IR Inten    --     85.8047                 6.2318                28.0351

                     52                     53                     54
                      A                      A                      A
 Frequencies --   1609.2239              1646.3389              1669.7263
 Red. masses --      6.7856                 9.9339                 6.8161
 Frc consts  --     10.3532                15.8638                11.1964
 IR Inten    --      0.5135                 3.5535               106.2643

                     55                     56                     57
                      A                      A                      A
 Frequencies --   1803.4814              1834.9123              1836.9983
 Red. masses --      8.8066                10.2355                10.3528
 Frc consts  --     16.8766                20.3043                20.5838
 IR Inten    --    657.6064               408.7005               136.6254

                     58                     59                     60
                      A                      A                      A
 Frequencies --   3190.7780              3220.8985              3239.5059
 Red. masses --      1.0920                 1.0910                 1.0917
 Frc consts  --      6.5503                 6.6688                 6.7504
 IR Inten    --      7.5818                 1.0727                 0.5705

                     61                     62                     63
                      A                      A                      A
 Frequencies --   3580.4958              3690.8870              3691.6691
 Red. masses --      1.0773                 1.0641                 1.0640
 Frc consts  --      8.1370                 8.5405                 8.5431
 IR Inten    --     40.5550                62.7366               102.6676

 - Thermochemistry -
 -------------------
 Temperature   298.150 Kelvin.  Pressure   1.00000 Atm.
 Atom     1 has atomic number  6 and mass  12.00000

 Molecular mass:   234.02767 amu.
 Principal axes and moments of inertia in atomic units:
                           1         2         3
     Eigenvalues --  1918.768606099.425787771.25325
           X            0.99999   0.00425   0.00255
           Y           -0.00424   0.99999  -0.00174
           Z           -0.00256   0.00173   1.00000
 This molecule is an asymmetric top.
 Rotational symmetry number  1.
 Warning -- assumption of classical behavior for rotation
           may cause significant error
 Rotational temperatures (Kelvin)      0.04514     0.01420     0.01115
 Rotational constants (GHZ):           0.94057     0.29589     0.23223
 Zero-point vibrational energy     415499.5 (Joules/Mol)
                                   99.30676 (Kcal/Mol)
 Warning -- explicit consideration of  21 degrees of freedom as
           vibrations may cause significant error
 Vibrational temperatures:     50.52    88.39   119.83   131.33   206.03
          (Kelvin)            222.03   270.01   315.06   400.62   425.20
                              473.90   495.65   568.32   607.08   681.86
                              687.23   750.83   798.63   857.62   866.33
                              884.22   910.71   920.20   979.86   990.94
                             1032.98  1090.69  1109.15  1115.88  1129.95
                             1158.55  1255.44  1285.20  1345.18  1371.92
                             1384.76  1506.42  1635.01  1712.31  1737.73
                             1779.48  1835.42  1851.26  1886.87  1952.43
                             1990.02  2005.81  2013.53  2052.18  2172.61
                             2209.47  2315.31  2368.71  2402.36  2594.81
                             2640.03  2643.03  4590.82  4634.15  4660.93
                             5151.53  5310.36  5311.49

 Zero-point correction=                           0.158255 (Hartree/Particle)
 Thermal correction to Energy=                    0.171762
 Thermal correction to Enthalpy=                  0.172706
 Thermal correction to Gibbs Free Energy=         0.116984
 Sum of electronic and zero-point Energies=           -870.226321
 Sum of electronic and thermal Energies=              -870.212814
 Sum of electronic and thermal Enthalpies=            -870.211870
 Sum of electronic and thermal Free Energies=         -870.267592

                     E (Thermal)             CV                S
                      KCal/Mol        Cal/Mol-Kelvin    Cal/Mol-Kelvin
 Total                  107.782             51.546            117.278
 Electronic               0.000              0.000              0.000
 Translational            0.889              2.981             42.252
 Rotational               0.889              2.981             32.875
 Vibrational            106.005             45.584             42.150
 Vibration     1          0.594              1.982              5.517
 Vibration     2          0.597              1.973              4.411
 Vibration     3          0.600              1.961              3.812
 Vibration     4          0.602              1.955              3.633
 Vibration     5          0.616              1.910              2.761
 Vibration     6          0.620              1.898              2.618
 Vibration     7          0.632              1.857              2.251
 Vibration     8          0.647              1.812              1.968
 Vibration     9          0.679              1.713              1.543
 Vibration    10          0.690              1.682              1.442
 Vibration    11          0.712              1.617              1.263
 Vibration    12          0.723              1.586              1.191
 Vibration    13          0.762              1.481              0.981
 Vibration    14          0.784              1.423              0.885
 Vibration    15          0.831              1.308              0.727
 Vibration    16          0.834              1.300              0.716
 Vibration    17          0.877              1.202              0.606
 Vibration    18          0.911              1.129              0.534
 Vibration    19          0.954              1.040              0.456
 Vibration    20          0.960              1.027              0.446
 Vibration    21          0.974              1.001              0.425

 Optimization completed.
    -- Stationary point found.
 Normal termination of Gaussian 16 at Fri Dec 11 11:55:02 2020.

 ----------------------------------------------------------------------
 # B3LYP/6-311++G(d,p) empiricaldispersion=gd3bj scf=xqc pop=npa geom=c
 heck
 ----------------------------------------------------------------------

 ---------------------------------------
 CID_154169687_JID_7109_Energie_neutraal
 ---------------------------------------
 Structure from the checkpoint file:  "JID_7109.chk"
 Charge =  0 Multiplicity = 1

 SCF Done:  E(RB3LYP) =  -870.645334596     A.U. after   16 cycles
 Normal termination of Gaussian 16 at Fri Dec 11 11:58:32 2020.

 ----------------------------------------------------------------------
 # B3LYP/6-311++G(d,p) empiricaldispersion=gd3bj scf=xqc pop=npa geom=c
 heck
 ----------------------------------------------------------------------

 -------------------------------------
 CID_154169687_JID_7109_Energie_kation
 -------------------------------------
 Structure from the checkpoint file:  "JID_7109.chk"
 Charge =  1 Multiplicity = 2

 SCF Done:  E(UB3LYP) =  -870.318389618     A.U. after   27 cycles
 Normal termination of Gaussian 16 at Fri Dec 11 12:06:02 2020.
 Gaussian 16:  ES64L-G16RevA.03 25-Dec-2016

 ----------------------------------------------------------------------
 # B3LYP/6-311++G(d,p) empiricaldispersion=gd3bj scf=xqc pop=npa geom=c
 heck
 ----------------------------------------------------------------------

 ------------------------------------
 CID_154169687_JID_7109_Energie_anion
 ------------------------------------
 Structure from the checkpoint file:  "JID_7109.chk"
 Charge = -1 Multiplicity = 2

                         Standard orientation:
 ---------------------------------------------------------------------
 Center     Atomic      Atomic             Coordinates (Angstroms)
 Number     Number       Type             X           Y           Z
 ---------------------------------------------------------------------
      1          6           0       -0.175630    1.288482   -0.000771
      2          6           0        1.077839    0.685208   -0.017830
      3          6           0        1.189620   -0.725836   -0.005801
      4          6           0        0.036568   -1.498928   -0.027536
      5          6           0       -1.233916   -0.908810   -0.017763
      6          6           0       -1.333423    0.501500    0.007809
      7          7           0       -2.597018    1.052643    0.024157
      8          6           0       -3.770537    0.305671    0.017429
      9          8           0       -4.877069    0.821169    0.034091
     10          6           0       -3.522275   -1.155281   -0.011114
     11          7           0       -2.361461   -1.719552   -0.026557
     12          6           0        2.487293   -1.461705    0.083277
     13          8           0        2.730455   -2.485015   -0.517147
     14          8           0        3.327611   -0.916543    0.990646
     15          6           0        2.283190    1.544810   -0.212184
     16          8           0        3.269039    1.221355   -0.835387
     17          8           0        2.132806    2.774101    0.339765
     18          1           0       -0.251966    2.370263   -0.017825
     19          1           0        0.104704   -2.580687   -0.036688
     20          1           0       -2.713389    2.060214    0.043948
     21          1           0       -4.413480   -1.780050   -0.018870
     22          1           0        4.148162   -1.442597    0.949975
     23          1           0        2.940228    3.270026    0.107400
 ---------------------------------------------------------------------

 SCF Done:  E(UB3LYP) =  -870.698712039     A.U. after   23 cycles

 The electronic state is 2-A.
 Alpha  occ. eigenvalues --  -19.06464 -19.06046 -19.00407 -18.98990 -18.96573
 Alpha  occ. eigenvalues --  -14.23649 -14.17761 -10.19790 -10.17987 -10.14614
 Alpha  occ. eigenvalues --  -10.10492 -10.08108 -10.07202 -10.06366 -10.06028
 Alpha  occ. eigenvalues --  -10.05797 -10.05748  -1.00450  -0.99674  -0.92148
 Alpha  occ. eigenvalues --   -0.91370  -0.90452  -0.84659  -0.79028  -0.74011
 Alpha  occ. eigenvalues --   -0.64917  -0.64729  -0.56885  -0.55423  -0.53232
 Alpha  occ. eigenvalues --   -0.50232  -0.49296  -0.44240  -0.43071  -0.39797
 Alpha  occ. eigenvalues --   -0.38320  -0.37911  -0.37610  -0.35708  -0.33901
 Alpha  occ. eigenvalues --   -0.33817  -0.32850  -0.32411  -0.31769  -0.30415
 Alpha  occ. eigenvalues --   -0.30253  -0.28977  -0.26639  -0.26191  -0.25973
 Alpha  occ. eigenvalues --   -0.22868  -0.22572  -0.21101  -0.20121  -0.17665
 Alpha  occ. eigenvalues --   -0.16981  -0.16849  -0.13683  -0.11809  -0.11093
 Alpha  occ. eigenvalues --    0.00599
 Alpha virt. eigenvalues --    0.06577   0.07386   0.08523   0.09468   0.09679
 Alpha virt. eigenvalues --    0.10759   0.12261   0.13288   0.13819   0.14297
 Alpha virt. eigenvalues --    0.14483   0.14755   0.15595   0.16134   0.16595

  Beta  occ. eigenvalues --  -19.06464 -19.06011 -19.00404 -18.98803 -18.96448
  Beta  occ. eigenvalues --  -14.23475 -14.17555 -10.19780 -10.17883 -10.14602
  Beta  occ. eigenvalues --  -10.10432 -10.08052 -10.07257 -10.06084 -10.05712
  Beta  occ. eigenvalues --  -10.05639 -10.05618  -1.00436  -0.99516  -0.91908
  Beta  occ. eigenvalues --   -0.91362  -0.90185  -0.84333  -0.78498  -0.73690
  Beta  occ. eigenvalues --   -0.64690  -0.64264  -0.56569  -0.54853  -0.53018
  Beta  occ. eigenvalues --   -0.49949  -0.49148  -0.44002  -0.42859  -0.39599
  Beta  occ. eigenvalues --   -0.38257  -0.37756  -0.37351  -0.35498  -0.33773
  Beta  occ. eigenvalues --   -0.33372  -0.32236  -0.31918  -0.31635  -0.30246
  Beta  occ. eigenvalues --   -0.30148  -0.28771  -0.26318  -0.25941  -0.25548
  Beta  occ. eigenvalues --   -0.22416  -0.21203  -0.20591  -0.19425  -0.17488
  Beta  occ. eigenvalues --   -0.16745  -0.16583  -0.12337  -0.11553  -0.09869
  Beta virt. eigenvalues --    0.06177   0.07377   0.07423   0.08522   0.09495
  Beta virt. eigenvalues --    0.10705   0.11020   0.12261   0.13659   0.13825
  Beta virt. eigenvalues --    0.14357   0.14768   0.15145   0.15596   0.16180

 Mulliken charges and spin densities:
               1          2
     1  C   -0.508562   0.082188
     2  C    0.101888   0.196456
     3  C    0.260601  -0.078280
     4  C   -0.540649   0.068707
     5  C   -0.459130   0.016707
     6  C    0.334623   0.070541
     7  N   -0.278221   0.058053
     8  C   -0.032575   0.023190
     9  O   -0.402630   0.042138
    10  C    0.049108   0.320744
    11  N   -0.027879   0.074786
    12  C    0.106936   0.010120
    13  O   -0.299906   0.001718
    14  O   -0.129303   0.000741
    15  C   -0.007180   0.081403
    16  O   -0.309025   0.063996
    17  O   -0.175981   0.005630
    18  H    0.137270  -0.006183
    19  H    0.188705  -0.004887
    20  H    0.291877  -0.004458
    21  H    0.179079  -0.024472
    22  H    0.261777   0.000046
    23  H    0.259176   0.001117
 Sum of Mulliken charges =  -1.00000   1.00000

 Dipole moment (field-independent basis, Debye):
    X=              5.1049    Y=              3.2804    Z=              1.6668  Tot=              6.2928
 Quadrupole moment (field-independent basis, Debye-Ang):
   XX=           -160.3687   YY=           -109.4241   ZZ=           -104.8513
   XY=              3.2872   XZ=              8.0453   YZ=             -4.0434

 Summary of Natural Population Analysis:

                                       Natural Population
                Natural  -----------------------------------------------
    Atom  No    Charge         Core      Valence    Rydberg      Total
 -----------------------------------------------------------------------
      C    1   -0.08864      0.99953     2.08049    0.00863     3.08864
      C    2   -0.00752      0.99943     1.99791    0.01018     3.00752
      C    3   -0.09910      0.99946     2.08566    0.01398     3.09910
      C    4   -0.02233      0.99951     2.01705    0.00577     3.02233
      C    5    0.04572      0.99948     1.93714    0.01766     2.95428
      C    6    0.09656      0.99948     1.89285    0.01112     2.90344
      N    7   -0.26586      0.99964     2.75758    0.00864     3.76586
      C    8    0.30584      0.99967     1.67280    0.02169     2.69416
      O    9   -0.31871      0.99988     3.31143    0.00740     4.31871
      C   10    0.08863      0.99961     1.89793    0.01383     2.91137
      N   11   -0.19583      0.99969     2.68396    0.01218     3.69583
      C   12    0.40567      0.99966     1.56819    0.02648     2.59433
      O   13   -0.31346      0.99987     3.30724    0.00635     4.31346
      O   14   -0.34063      0.99987     3.33432    0.00644     4.34063
      C   15    0.41226      0.99967     1.56253    0.02555     2.58774
      O   16   -0.29782      0.99987     3.28974    0.00821     4.29782
      O   17   -0.34973      0.99988     3.34385    0.00601     4.34973
      H   18    0.10247      0.00000     0.39674    0.00080     0.39753
      H   19    0.10518      0.00000     0.39312    0.00171     0.39482
      H   20    0.18920      0.00000     0.30757    0.00323     0.31080
      H   21    0.08046      0.00000     0.41821    0.00133     0.41954
      H   22    0.23405      0.00000     0.26289    0.00306     0.26595
      H   23    0.23384      0.00000     0.26300    0.00315     0.26616
 =======================================================================
   * Total *    0.00026     16.99419    42.78218    0.22338    59.99974

 Normal termination of Gaussian 16 at Fri Dec 11 12:11:59 2020.
