 Gaussian 16, Revision A.03,

 -----------------------------------------------------------
 # opt freq B3LYP/6-31G(d) empiricaldispersion=gd3bj scf=xqc
 -----------------------------------------------------------

 -------------------------------
 CID_154353236_JID_7704_neutraal
 -------------------------------
 Symbolic Z-matrix:
 Charge =  0 Multiplicity = 1

 SCF Done:  E(RB3LYP) =  -787.041892472     A.U. after   14 cycles
 SCF Done:  E(RB3LYP) =  -787.048363813     A.U. after   12 cycles
 SCF Done:  E(RB3LYP) =  -787.049909517     A.U. after   12 cycles
 SCF Done:  E(RB3LYP) =  -787.050894445     A.U. after   12 cycles
 SCF Done:  E(RB3LYP) =  -787.051662240     A.U. after   12 cycles
 SCF Done:  E(RB3LYP) =  -787.052415178     A.U. after   11 cycles
 SCF Done:  E(RB3LYP) =  -787.052194875     A.U. after   11 cycles
 SCF Done:  E(RB3LYP) =  -787.052840102     A.U. after   11 cycles
 SCF Done:  E(RB3LYP) =  -787.052913104     A.U. after   10 cycles
 SCF Done:  E(RB3LYP) =  -787.052976395     A.U. after   10 cycles
 SCF Done:  E(RB3LYP) =  -787.053034299     A.U. after    8 cycles
 SCF Done:  E(RB3LYP) =  -787.053036105     A.U. after    8 cycles
 SCF Done:  E(RB3LYP) =  -787.053036974     A.U. after    8 cycles
 SCF Done:  E(RB3LYP) =  -787.053037179     A.U. after    7 cycles
 SCF Done:  E(RB3LYP) =  -787.053037185     A.U. after    6 cycles
 Optimization completed.
    -- Stationary point found.
 Normal termination of Gaussian 16 at Mon Dec 14 13:27:46 2020.

 --------------------------------------------------------------------
 #N Geom=AllCheck Guess=TCheck SCRF=Check GenChk RB3LYP/6-31G(d) Freq
 --------------------------------------------------------------------

 Structure from the checkpoint file:  "JID_7704.chk"
 -------------------------------
 CID_154353236_JID_7704_neutraal
 -------------------------------
 Charge =  0 Multiplicity = 1

 SCF Done:  E(RB3LYP) =  -787.053037185     A.U. after    1 cycles

  Exact polarizability: 173.297   2.146 146.167 -10.128   0.483 137.008
 Approx polarizability: 215.980  -4.397 210.895 -21.932   6.588 207.994

                      1                      2                      3
                      A                      A                      A
 Frequencies --     20.6871                38.5107                49.6627
 Red. masses --      4.4842                 3.7065                 3.1189
 Frc consts  --      0.0011                 0.0032                 0.0045
 IR Inten    --      0.9698                 0.6886                 0.5371

                      4                      5                      6
                      A                      A                      A
 Frequencies --     61.2475                71.6594                84.3220
 Red. masses --      3.9338                 3.0007                 4.2897
 Frc consts  --      0.0087                 0.0091                 0.0180
 IR Inten    --      0.1682                 0.7588                 1.7145

                      7                      8                      9
                      A                      A                      A
 Frequencies --    126.5538               128.9289               146.9412
 Red. masses --      4.1761                 2.7948                 3.3550
 Frc consts  --      0.0394                 0.0274                 0.0427
 IR Inten    --      0.2465                 0.2361                 2.1792

                     10                     11                     12
                      A                      A                      A
 Frequencies --    163.6161               197.2119               206.8787
 Red. masses --      3.0104                 1.9797                 1.9843
 Frc consts  --      0.0475                 0.0454                 0.0500
 IR Inten    --      1.7890                 0.3544                 2.2537

                     13                     14                     15
                      A                      A                      A
 Frequencies --    237.2285               252.4351               258.9829
 Red. masses --      1.1899                 2.3962                 2.7567
 Frc consts  --      0.0395                 0.0900                 0.1089
 IR Inten    --      0.3966                 0.3127                 7.6472

                     16                     17                     18
                      A                      A                      A
 Frequencies --    289.5132               302.7721               325.4193
 Red. masses --      1.6655                 2.7975                 2.5508
 Frc consts  --      0.0822                 0.1511                 0.1592
 IR Inten    --      0.5053                 0.6021                15.5806

                     19                     20                     21
                      A                      A                      A
 Frequencies --    348.5456               398.2350               419.2457
 Red. masses --      2.3872                 2.3648                 1.9927
 Frc consts  --      0.1709                 0.2210                 0.2064
 IR Inten    --      1.2302                 4.7114                 0.6118

                     22                     23                     24
                      A                      A                      A
 Frequencies --    434.2840               439.5185               475.0863
 Red. masses --      2.5902                 1.9951                 3.2462
 Frc consts  --      0.2878                 0.2271                 0.4317
 IR Inten    --      3.5886                 0.5346                 6.6965

                     25                     26                     27
                      A                      A                      A
 Frequencies --    490.4411               539.0325               573.6979
 Red. masses --      2.5870                 3.0071                 2.5867
 Frc consts  --      0.3666                 0.5148                 0.5016
 IR Inten    --      0.4996                 9.6091                60.3092

                     28                     29                     30
                      A                      A                      A
 Frequencies --    587.2303               633.8565               663.3181
 Red. masses --      2.8831                 1.7579                 2.7026
 Frc consts  --      0.5858                 0.4161                 0.7006
 IR Inten    --      4.6544                35.5570                36.8900

                     31                     32                     33
                      A                      A                      A
 Frequencies --    744.6212               747.1889               763.2885
 Red. masses --      1.5170                 2.5777                 3.3215
 Frc consts  --      0.4956                 0.8479                 1.1401
 IR Inten    --     21.0434                50.8597                56.0164

                     34                     35                     36
                      A                      A                      A
 Frequencies --    822.8790               855.1770               858.9659
 Red. masses --      1.5745                 1.6890                 3.0128
 Frc consts  --      0.6282                 0.7278                 1.3097
 IR Inten    --     22.3668                 0.3977                17.6272

                     37                     38                     39
                      A                      A                      A
 Frequencies --    873.0237               877.0586               890.0449
 Red. masses --      2.3759                 1.6621                 2.5682
 Frc consts  --      1.0669                 0.7533                 1.1987
 IR Inten    --      4.4177                17.2034                10.7275

                     40                     41                     42
                      A                      A                      A
 Frequencies --    896.7125               900.3716               927.5338
 Red. masses --      1.7446                 2.4593                 1.7833
 Frc consts  --      0.8265                 1.1746                 0.9039
 IR Inten    --      2.4585                 6.6573                 6.7925

                     43                     44                     45
                      A                      A                      A
 Frequencies --    961.1807              1008.2486              1030.9417
 Red. masses --      2.1208                 2.3665                 1.8472
 Frc consts  --      1.1544                 1.4174                 1.1567
 IR Inten    --     53.9401                14.7829                12.5040

                     46                     47                     48
                      A                      A                      A
 Frequencies --   1031.8899              1049.2442              1069.6774
 Red. masses --      1.2929                 2.3399                 2.2532
 Frc consts  --      0.8111                 1.5178                 1.5190
 IR Inten    --      4.4147                15.5674                33.3107

                     49                     50                     51
                      A                      A                      A
 Frequencies --   1077.6596              1083.7581              1100.6169
 Red. masses --      2.0943                 2.3667                 1.9934
 Frc consts  --      1.4331                 1.6378                 1.4227
 IR Inten    --     14.3717                 4.8361                13.1846

                     52                     53                     54
                      A                      A                      A
 Frequencies --   1103.9398              1124.4925              1146.8226
 Red. masses --      2.4573                 2.0765                 3.2605
 Frc consts  --      1.7644                 1.5470                 2.5266
 IR Inten    --     45.0603                 0.9272                45.5046

                     55                     56                     57
                      A                      A                      A
 Frequencies --   1150.5104              1151.4552              1186.4227
 Red. masses --      2.6725                 2.3145                 2.1880
 Frc consts  --      2.0843                 1.8080                 1.8146
 IR Inten    --     31.7270                 3.7725                 4.2125

                     58                     59                     60
                      A                      A                      A
 Frequencies --   1192.4149              1206.0746              1250.3079
 Red. masses --      2.0244                 2.3147                 1.1193
 Frc consts  --      1.6959                 1.9838                 1.0310
 IR Inten    --      5.7400                 6.3042                 2.2284

                     61                     62                     63
                      A                      A                      A
 Frequencies --   1282.8772              1283.6081              1298.6382
 Red. masses --      1.3220                 1.2319                 1.3109
 Frc consts  --      1.2819                 1.1959                 1.3026
 IR Inten    --     17.6559                 8.5590                15.8202

                     64                     65                     66
                      A                      A                      A
 Frequencies --   1312.6006              1330.6768              1332.6270
 Red. masses --      1.2933                 1.3517                 1.2271
 Frc consts  --      1.3128                 1.4102                 1.2839
 IR Inten    --      3.4971                12.3037                 4.9705

                     67                     68                     69
                      A                      A                      A
 Frequencies --   1346.1845              1375.9017              1378.3374
 Red. masses --      1.2632                 1.3337                 1.5054
 Frc consts  --      1.3487                 1.4876                 1.6851
 IR Inten    --     10.6580                36.9741                68.2645

                     70                     71                     72
                      A                      A                      A
 Frequencies --   1382.4733              1386.0320              1401.3926
 Red. masses --      1.3340                 1.5050                 1.5270
 Frc consts  --      1.5022                 1.7035                 1.7668
 IR Inten    --      9.0449                10.2073                31.4158

                     73                     74                     75
                      A                      A                      A
 Frequencies --   1404.1790              1405.4336              1411.6550
 Red. masses --      1.5363                 1.3238                 1.3478
 Frc consts  --      1.7848                 1.5407                 1.5825
 IR Inten    --      5.5637                22.5247                 9.3922

                     76                     77                     78
                      A                      A                      A
 Frequencies --   1416.4028              1424.2507              1441.8813
 Red. masses --      1.3393                 1.3400                 1.3267
 Frc consts  --      1.5831                 1.6015                 1.6251
 IR Inten    --      8.7111                 2.9794                 5.3159

                     79                     80                     81
                      A                      A                      A
 Frequencies --   1444.7627              1449.5081              1454.9776
 Red. masses --      1.2761                 1.3618                 1.2152
 Frc consts  --      1.5693                 1.6858                 1.5157
 IR Inten    --      1.6433                52.6071                 2.8033

                     82                     83                     84
                      A                      A                      A
 Frequencies --   1497.6353              1504.0079              1511.0478
 Red. masses --      1.0836                 1.0917                 1.0812
 Frc consts  --      1.4320                 1.4550                 1.4545
 IR Inten    --      6.7641                 9.2477                11.1103

                     85                     86                     87
                      A                      A                      A
 Frequencies --   1516.4065              1518.2150              1525.1732
 Red. masses --      1.0866                 1.0678                 1.0636
 Frc consts  --      1.4721                 1.4501                 1.4576
 IR Inten    --      3.0643                 2.0053                 1.7897

                     88                     89                     90
                      A                      A                      A
 Frequencies --   1525.7167              1527.7575              1532.7679
 Red. masses --      1.0944                 1.0776                 1.0953
 Frc consts  --      1.5010                 1.4819                 1.5161
 IR Inten    --      8.2566                 4.8888                 7.8282

                     91                     92                     93
                      A                      A                      A
 Frequencies --   1535.7823              1538.2213              1543.6529
 Red. masses --      1.0516                 1.0695                 1.0867
 Frc consts  --      1.4614                 1.4909                 1.5256
 IR Inten    --      2.8232                14.0858                 5.4788

                     94                     95                     96
                      A                      A                      A
 Frequencies --   1567.8623              1767.6877              2979.3676
 Red. masses --      1.1817                 7.6827                 1.0714
 Frc consts  --      1.7115                14.1441                 5.6035
 IR Inten    --     10.9991               322.1296                 4.8626

                     97                     98                     99
                      A                      A                      A
 Frequencies --   2983.9369              2998.7913              3039.4446
 Red. masses --      1.0710                 1.0712                 1.0610
 Frc consts  --      5.6184                 5.6758                 5.7751
 IR Inten    --     23.4393               125.8891                22.1243

                    100                    101                    102
                      A                      A                      A
 Frequencies --   3042.3911              3045.7835              3047.3253
 Red. masses --      1.0676                 1.0630                 1.0373
 Frc consts  --      5.8221                 5.8102                 5.6751
 IR Inten    --     12.8652                21.3316                21.9624

                    103                    104                    105
                      A                      A                      A
 Frequencies --   3051.7674              3057.9016              3061.3427
 Red. masses --      1.0623                 1.0375                 1.0621
 Frc consts  --      5.8293                 5.7158                 5.8647
 IR Inten    --     38.7330                13.9689                32.0150

                    106                    107                    108
                      A                      A                      A
 Frequencies --   3070.0406              3084.0540              3095.4415
 Red. masses --      1.0979                 1.0881                 1.1007
 Frc consts  --      6.0966                 6.0976                 6.2137
 IR Inten    --     33.6225                 1.8153                20.9192

                    109                    110                    111
                      A                      A                      A
 Frequencies --   3101.5464              3103.2073              3106.7378
 Red. masses --      1.0945                 1.0983                 1.0937
 Frc consts  --      6.2031                 6.2313                 6.2196
 IR Inten    --     32.8735                22.7042                48.4856

                    112                    113                    114
                      A                      A                      A
 Frequencies --   3107.2274              3108.5867              3112.8959
 Red. masses --      1.0986                 1.0979                 1.1022
 Frc consts  --      6.2495                 6.2507                 6.2926
 IR Inten    --      1.6618                52.6460                43.7006

                    115                    116                    117
                      A                      A                      A
 Frequencies --   3115.1569              3116.4899              3123.2375
 Red. masses --      1.0950                 1.1015                 1.1018
 Frc consts  --      6.2608                 6.3035                 6.3323
 IR Inten    --     39.0915                57.3704                30.4666

                    118                    119                    120
                      A                      A                      A
 Frequencies --   3129.5269              3490.7626              3555.1582
 Red. masses --      1.1006                 1.0724                 1.0755
 Frc consts  --      6.3511                 7.6996                 8.0093
 IR Inten    --     23.9259                 8.2154                16.0515

 - Thermochemistry -
 -------------------
 Temperature   298.150 Kelvin.  Pressure   1.00000 Atm.
 Atom     1 has atomic number  6 and mass  12.00000

 Molecular mass:   243.19468 amu.
 Principal axes and moments of inertia in atomic units:
                           1         2         3
     Eigenvalues --  2503.753948068.539668937.13756
           X            0.99957   0.02932   0.00263
           Y           -0.02925   0.99928  -0.02401
           Z           -0.00333   0.02392   0.99971
 This molecule is an asymmetric top.
 Rotational symmetry number  1.
 Warning -- assumption of classical behavior for rotation
           may cause significant error
 Rotational temperatures (Kelvin)      0.03459     0.01073     0.00969
 Rotational constants (GHZ):           0.72081     0.22368     0.20194
 Zero-point vibrational energy    1000987.5 (Joules/Mol)
                                  239.24175 (Kcal/Mol)
 Warning -- explicit consideration of  28 degrees of freedom as
           vibrations may cause significant error
 Vibrational temperatures:     29.76    55.41    71.45    88.12   103.10
          (Kelvin)            121.32   182.08   185.50   211.42   235.41
                              283.74   297.65   341.32   363.20   372.62
                              416.54   435.62   468.21   501.48   572.97
                              603.20   624.84   632.37   683.54   705.64
                              775.55   825.42   844.89   911.98   954.37
                             1071.34  1075.04  1098.20  1183.94  1230.41
                             1235.86  1256.09  1261.89  1280.58  1290.17
                             1295.43  1334.51  1382.92  1450.64  1483.30
                             1484.66  1509.63  1539.03  1550.51  1559.29
                             1583.54  1588.32  1617.89  1650.02  1655.33
                             1656.69  1707.00  1715.62  1735.27  1798.91
                             1845.77  1846.83  1868.45  1888.54  1914.55
                             1917.35  1936.86  1979.62  1983.12  1989.07
                             1994.19  2016.29  2020.30  2022.11  2031.06
                             2037.89  2049.18  2074.55  2078.69  2085.52
                             2093.39  2154.76  2163.93  2174.06  2181.77
                             2184.37  2194.38  2195.17  2198.10  2205.31
                             2209.65  2213.16  2220.97  2255.80  2543.31
                             4286.65  4293.22  4314.59  4373.08  4377.32
                             4382.20  4384.42  4390.81  4399.64  4404.59
                             4417.10  4437.27  4453.65  4462.43  4464.82
                             4469.90  4470.61  4472.56  4478.76  4482.02
                             4483.93  4493.64  4502.69  5022.43  5115.08

 Zero-point correction=                           0.381256 (Hartree/Particle)
 Thermal correction to Energy=                    0.399798
 Thermal correction to Enthalpy=                  0.400742
 Thermal correction to Gibbs Free Energy=         0.333284
 Sum of electronic and zero-point Energies=           -786.671781
 Sum of electronic and thermal Energies=              -786.653240
 Sum of electronic and thermal Enthalpies=            -786.652295
 Sum of electronic and thermal Free Energies=         -786.719753

                     E (Thermal)             CV                S
                      KCal/Mol        Cal/Mol-Kelvin    Cal/Mol-Kelvin
 Total                  250.877             69.782            141.977
 Electronic               0.000              0.000              0.000
 Translational            0.889              2.981             42.367
 Rotational               0.889              2.981             33.556
 Vibrational            249.099             63.820             66.053
 Vibration     1          0.593              1.986              6.567
 Vibration     2          0.594              1.981              5.334
 Vibration     3          0.595              1.978              4.831
 Vibration     4          0.597              1.973              4.417
 Vibration     5          0.598              1.968              4.107
 Vibration     6          0.601              1.960              3.788
 Vibration     7          0.611              1.927              2.998
 Vibration     8          0.611              1.924              2.962
 Vibration     9          0.617              1.906              2.711
 Vibration    10          0.623              1.887              2.508
 Vibration    11          0.637              1.844              2.159
 Vibration    12          0.641              1.830              2.071
 Vibration    13          0.656              1.784              1.824
 Vibration    14          0.664              1.759              1.714
 Vibration    15          0.668              1.748              1.669
 Vibration    16          0.686              1.693              1.477
 Vibration    17          0.694              1.668              1.402
 Vibration    18          0.710              1.625              1.283
 Vibration    19          0.726              1.578              1.173
 Vibration    20          0.765              1.474              0.969
 Vibration    21          0.782              1.428              0.895
 Vibration    22          0.795              1.396              0.845
 Vibration    23          0.800              1.384              0.828
 Vibration    24          0.832              1.305              0.723
 Vibration    25          0.846              1.271              0.682
 Vibration    26          0.894              1.164              0.567
 Vibration    27          0.930              1.088              0.497
 Vibration    28          0.944              1.059              0.472

 Optimization completed.
    -- Stationary point found.
 Normal termination of Gaussian 16 at Mon Dec 14 13:46:37 2020.

 ----------------------------------------------------------------------
 # B3LYP/6-311++G(d,p) empiricaldispersion=gd3bj scf=xqc pop=npa geom=c
 heck
 ----------------------------------------------------------------------

 ---------------------------------------
 CID_154353236_JID_7704_Energie_neutraal
 ---------------------------------------
 Structure from the checkpoint file:  "JID_7704.chk"
 Charge =  0 Multiplicity = 1

 SCF Done:  E(RB3LYP) =  -787.284164170     A.U. after   14 cycles
 Normal termination of Gaussian 16 at Mon Dec 14 13:55:43 2020.

 ----------------------------------------------------------------------
 # B3LYP/6-311++G(d,p) empiricaldispersion=gd3bj scf=xqc pop=npa geom=c
 heck
 ----------------------------------------------------------------------

 -------------------------------------
 CID_154353236_JID_7704_Energie_kation
 -------------------------------------
 Structure from the checkpoint file:  "JID_7704.chk"
 Charge =  1 Multiplicity = 2

 SCF Done:  E(UB3LYP) =  -787.001033747     A.U. after   24 cycles
 Normal termination of Gaussian 16 at Mon Dec 14 14:18:33 2020.
 Gaussian 16:  ES64L-G16RevA.03 25-Dec-2016

 ----------------------------------------------------------------------
 # B3LYP/6-311++G(d,p) empiricaldispersion=gd3bj scf=xqc pop=npa geom=c
 heck
 ----------------------------------------------------------------------

 ------------------------------------
 CID_154353236_JID_7704_Energie_anion
 ------------------------------------
 Structure from the checkpoint file:  "JID_7704.chk"
 Charge = -1 Multiplicity = 2

                         Standard orientation:
 ---------------------------------------------------------------------
 Center     Atomic      Atomic             Coordinates (Angstroms)
 Number     Number       Type             X           Y           Z
 ---------------------------------------------------------------------
      1          6           0       -4.721748   -2.180048   -0.062958
      2          6           0       -3.628461   -1.757732   -1.048533
      3          6           0       -3.112247   -0.326537   -0.838934
      4          6           0       -2.518412   -0.058121    0.564288
      5          6           0       -1.383994   -1.014595    0.968041
      6          6           0       -2.161843    1.419947    0.725765
      7          8           0       -2.833660    2.161839    1.435533
      8          7           0       -1.033219    1.932349    0.112936
      9          7           0       -0.465828    1.431458   -1.125165
     10          6           0        0.920933    1.907292   -1.226909
     11          6           0        1.861381    1.360115   -0.146195
     12          7           0        1.878105   -0.106061   -0.182007
     13          6           0        2.174679   -0.743192    1.107894
     14          6           0        3.663422   -0.709968    1.455479
     15          8           0        4.432755   -1.313425    0.420525
     16          6           0        4.231311   -0.649932   -0.821339
     17          6           0        2.753016   -0.673608   -1.219307
     18          1           0       -4.349086   -2.223362    0.966523
     19          1           0       -5.114557   -3.171980   -0.312026
     20          1           0       -5.559946   -1.472938   -0.079993
     21          1           0       -2.792162   -2.467210   -0.997473
     22          1           0       -4.019292   -1.828981   -2.071831
     23          1           0       -2.375363   -0.093037   -1.615186
     24          1           0       -3.942262    0.376902   -0.988712
     25          1           0       -3.324804   -0.181445    1.292802
     26          1           0       -0.542006   -1.018465    0.268739
     27          1           0       -0.989975   -0.742691    1.953015
     28          1           0       -1.761546   -2.039781    1.035343
     29          1           0       -1.072848    2.947225    0.097194
     30          1           0       -0.378033    0.425040   -0.983628
     31          1           0        1.262853    1.617042   -2.226615
     32          1           0        0.919864    3.003884   -1.203321
     33          1           0        2.857083    1.820376   -0.258549
     34          1           0        1.472909    1.664626    0.830085
     35          1           0        1.855401   -1.791623    1.045305
     36          1           0        1.579360   -0.259518    1.889135
     37          1           0        3.998735    0.328697    1.618048
     38          1           0        3.868380   -1.281783    2.365743
     39          1           0        4.842012   -1.179654   -1.558935
     40          1           0        4.599272    0.388010   -0.755749
     41          1           0        2.450520   -1.715902   -1.380742
     42          1           0        2.601093   -0.136686   -2.161739
 ---------------------------------------------------------------------

 SCF Done:  E(UB3LYP) =  -787.274062612     A.U. after   33 cycles
 SCF Done:  E(UB3LYP) =  -787.274062612     a.u. after    1 cycles

 The electronic state is 2-A.
 Alpha  occ. eigenvalues --  -19.03659 -19.00053 -14.26717 -14.25316 -14.22304
 Alpha  occ. eigenvalues --  -10.18236 -10.12750 -10.12397 -10.10914 -10.10785
 Alpha  occ. eigenvalues --  -10.10504 -10.10490 -10.09659 -10.08371 -10.08335
 Alpha  occ. eigenvalues --  -10.07741 -10.07740  -0.95464  -0.95270  -0.89084
 Alpha  occ. eigenvalues --   -0.83769  -0.74369  -0.72760  -0.68481  -0.67328
 Alpha  occ. eigenvalues --   -0.65008  -0.60331  -0.58695  -0.56836  -0.56086
 Alpha  occ. eigenvalues --   -0.53581  -0.51115  -0.48307  -0.47206  -0.42666
 Alpha  occ. eigenvalues --   -0.41070  -0.39907  -0.39185  -0.38803  -0.38076
 Alpha  occ. eigenvalues --   -0.37643  -0.36846  -0.36416  -0.35890  -0.34638
 Alpha  occ. eigenvalues --   -0.33831  -0.33319  -0.32655  -0.31353  -0.30963
 Alpha  occ. eigenvalues --   -0.30251  -0.29681  -0.28698  -0.27966  -0.27576
 Alpha  occ. eigenvalues --   -0.27390  -0.27324  -0.25697  -0.25200  -0.24199
 Alpha  occ. eigenvalues --   -0.23877  -0.23207  -0.22894  -0.19237  -0.16711
 Alpha  occ. eigenvalues --   -0.12952  -0.12513   0.03887
 Alpha virt. eigenvalues --    0.05417   0.06467   0.06649   0.07497   0.07776
 Alpha virt. eigenvalues --    0.08296   0.08826   0.09159   0.09206   0.09685
 Alpha virt. eigenvalues --    0.10084   0.10364   0.11224   0.11740   0.11963

  Beta  occ. eigenvalues --  -19.03651 -19.00051 -14.26704 -14.25310 -14.22307
  Beta  occ. eigenvalues --  -10.18235 -10.12733 -10.12369 -10.10883 -10.10773
  Beta  occ. eigenvalues --  -10.10477 -10.10467 -10.09656 -10.08357 -10.08329
  Beta  occ. eigenvalues --  -10.07724 -10.07721  -0.95458  -0.95252  -0.89071
  Beta  occ. eigenvalues --   -0.83755  -0.74347  -0.72740  -0.68446  -0.67304
  Beta  occ. eigenvalues --   -0.64970  -0.60301  -0.58652  -0.56785  -0.56051
  Beta  occ. eigenvalues --   -0.53518  -0.51086  -0.48275  -0.47146  -0.42629
  Beta  occ. eigenvalues --   -0.41037  -0.39880  -0.39156  -0.38776  -0.38044
  Beta  occ. eigenvalues --   -0.37617  -0.36813  -0.36379  -0.35858  -0.34613
  Beta  occ. eigenvalues --   -0.33807  -0.33295  -0.32637  -0.31323  -0.30929
  Beta  occ. eigenvalues --   -0.30214  -0.29658  -0.28661  -0.27942  -0.27545
  Beta  occ. eigenvalues --   -0.27357  -0.27302  -0.25668  -0.25177  -0.24181
  Beta  occ. eigenvalues --   -0.23853  -0.23187  -0.22874  -0.19189  -0.16702
  Beta  occ. eigenvalues --   -0.12937  -0.12493
  Beta virt. eigenvalues --    0.05752   0.06390   0.07065   0.07233   0.07918
  Beta virt. eigenvalues --    0.08049   0.08594   0.09118   0.09463   0.09537
  Beta virt. eigenvalues --    0.10081   0.10304   0.10530   0.11403   0.11889

 Mulliken charges and spin densities:
               1          2
     1  C    0.001800  -0.601491
     2  C   -0.406118   0.157603
     3  C    0.303602  -0.397570
     4  C   -0.468485   0.559828
     5  C   -0.030223  -0.734442
     6  C    0.018710  -0.208072
     7  O   -0.301119   0.004071
     8  N   -0.701538   0.088985
     9  N    0.228053   0.144931
    10  C    1.470651  -2.019719
    11  C   -0.656702   0.356107
    12  N   -0.034203   0.076994
    13  C   -0.076539   0.258251
    14  C    0.166915  -0.855683
    15  O   -0.168426   0.060835
    16  C    0.651341  -1.132394
    17  C   -0.094164   0.043340
    18  H   -0.011589   0.149138
    19  H   -0.206148   0.348999
    20  H    0.060724   0.072363
    21  H   -0.056549   0.206016
    22  H   -0.093478   0.246681
    23  H    0.157534   0.050758
    24  H    0.124890   0.045865
    25  H    0.273452  -0.019144
    26  H    0.210577   0.000645
    27  H    0.037006   0.127137
    28  H   -0.024524   0.178817
    29  H    0.234099   0.088713
    30  H   -0.074370   0.205442
    31  H   -0.136829   0.336442
    32  H   -0.388729   0.520009
    33  H   -0.369498   0.496803
    34  H    0.126275   0.061119
    35  H    0.035246   0.139308
    36  H    0.131399  -0.010002
    37  H   -0.100767   0.262963
    38  H   -0.164837   0.360638
    39  H   -0.219317   0.417533
    40  H   -0.134578   0.287204
    41  H   -0.015528   0.203968
    42  H   -0.298015   0.421010
 Sum of Mulliken charges =  -1.00000   1.00000

 Dipole moment (field-independent basis, Debye):
    X=             -2.2179    Y=             -0.8135    Z=              1.5285  Tot=              2.8138
 Quadrupole moment (field-independent basis, Debye-Ang):
   XX=           -203.2747   YY=           -161.7837   ZZ=           -149.9154
   XY=             -2.8889   XZ=              8.8250   YZ=             -1.3599

 Summary of Natural Population Analysis:

                                       Natural Population
                Natural  -----------------------------------------------
    Atom  No    Charge         Core      Valence    Rydberg      Total
 -----------------------------------------------------------------------
      C    1   -0.28716      0.99967     2.28309    0.00440     3.28716
      C    2   -0.19170      0.99964     2.18399    0.00807     3.19170
      C    3   -0.18967      0.99961     2.18096    0.00910     3.18967
      C    4   -0.15209      0.99956     2.14294    0.00959     3.15209
      C    5   -0.29109      0.99964     2.28447    0.00698     3.29109
      C    6    0.34478      0.99964     1.63244    0.02314     2.65522
      O    7   -0.32329      0.99988     3.31785    0.00556     4.32329
      N    8   -0.24154      0.99965     2.73115    0.01074     3.74154
      N    9   -0.24685      0.99975     2.73516    0.01194     3.74685
      C   10   -0.09360      0.99962     2.08107    0.01291     3.09360
      C   11   -0.09975      0.99959     2.08828    0.01188     3.09975
      N   12   -0.29214      0.99974     2.77850    0.01391     3.79214
      C   13   -0.09783      0.99961     2.08696    0.01126     3.09783
      C   14   -0.01808      0.99958     2.00783    0.01067     3.01808
      O   15   -0.30041      0.99989     3.29079    0.00972     4.30041
      C   16   -0.02044      0.99958     2.00820    0.01266     3.02044
      C   17   -0.09958      0.99960     2.08797    0.01201     3.09958
      H   18    0.09617      0.00000     0.40280    0.00103     0.40383
      H   19    0.09955      0.00000     0.39942    0.00102     0.40045
      H   20    0.09542      0.00000     0.40354    0.00104     0.40458
      H   21    0.09618      0.00000     0.40262    0.00120     0.40382
      H   22    0.09724      0.00000     0.40178    0.00098     0.40276
      H   23    0.10409      0.00000     0.39426    0.00165     0.39591
      H   24    0.09823      0.00000     0.40072    0.00106     0.40177
      H   25    0.10919      0.00000     0.38878    0.00203     0.39081
      H   26    0.10095      0.00000     0.39693    0.00213     0.39905
      H   27    0.10288      0.00000     0.39614    0.00098     0.39712
      H   28    0.10194      0.00000     0.39715    0.00091     0.39806
      H   29    0.18919      0.00000     0.30834    0.00247     0.31081
      H   30    0.18079      0.00000     0.31397    0.00523     0.31921
      H   31    0.10096      0.00000     0.39744    0.00159     0.39904
      H   32    0.09596      0.00000     0.40245    0.00159     0.40404
      H   33    0.09234      0.00000     0.40545    0.00222     0.40766
      H   34    0.10110      0.00000     0.39716    0.00175     0.39890
      H   35    0.09612      0.00000     0.40248    0.00141     0.40388
      H   36    0.09989      0.00000     0.39893    0.00119     0.40011
      H   37    0.07873      0.00000     0.41986    0.00141     0.42127
      H   38    0.09163      0.00000     0.40704    0.00132     0.40837
      H   39    0.09373      0.00000     0.40485    0.00142     0.40627
      H   40    0.07990      0.00000     0.41834    0.00176     0.42010
      H   41    0.09651      0.00000     0.40215    0.00134     0.40349
      H   42    0.10175      0.00000     0.39652    0.00173     0.39825
 =======================================================================
   * Total *   -0.00000     16.99424    49.78077    0.22499    67.00000

 Normal termination of Gaussian 16 at Mon Dec 14 14:47:43 2020.
