 Gaussian 16, Revision A.03,

 -----------------------------------------------------------
 # opt freq B3LYP/6-31G(d) empiricaldispersion=gd3bj scf=xqc
 -----------------------------------------------------------

 -------------------------------
 CID_115330850_JID_8897_neutraal
 -------------------------------
 Symbolic Z-matrix:
 Charge =  0 Multiplicity = 1

 SCF Done:  E(RB3LYP) =  -1159.38095895     A.U. after   15 cycles
 SCF Done:  E(RB3LYP) =  -1159.38831096     A.U. after   13 cycles
 SCF Done:  E(RB3LYP) =  -1159.39016549     A.U. after   13 cycles
 SCF Done:  E(RB3LYP) =  -1159.39106642     A.U. after   12 cycles
 SCF Done:  E(RB3LYP) =  -1159.39137565     A.U. after   12 cycles
 SCF Done:  E(RB3LYP) =  -1159.39151976     A.U. after   12 cycles
 SCF Done:  E(RB3LYP) =  -1159.39163959     A.U. after   12 cycles
 SCF Done:  E(RB3LYP) =  -1159.39178986     A.U. after   13 cycles
 SCF Done:  E(RB3LYP) =  -1159.39186376     A.U. after   13 cycles
 SCF Done:  E(RB3LYP) =  -1159.39213747     A.U. after   11 cycles
 SCF Done:  E(RB3LYP) =  -1159.39375297     A.U. after   13 cycles
 SCF Done:  E(RB3LYP) =  -1159.39398218     A.U. after   12 cycles
 SCF Done:  E(RB3LYP) =  -1159.39398541     A.U. after   10 cycles
 SCF Done:  E(RB3LYP) =  -1159.39398583     A.U. after   10 cycles
 SCF Done:  E(RB3LYP) =  -1159.39398583     A.U. after    8 cycles
 Optimization completed.
    -- Stationary point found.
 Normal termination of Gaussian 16 at Fri Dec 11 23:12:59 2020.

 --------------------------------------------------------------------
 #N Geom=AllCheck Guess=TCheck SCRF=Check GenChk RB3LYP/6-31G(d) Freq
 --------------------------------------------------------------------

 Structure from the checkpoint file:  "JID_8897.chk"
 -------------------------------
 CID_115330850_JID_8897_neutraal
 -------------------------------
 Charge =  0 Multiplicity = 1

 SCF Done:  E(RB3LYP) =  -1159.39398583     A.U. after    1 cycles

  Exact polarizability: 217.964  12.471 162.639  -8.334  17.545 118.313
 Approx polarizability: 296.522  21.467 281.884 -11.125  53.010 194.281

                      1                      2                      3
                      A                      A                      A
 Frequencies --     14.2836                30.1117                40.9205
 Red. masses --      5.2417                 6.3556                 5.4942
 Frc consts  --      0.0006                 0.0034                 0.0054
 IR Inten    --      0.9763                 0.3599                 0.1703

                      4                      5                      6
                      A                      A                      A
 Frequencies --     61.0923                97.5723               103.8708
 Red. masses --      5.1462                 1.7738                 1.8630
 Frc consts  --      0.0113                 0.0099                 0.0118
 IR Inten    --      2.9820                 2.3062                 1.0920

                      7                      8                      9
                      A                      A                      A
 Frequencies --    119.1664               119.8647               142.7637
 Red. masses --      3.8076                 3.9828                 3.9519
 Frc consts  --      0.0319                 0.0337                 0.0475
 IR Inten    --      0.2869                 0.8004                 0.9789

                     10                     11                     12
                      A                      A                      A
 Frequencies --    210.6292               230.5222               247.9746
 Red. masses --      3.3300                 5.1047                 1.1970
 Frc consts  --      0.0870                 0.1598                 0.0434
 IR Inten    --      5.4491                 1.9659                 0.3927

                     13                     14                     15
                      A                      A                      A
 Frequencies --    258.8711               276.7880               290.1709
 Red. masses --      3.8523                 4.4942                 3.6578
 Frc consts  --      0.1521                 0.2029                 0.1815
 IR Inten    --      0.7958                 1.3536                10.1530

                     16                     17                     18
                      A                      A                      A
 Frequencies --    302.2136               319.7843               376.6394
 Red. masses --      4.0647                 2.9558                 1.8323
 Frc consts  --      0.2187                 0.1781                 0.1531
 IR Inten    --      1.3911                 1.9781                22.2371

                     19                     20                     21
                      A                      A                      A
 Frequencies --    391.7674               435.3996               475.8088
 Red. masses --      1.2890                 6.7473                 4.3472
 Frc consts  --      0.1166                 0.7536                 0.5799
 IR Inten    --    110.3804                15.4996                 0.1892

                     22                     23                     24
                      A                      A                      A
 Frequencies --    487.5371               517.6396               565.7109
 Red. masses --      3.6081                 4.6931                 1.8699
 Frc consts  --      0.5053                 0.7409                 0.3526
 IR Inten    --      7.8967                 3.3670                56.0158

                     25                     26                     27
                      A                      A                      A
 Frequencies --    579.7594               614.2247               632.5963
 Red. masses --      2.3308                 3.9855                 4.7686
 Frc consts  --      0.4616                 0.8859                 1.1243
 IR Inten    --     25.0216                28.8253                22.6537

                     28                     29                     30
                      A                      A                      A
 Frequencies --    640.8254               652.1227               680.2414
 Red. masses --      3.9210                 5.5628                 3.7071
 Frc consts  --      0.9487                 1.3938                 1.0107
 IR Inten    --      3.4726                 3.6851                40.6239

                     31                     32                     33
                      A                      A                      A
 Frequencies --    700.3734               712.5171               734.5339
 Red. masses --      1.6907                 2.0030                 4.6105
 Frc consts  --      0.4886                 0.5991                 1.4656
 IR Inten    --     25.2587                25.3435                36.0523

                     34                     35                     36
                      A                      A                      A
 Frequencies --    754.9810               759.0273               796.2511
 Red. masses --      4.9815                 3.4780                 3.6825
 Frc consts  --      1.6729                 1.1806                 1.3756
 IR Inten    --      9.7736                34.8714               103.7035

                     37                     38                     39
                      A                      A                      A
 Frequencies --    817.8329               834.5079               851.6402
 Red. masses --      2.0040                 1.4677                 1.4681
 Frc consts  --      0.7897                 0.6022                 0.6274
 IR Inten    --    162.4613                 7.8762                 2.8467

                     40                     41                     42
                      A                      A                      A
 Frequencies --    857.7816               872.8267               906.9398
 Red. masses --      2.5790                 2.7632                 1.3266
 Frc consts  --      1.1181                 1.2403                 0.6429
 IR Inten    --      6.2891                 2.9267                 0.4690

                     43                     44                     45
                      A                      A                      A
 Frequencies --    923.3656               971.5721               998.6203
 Red. masses --      1.9207                 2.1874                 2.1046
 Frc consts  --      0.9648                 1.2165                 1.2366
 IR Inten    --      9.9490                60.5115                 8.9263

                     46                     47                     48
                      A                      A                      A
 Frequencies --   1036.9989              1061.6874              1075.7919
 Red. masses --      2.0662                 1.8731                 1.5893
 Frc consts  --      1.3091                 1.2439                 1.0837
 IR Inten    --      2.1109                 7.2064                 2.2644

                     49                     50                     51
                      A                      A                      A
 Frequencies --   1110.2914              1118.5346              1160.1434
 Red. masses --      1.4752                 1.3253                 1.3036
 Frc consts  --      1.0715                 0.9769                 1.0338
 IR Inten    --      4.2988                 2.3531                 4.1754

                     52                     53                     54
                      A                      A                      A
 Frequencies --   1179.2886              1197.3672              1210.5388
 Red. masses --      3.2068                 2.3937                 2.4036
 Frc consts  --      2.6276                 2.0220                 2.0752
 IR Inten    --      4.9239                46.0308                13.7198

                     55                     56                     57
                      A                      A                      A
 Frequencies --   1238.9766              1252.8208              1274.3259
 Red. masses --      1.6001                 1.5574                 2.6234
 Frc consts  --      1.4472                 1.4402                 2.5100
 IR Inten    --     26.8624                19.9200                 8.2399

                     58                     59                     60
                      A                      A                      A
 Frequencies --   1299.0111              1307.8499              1326.4933
 Red. masses --      1.3065                 3.4841                 1.4513
 Frc consts  --      1.2989                 3.5112                 1.5046
 IR Inten    --      9.9845                13.0956                22.8108

                     61                     62                     63
                      A                      A                      A
 Frequencies --   1363.4025              1370.3385              1402.7606
 Red. masses --      1.5363                 2.6010                 1.5446
 Frc consts  --      1.6825                 2.8777                 1.7907
 IR Inten    --      5.8951               170.7209                 4.5287

                     64                     65                     66
                      A                      A                      A
 Frequencies --   1409.0854              1442.3183              1454.0519
 Red. masses --      1.8674                 1.2877                 1.6526
 Frc consts  --      2.1845                 1.5783                 2.0587
 IR Inten    --      4.7271                 4.6624               114.4330

                     67                     68                     69
                      A                      A                      A
 Frequencies --   1466.5739              1485.1300              1495.3874
 Red. masses --      2.4876                 2.0788                 2.9569
 Frc consts  --      3.1524                 2.7014                 3.8957
 IR Inten    --     76.8999               195.6825                42.2198

                     70                     71                     72
                      A                      A                      A
 Frequencies --   1504.6104              1509.3726              1517.2032
 Red. masses --      2.1721                 1.6198                 1.1180
 Frc consts  --      2.8972                 2.1742                 1.5162
 IR Inten    --     12.2202                 4.6016                 8.6697

                     73                     74                     75
                      A                      A                      A
 Frequencies --   1524.4736              1530.3180              1532.7762
 Red. masses --      1.0543                 1.1044                 1.0890
 Frc consts  --      1.4437                 1.5239                 1.5074
 IR Inten    --      4.7613                23.9955                 6.0368

                     76                     77                     78
                      A                      A                      A
 Frequencies --   1569.8010              1594.4624              1605.7872
 Red. masses --      1.9655                 5.0818                 5.4117
 Frc consts  --      2.8538                 7.6120                 8.2216
 IR Inten    --     47.5463               194.1346                 0.2658

                     79                     80                     81
                      A                      A                      A
 Frequencies --   1670.4805              1712.9489              3046.5391
 Red. masses --      2.1213                 3.3714                 1.0420
 Frc consts  --      3.4876                 5.8285                 5.6982
 IR Inten    --    352.1628               166.2844                57.0152

                     82                     83                     84
                      A                      A                      A
 Frequencies --   3055.0221              3060.4115              3092.2005
 Red. masses --      1.0579                 1.0381                 1.0846
 Frc consts  --      5.8174                 5.7284                 6.1100
 IR Inten    --     16.3617                13.5540                23.0581

                     85                     86                     87
                      A                      A                      A
 Frequencies --   3100.1918              3113.7121              3131.3128
 Red. masses --      1.1027                 1.0985                 1.1014
 Frc consts  --      6.2444                 6.2750                 6.3628
 IR Inten    --     13.6870                16.9421                28.9123

                     88                     89                     90
                      A                      A                      A
 Frequencies --   3138.6397              3182.6016              3208.7186
 Red. masses --      1.1037                 1.1005                 1.0896
 Frc consts  --      6.4058                 6.5675                 6.6100
 IR Inten    --     23.4971                 1.9505                 8.3529

                     91                     92                     93
                      A                      A                      A
 Frequencies --   3226.6748              3270.4282              3281.7454
 Red. masses --      1.0941                 1.0971                 1.0942
 Frc consts  --      6.7114                 6.9136                 6.9434
 IR Inten    --     10.5734                 1.8001                 7.7078

                     94                     95                     96
                      A                      A                      A
 Frequencies --   3442.5245              3586.4946              3608.4650
 Red. masses --      1.0559                 1.0754                 1.0903
 Frc consts  --      7.3730                 8.1499                 8.3648
 IR Inten    --    122.5256                28.3116                37.5167

 - Thermochemistry -
 -------------------
 Temperature   298.150 Kelvin.  Pressure   1.00000 Atm.
 Atom     1 has atomic number  6 and mass  12.00000

 Molecular mass:   264.10448 amu.
 Principal axes and moments of inertia in atomic units:
                           1         2         3
     Eigenvalues --  2407.743408779.349739219.29125
           X            0.99984   0.01554  -0.00871
           Y           -0.01597   0.99852  -0.05205
           Z            0.00788   0.05219   0.99861
 This molecule is an asymmetric top.
 Rotational symmetry number  1.
 Warning -- assumption of classical behavior for rotation
           may cause significant error
 Rotational temperatures (Kelvin)      0.03597     0.00987     0.00939
 Rotational constants (GHZ):           0.74956     0.20557     0.19576
 Zero-point vibrational energy     729523.0 (Joules/Mol)
                                  174.36019 (Kcal/Mol)
 Warning -- explicit consideration of  26 degrees of freedom as
           vibrations may cause significant error
 Vibrational temperatures:     20.55    43.32    58.88    87.90   140.38
          (Kelvin)            149.45   171.45   172.46   205.41   303.05
                              331.67   356.78   372.46   398.24   417.49
                              434.82   460.10   541.90   563.67   626.44
                              684.58   701.46   744.77   813.93   834.14
                              883.73   910.16   922.00   938.26   978.72
                             1007.68  1025.15  1056.83  1086.25  1092.07
                             1145.63  1176.68  1200.67  1225.32  1234.16
                             1255.80  1304.88  1328.52  1397.88  1436.79
                             1492.01  1527.53  1547.82  1597.46  1609.32
                             1669.19  1696.73  1722.74  1741.70  1782.61
                             1802.53  1833.47  1868.99  1881.70  1908.53
                             1961.63  1971.61  2018.26  2027.36  2075.17
                             2092.06  2110.07  2136.77  2151.53  2164.80
                             2171.65  2182.92  2193.38  2201.79  2205.32
                             2258.59  2294.08  2310.37  2403.45  2464.55
                             4383.29  4395.50  4403.25  4448.99  4460.48
                             4479.94  4505.26  4515.80  4579.05  4616.63
                             4642.47  4705.42  4721.70  4953.02  5160.17
                             5191.78

 Zero-point correction=                           0.277861 (Hartree/Particle)
 Thermal correction to Energy=                    0.295512
 Thermal correction to Enthalpy=                  0.296456
 Thermal correction to Gibbs Free Energy=         0.230134
 Sum of electronic and zero-point Energies=          -1159.116125
 Sum of electronic and thermal Energies=             -1159.098474
 Sum of electronic and thermal Enthalpies=           -1159.097530
 Sum of electronic and thermal Free Energies=        -1159.163852

                     E (Thermal)             CV                S
                      KCal/Mol        Cal/Mol-Kelvin    Cal/Mol-Kelvin
 Total                  185.437             66.431            139.586
 Electronic               0.000              0.000              0.000
 Translational            0.889              2.981             42.613
 Rotational               0.889              2.981             33.632
 Vibrational            183.659             60.469             63.341
 Vibration     1          0.593              1.986              7.303
 Vibration     2          0.594              1.984              5.822
 Vibration     3          0.594              1.981              5.214
 Vibration     4          0.597              1.973              4.422
 Vibration     5          0.603              1.951              3.502
 Vibration     6          0.605              1.946              3.380
 Vibration     7          0.609              1.933              3.114
 Vibration     8          0.609              1.933              3.103
 Vibration     9          0.616              1.910              2.766
 Vibration    10          0.643              1.825              2.038
 Vibration    11          0.652              1.794              1.875
 Vibration    12          0.662              1.766              1.745
 Vibration    13          0.668              1.748              1.669
 Vibration    14          0.678              1.716              1.553
 Vibration    15          0.686              1.692              1.473
 Vibration    16          0.694              1.670              1.405
 Vibration    17          0.706              1.636              1.311
 Vibration    18          0.747              1.520              1.053
 Vibration    19          0.759              1.488              0.993
 Vibration    20          0.796              1.393              0.841
 Vibration    21          0.832              1.304              0.721
 Vibration    22          0.843              1.278              0.690
 Vibration    23          0.873              1.211              0.615
 Vibration    24          0.922              1.105              0.513
 Vibration    25          0.936              1.075              0.486
 Vibration    26          0.974              1.002              0.426

                           ! Non-Optimized Parameters !
 Normal termination of Gaussian 16 at Fri Dec 11 23:27:40 2020.

 ----------------------------------------------------------------------
 # B3LYP/6-311++G(d,p) empiricaldispersion=gd3bj scf=xqc pop=npa geom=c
 heck
 ----------------------------------------------------------------------

 ---------------------------------------
 CID_115330850_JID_8897_Energie_neutraal
 ---------------------------------------
 Structure from the checkpoint file:  "JID_8897.chk"
 Charge =  0 Multiplicity = 1

 SCF Done:  E(RB3LYP) =  -1159.63776020     A.U. after   17 cycles
 Normal termination of Gaussian 16 at Fri Dec 11 23:33:54 2020.

 ----------------------------------------------------------------------
 # B3LYP/6-311++G(d,p) empiricaldispersion=gd3bj scf=xqc pop=npa geom=c
 heck
 ----------------------------------------------------------------------

 -------------------------------------
 CID_115330850_JID_8897_Energie_kation
 -------------------------------------
 Structure from the checkpoint file:  "JID_8897.chk"
 Charge =  1 Multiplicity = 2

 SCF Done:  E(UB3LYP) =  -1159.35663078     A.U. after   29 cycles
 Normal termination of Gaussian 16 at Fri Dec 11 23:48:22 2020.
 Gaussian 16:  ES64L-G16RevA.03 25-Dec-2016

 ----------------------------------------------------------------------
 # B3LYP/6-311++G(d,p) empiricaldispersion=gd3bj scf=xqc pop=npa geom=c
 heck
 ----------------------------------------------------------------------

 ------------------------------------
 CID_115330850_JID_8897_Energie_anion
 ------------------------------------
 Structure from the checkpoint file:  "JID_8897.chk"
 Charge = -1 Multiplicity = 2

                         Standard orientation:
 ---------------------------------------------------------------------
 Center     Atomic      Atomic             Coordinates (Angstroms)
 Number     Number       Type             X           Y           Z
 ---------------------------------------------------------------------
      1          6           0       -2.033785   -2.273069    1.494213
      2          6           0       -0.896999   -1.642896    0.690381
      3          6           0       -1.355811   -1.213623   -0.729778
      4          6           0       -2.507188   -0.254954   -0.742389
      5          6           0       -3.800374   -0.492935   -1.129660
      6          6           0       -4.657586    0.642817   -0.997785
      7          6           0       -4.005228    1.739256   -0.508973
      8         16           0       -2.330790    1.398872   -0.194914
      9          7           0       -0.348960   -0.530810    1.457756
     10          6           0        0.791596    0.205619    1.255425
     11          8           0        0.917306    1.272641    1.885643
     12          6           0        1.845136   -0.243921    0.343609
     13          6           0        2.991304    0.549506    0.131515
     14          7           0        3.756149   -0.096076   -0.777914
     15          7           0        3.185531   -1.273336   -1.202303
     16          6           0        2.054235   -1.357810   -0.524893
     17          6           0        5.033515    0.329298   -1.301964
     18          7           0        3.372261    1.715073    0.747586
     19          1           0       -2.848540   -1.556175    1.643582
     20          1           0       -1.673646   -2.607595    2.471724
     21          1           0       -2.445220   -3.135107    0.959688
     22          1           0       -0.111486   -2.394889    0.575627
     23          1           0       -0.494997   -0.787310   -1.256263
     24          1           0       -1.653239   -2.112682   -1.283361
     25          1           0       -4.127239   -1.456686   -1.506712
     26          1           0       -5.710281    0.639119   -1.258303
     27          1           0       -4.404399    2.723988   -0.307543
     28          1           0       -0.999073   -0.031183    2.053246
     29          1           0        1.428797   -2.222550   -0.687339
     30          1           0        4.919578    1.105123   -2.069661
     31          1           0        5.653753    0.715657   -0.486950
     32          1           0        5.512067   -0.542936   -1.747200
     33          1           0        2.602496    2.056697    1.326442
     34          1           0        3.797886    2.415757    0.152433
 ---------------------------------------------------------------------

 SCF Done:  E(UB3LYP) =  -1159.62851358     A.U. after   33 cycles
 SCF Done:  E(UB3LYP) =  -1159.62851358     a.u. after    1 cycles

 The electronic state is 2-A.
 Alpha  occ. eigenvalues --  -88.78170 -18.99265 -14.29490 -14.24261 -14.23739
 Alpha  occ. eigenvalues --  -14.23112 -10.18684 -10.16010 -10.13466 -10.11859
 Alpha  occ. eigenvalues --  -10.11205 -10.10702 -10.10633 -10.09440 -10.08838
 Alpha  occ. eigenvalues --  -10.08269 -10.08261 -10.08200  -7.86786  -5.83068
 Alpha  occ. eigenvalues --   -5.82695  -5.82398  -0.96184  -0.94238  -0.83890
 Alpha  occ. eigenvalues --   -0.82924  -0.79039  -0.75486  -0.70617  -0.68326
 Alpha  occ. eigenvalues --   -0.65309  -0.64363  -0.62237  -0.59656  -0.55303
 Alpha  occ. eigenvalues --   -0.53346  -0.50859  -0.47437  -0.47287  -0.45226
 Alpha  occ. eigenvalues --   -0.44379  -0.42652  -0.40993  -0.39664  -0.39058
 Alpha  occ. eigenvalues --   -0.38915  -0.38135  -0.35224  -0.34613  -0.33263
 Alpha  occ. eigenvalues --   -0.33229  -0.32162  -0.31726  -0.31159  -0.30704
 Alpha  occ. eigenvalues --   -0.30185  -0.29911  -0.29155  -0.27788  -0.26890
 Alpha  occ. eigenvalues --   -0.26383  -0.24953  -0.24007  -0.21060  -0.17621
 Alpha  occ. eigenvalues --   -0.16936  -0.16480  -0.16145  -0.14367  -0.12756
 Alpha  occ. eigenvalues --    0.03837
 Alpha virt. eigenvalues --    0.05055   0.06088   0.06394   0.07363   0.07685
 Alpha virt. eigenvalues --    0.08060   0.08445   0.08895   0.09196   0.09656
 Alpha virt. eigenvalues --    0.10279   0.10897   0.11136   0.11284   0.11830

  Beta  occ. eigenvalues --  -88.78161 -18.99262 -14.29489 -14.24261 -14.23733
  Beta  occ. eigenvalues --  -14.23073 -10.18683 -10.16007 -10.13458 -10.11803
  Beta  occ. eigenvalues --  -10.11153 -10.10696 -10.10576 -10.09431 -10.08833
  Beta  occ. eigenvalues --  -10.08248 -10.08236 -10.08200  -7.86777  -5.83063
  Beta  occ. eigenvalues --   -5.82691  -5.82372  -0.96175  -0.94232  -0.83873
  Beta  occ. eigenvalues --   -0.82885  -0.78971  -0.75465  -0.70575  -0.68300
  Beta  occ. eigenvalues --   -0.65244  -0.64302  -0.62181  -0.59598  -0.55280
  Beta  occ. eigenvalues --   -0.53308  -0.50825  -0.47392  -0.47217  -0.45152
  Beta  occ. eigenvalues --   -0.44308  -0.42609  -0.40957  -0.39631  -0.39029
  Beta  occ. eigenvalues --   -0.38883  -0.38096  -0.35196  -0.34576  -0.33230
  Beta  occ. eigenvalues --   -0.33192  -0.32135  -0.31687  -0.31121  -0.30665
  Beta  occ. eigenvalues --   -0.30140  -0.29870  -0.29050  -0.27746  -0.26839
  Beta  occ. eigenvalues --   -0.26330  -0.24897  -0.23978  -0.21038  -0.17577
  Beta  occ. eigenvalues --   -0.16899  -0.16464  -0.16043  -0.14117  -0.12736
  Beta virt. eigenvalues --    0.05867   0.06354   0.06622   0.06784   0.07522
  Beta virt. eigenvalues --    0.07862   0.08612   0.08709   0.09224   0.09848
  Beta virt. eigenvalues --    0.09978   0.10479   0.11077   0.11317   0.11471

 Mulliken charges and spin densities:
               1          2
     1  C    0.475899  -1.286738
     2  C   -0.428968   0.709647
     3  C    0.736905  -1.258080
     4  C   -0.467830   0.523876
     5  C    0.386869   0.164907
     6  C   -0.206058  -0.678651
     7  C    0.003496   0.212134
     8  S   -0.575926   0.218774
     9  N   -0.206382   0.000996
    10  C   -0.712889  -0.454410
    11  O   -0.353184  -0.001476
    12  C    1.640321  -1.049313
    13  C   -1.190059   1.181980
    14  N    0.068814   0.116199
    15  N   -0.346282   0.131709
    16  C    0.271045  -0.190866
    17  C    1.089262  -1.438046
    18  N   -0.359430  -0.001729
    19  H    0.203515  -0.036664
    20  H    0.034608   0.123982
    21  H   -0.241552   0.405377
    22  H    0.104269   0.113274
    23  H    0.264531  -0.069367
    24  H   -0.223332   0.424381
    25  H   -0.434511   0.621240
    26  H   -0.003251   0.132849
    27  H    0.141152   0.092715
    28  H    0.297321  -0.008556
    29  H   -0.050135   0.259464
    30  H   -0.537923   0.731974
    31  H   -0.328418   0.503405
    32  H   -0.081899   0.259688
    33  H    0.298713   0.013459
    34  H   -0.268691   0.531864
 Sum of Mulliken charges =  -1.00000   1.00000

 Dipole moment (field-independent basis, Debye):
    X=             -5.4831    Y=             -0.2943    Z=              2.8568  Tot=              6.1897
 Quadrupole moment (field-independent basis, Debye-Ang):
   XX=           -209.1075   YY=           -160.7044   ZZ=           -152.4075
   XY=            -21.9614   XZ=              2.9245   YZ=             -2.6037

 Summary of Natural Population Analysis:

                                       Natural Population
                Natural  -----------------------------------------------
    Atom  No    Charge         Core      Valence    Rydberg      Total
 -----------------------------------------------------------------------
      C    1   -0.28895      0.99965     2.28306    0.00624     3.28895
      C    2   -0.00834      0.99960     1.99671    0.01203     3.00834
      C    3   -0.21292      0.99955     2.20245    0.01093     3.21292
      C    4   -0.09166      0.99950     2.07812    0.01404     3.09166
      C    5   -0.13036      0.99945     2.12019    0.01071     3.13036
      C    6   -0.13092      0.99953     2.12020    0.01119     3.13092
      C    7   -0.19166      0.99954     2.18159    0.01053     3.19166
      S    8    0.21195      4.99940     2.76848    0.02017     7.78805
      N    9   -0.31999      0.99967     2.81056    0.00976     3.81999
      C   10    0.33700      0.99961     1.64368    0.01972     2.66300
      O   11   -0.34893      0.99988     3.34370    0.00535     4.34893
      C   12   -0.15509      0.99943     2.14683    0.00883     3.15509
      C   13    0.21659      0.99951     1.77032    0.01357     2.78341
      N   14   -0.12369      0.99961     2.61094    0.01315     3.62369
      N   15   -0.15709      0.99973     2.64595    0.01141     3.65709
      C   16    0.00672      0.99961     1.98071    0.01295     2.99328
      C   17   -0.17839      0.99964     2.17041    0.00834     3.17839
      N   18   -0.40004      0.99970     2.89145    0.00890     3.90004
      H   19    0.10235      0.00000     0.39661    0.00104     0.39765
      H   20    0.10231      0.00000     0.39688    0.00081     0.39769
      H   21    0.10639      0.00000     0.39247    0.00114     0.39361
      H   22    0.09789      0.00000     0.39994    0.00217     0.40211
      H   23    0.11351      0.00000     0.38496    0.00153     0.38649
      H   24    0.11094      0.00000     0.38741    0.00165     0.38906
      H   25    0.10775      0.00000     0.39082    0.00142     0.39225
      H   26    0.10444      0.00000     0.39477    0.00079     0.39556
      H   27    0.10693      0.00000     0.39232    0.00076     0.39307
      H   28    0.19454      0.00000     0.30272    0.00274     0.30546
      H   29    0.09833      0.00000     0.40026    0.00141     0.40167
      H   30    0.10106      0.00000     0.39618    0.00276     0.39894
      H   31    0.10365      0.00000     0.39462    0.00174     0.39635
      H   32    0.10962      0.00000     0.38878    0.00160     0.39038
      H   33    0.21309      0.00000     0.28499    0.00192     0.28691
      H   34    0.19298      0.00000     0.30326    0.00376     0.30702
 =======================================================================
   * Total *   -0.00000     21.99260    47.77233    0.23507    70.00000

 Normal termination of Gaussian 16 at Sat Dec 12 00:05:15 2020.
