 Gaussian 16, Revision A.03,

 -----------------------------------------------------------
 # opt freq B3LYP/6-31G(d) empiricaldispersion=gd3bj scf=xqc
 -----------------------------------------------------------

 ------------------------------
 CID_117695767_JID_401_neutraal
 ------------------------------
 Symbolic Z-matrix:
 Charge =  0 Multiplicity = 1

 SCF Done:  E(RB3LYP) =  -426.599021500     A.U. after   13 cycles
 SCF Done:  E(RB3LYP) =  -426.601784604     A.U. after   11 cycles
 SCF Done:  E(RB3LYP) =  -426.602869333     A.U. after   11 cycles
 SCF Done:  E(RB3LYP) =  -426.604475035     A.U. after   12 cycles
 SCF Done:  E(RB3LYP) =  -426.605907154     A.U. after   12 cycles
 SCF Done:  E(RB3LYP) =  -426.606890409     A.U. after   12 cycles
 SCF Done:  E(RB3LYP) =  -426.607232882     A.U. after   12 cycles
 SCF Done:  E(RB3LYP) =  -426.607404710     A.U. after   11 cycles
 SCF Done:  E(RB3LYP) =  -426.607452208     A.U. after   11 cycles
 SCF Done:  E(RB3LYP) =  -426.607473865     A.U. after   10 cycles
 SCF Done:  E(RB3LYP) =  -426.607484157     A.U. after    9 cycles
 SCF Done:  E(RB3LYP) =  -426.607494960     A.U. after   10 cycles
 SCF Done:  E(RB3LYP) =  -426.607496535     A.U. after    7 cycles
 SCF Done:  E(RB3LYP) =  -426.607496789     A.U. after    7 cycles
 Optimization completed.
    -- Stationary point found.

 1\1\GINC-NODE316\FOpt\RB3LYP\6-31G(d)\C9H14O1\VSC10255\08-Dec-2020\0\\
 # opt freq B3LYP/6-31G(d) empiricaldispersion=gd3bj scf=xqc\\CID_11769
 5767_JID_401_neutraal\\0,1\C,1.1354734941,-0.0035954132,0.5845285809\C
 ,0.4330691721,1.3561449671,0.6578960737\C,0.8922338998,2.2752298087,-0
 .4979327153\O,0.5561700912,1.7842546998,-1.7858468447\C,-1.079882575,1
 .2748567705,0.7083143225\C,-1.7979708575,0.2254975574,0.2720522023\C,-
 3.3073540258,0.2696044278,0.2493727986\C,-3.8735068371,1.1312987967,1.
 3872641154\C,-3.0956204878,2.4157143794,1.5366804635\C,-1.7925171699,2

 Normal termination of Gaussian 16 at Tue Dec  8 10:37:03 2020.

 --------------------------------------------------------------------
 #N Geom=AllCheck Guess=TCheck SCRF=Check GenChk RB3LYP/6-31G(d) Freq
 --------------------------------------------------------------------

 Structure from the checkpoint file:  "JID_401.chk"
 ------------------------------
 CID_117695767_JID_401_neutraal
 ------------------------------
 Charge =  0 Multiplicity = 1

 SCF Done:  E(RB3LYP) =  -426.607496789     A.U. after    1 cycles

  Exact polarizability: 116.877   0.468  95.438  -6.692   6.915  70.678
 Approx polarizability: 155.749  -0.142 148.608  -9.061  15.838 106.064

                      1                      2                      3
                      A                      A                      A
 Frequencies --     41.5779                75.5760               119.8773
 Red. masses --      3.6173                 4.1096                 2.2956
 Frc consts  --      0.0037                 0.0138                 0.0194
 IR Inten    --      0.6567                 0.8873                 4.6549

                      4                      5                      6
                      A                      A                      A
 Frequencies --    198.1088               219.1469               257.4069
 Red. masses --      2.2759                 3.0898                 1.2080
 Frc consts  --      0.0526                 0.0874                 0.0472
 IR Inten    --     12.4349                 4.2276                28.4992

                      7                      8                      9
                      A                      A                      A
 Frequencies --    274.2236               307.0283               326.3817
 Red. masses --      1.9235                 1.8579                 2.7480
 Frc consts  --      0.0852                 0.1032                 0.1725
 IR Inten    --      4.0211                10.5157                 1.8452

                     10                     11                     12
                      A                      A                      A
 Frequencies --    330.3028               437.4256               467.6409
 Red. masses --      1.3835                 2.8538                 2.8770
 Frc consts  --      0.0889                 0.3217                 0.3707
 IR Inten    --     96.8454                 6.4409                 2.6618

                     13                     14                     15
                      A                      A                      A
 Frequencies --    547.2271               578.4642               654.3559
 Red. masses --      2.8592                 3.3348                 3.1327
 Frc consts  --      0.5045                 0.6575                 0.7903
 IR Inten    --      3.6343                 2.6951                 1.6586

                     16                     17                     18
                      A                      A                      A
 Frequencies --    666.8495               774.6441               796.0645
 Red. masses --      1.7638                 1.8719                 1.8695
 Frc consts  --      0.4621                 0.6618                 0.6980
 IR Inten    --     23.4745                 4.8840                 3.0446

                     19                     20                     21
                      A                      A                      A
 Frequencies --    833.4322               863.2426               892.6836
 Red. masses --      1.3872                 3.0681                 2.3537
 Frc consts  --      0.5677                 1.3470                 1.1051
 IR Inten    --      8.5682                 3.4062                 5.5563

                     22                     23                     24
                      A                      A                      A
 Frequencies --    953.6440               966.3688               976.5655
 Red. masses --      1.6000                 2.2380                 1.3719
 Frc consts  --      0.8573                 1.2314                 0.7708
 IR Inten    --      5.2761                 7.2813                 2.6598

                     25                     26                     27
                      A                      A                      A
 Frequencies --    999.0032              1009.0986              1054.6728
 Red. masses --      2.3813                 2.0342                 2.0555
 Frc consts  --      1.4002                 1.2204                 1.3471
 IR Inten    --      7.0977                31.5166                 1.2906

                     28                     29                     30
                      A                      A                      A
 Frequencies --   1067.5423              1090.8831              1113.2715
 Red. masses --      1.8607                 1.8234                 2.2013
 Frc consts  --      1.2494                 1.2784                 1.6075
 IR Inten    --     11.0571                12.9430                33.9665

                     31                     32                     33
                      A                      A                      A
 Frequencies --   1149.1573              1167.6176              1200.9115
 Red. masses --      1.9803                 1.8324                 1.1503
 Frc consts  --      1.5408                 1.4719                 0.9774
 IR Inten    --     10.5936                20.3937                 4.9282

                     34                     35                     36
                      A                      A                      A
 Frequencies --   1206.5914              1254.2866              1276.7355
 Red. masses --      1.1016                 1.2518                 1.2925
 Frc consts  --      0.9449                 1.1603                 1.2414
 IR Inten    --      1.4291                12.4719                 3.7233

                     37                     38                     39
                      A                      A                      A
 Frequencies --   1316.5539              1339.2719              1377.9967
 Red. masses --      1.5551                 1.3098                 1.4104
 Frc consts  --      1.5881                 1.3842                 1.5779
 IR Inten    --      0.1715                 8.4899                 3.2422

                     40                     41                     42
                      A                      A                      A
 Frequencies --   1383.7063              1399.3433              1421.1293
 Red. masses --      1.5713                 1.3765                 1.4668
 Frc consts  --      1.7726                 1.5881                 1.7453
 IR Inten    --      2.3004                 2.6979                 4.6365

                     43                     44                     45
                      A                      A                      A
 Frequencies --   1431.4157              1443.3858              1456.4554
 Red. masses --      1.2204                 1.3020                 1.7357
 Frc consts  --      1.4732                 1.5982                 2.1693
 IR Inten    --     30.8053                15.3559                 3.1233

                     46                     47                     48
                      A                      A                      A
 Frequencies --   1499.5589              1510.8699              1522.3296
 Red. masses --      1.0821                 1.1052                 1.0537
 Frc consts  --      1.4337                 1.4865                 1.4387
 IR Inten    --      2.0827                 1.4192                 7.5343

                     49                     50                     51
                      A                      A                      A
 Frequencies --   1531.4468              1548.3753              1672.4024
 Red. masses --      1.0764                 1.0518                 7.0006
 Frc consts  --      1.4875                 1.4857                11.5363
 IR Inten    --      1.0234                 3.3704                 0.4202

                     52                     53                     54
                      A                      A                      A
 Frequencies --   1738.3934              2982.0327              2986.2033
 Red. masses --      6.2667                 1.0744                 1.0725
 Frc consts  --     11.1580                 5.6289                 5.6346
 IR Inten    --      3.2497                21.4164                65.6655

                     55                     56                     57
                      A                      A                      A
 Frequencies --   2993.8702              3007.6387              3047.5818
 Red. masses --      1.0697                 1.0826                 1.0371
 Frc consts  --      5.6492                 5.7701                 5.6752
 IR Inten    --     57.3505                54.2281                24.0597

                     58                     59                     60
                      A                      A                      A
 Frequencies --   3078.1925              3079.5615              3105.7434
 Red. masses --      1.0911                 1.0878                 1.1006
 Frc consts  --      6.0915                 6.0780                 6.2550
 IR Inten    --     32.3079                43.4620                35.0133

                     61                     62                     63
                      A                      A                      A
 Frequencies --   3107.4958              3130.1090              3161.1415
 Red. masses --      1.0924                 1.1008                 1.0850
 Frc consts  --      6.2154                 6.3546                 6.3881
 IR Inten    --     36.9819                23.3736                12.0169

                     64                     65                     66
                      A                      A                      A
 Frequencies --   3187.8762              3196.5345              3754.9156
 Red. masses --      1.0962                 1.0897                 1.0658
 Frc consts  --      6.5637                 6.5603                 8.8540
 IR Inten    --     37.8885                13.2150                 9.2644

 - Thermochemistry -
 -------------------
 Temperature   298.150 Kelvin.  Pressure   1.00000 Atm.
 Atom     1 has atomic number  6 and mass  12.00000

 Molecular mass:   138.10447 amu.
 Principal axes and moments of inertia in atomic units:
                           1         2         3
     Eigenvalues --   759.033562191.828652327.92275
           X            0.99981   0.00351  -0.01936
           Y           -0.00297   0.99961   0.02792
           Z            0.01945  -0.02786   0.99942
 This molecule is an asymmetric top.
 Rotational symmetry number  1.
 Warning -- assumption of classical behavior for rotation
           may cause significant error
 Rotational temperatures (Kelvin)      0.11411     0.03952     0.03721
 Rotational constants (GHZ):           2.37768     0.82340     0.77526
 Zero-point vibrational energy     559610.3 (Joules/Mol)
                                  133.75008 (Kcal/Mol)
 Warning -- explicit consideration of  14 degrees of freedom as
           vibrations may cause significant error
 Vibrational temperatures:     59.82   108.74   172.48   285.03   315.30
          (Kelvin)            370.35   394.55   441.75   469.59   475.23
                              629.36   672.83   787.34   832.28   941.47
                              959.45  1114.54  1145.36  1199.12  1242.01
                             1284.37  1372.08  1390.39  1405.06  1437.34
                             1451.87  1517.44  1535.96  1569.54  1601.75
                             1653.38  1679.94  1727.84  1736.02  1804.64
                             1836.94  1894.23  1926.91  1982.63  1990.84
                             2013.34  2044.69  2059.49  2076.71  2095.51
                             2157.53  2173.80  2190.29  2203.41  2227.77
                             2406.21  2501.16  4290.48  4296.48  4307.51
                             4327.32  4384.79  4428.83  4430.80  4468.47
                             4470.99  4503.53  4548.18  4586.64  4599.10
                             5402.49

 Zero-point correction=                           0.213144 (Hartree/Particle)
 Thermal correction to Energy=                    0.223517
 Thermal correction to Enthalpy=                  0.224461
 Thermal correction to Gibbs Free Energy=         0.177188
 Sum of electronic and zero-point Energies=           -426.394352
 Sum of electronic and thermal Energies=              -426.383980
 Sum of electronic and thermal Enthalpies=            -426.383036
 Sum of electronic and thermal Free Energies=         -426.430309

                     E (Thermal)             CV                S
                      KCal/Mol        Cal/Mol-Kelvin    Cal/Mol-Kelvin
 Total                  140.259             39.403             99.493
 Electronic               0.000              0.000              0.000
 Translational            0.889              2.981             40.680
 Rotational               0.889              2.981             29.739
 Vibrational            138.481             33.441             29.074
 Vibration     1          0.594              1.981              5.182
 Vibration     2          0.599              1.965              4.003
 Vibration     3          0.609              1.933              3.102
 Vibration     4          0.637              1.843              2.151
 Vibration     5          0.647              1.812              1.966
 Vibration     6          0.667              1.750              1.679
 Vibration     7          0.677              1.721              1.569
 Vibration     8          0.697              1.660              1.378
 Vibration     9          0.710              1.623              1.278
 Vibration    10          0.713              1.615              1.259
 Vibration    11          0.798              1.389              0.835
 Vibration    12          0.825              1.322              0.744
 Vibration    13          0.902              1.146              0.550
 Vibration    14          0.935              1.078              0.488

 Optimization completed.
    -- Stationary point found.

 1\1\GINC-NODE316\Freq\RB3LYP\6-31G(d)\C9H14O1\VSC10255\08-Dec-2020\0\\
 #N Geom=AllCheck Guess=TCheck SCRF=Check GenChk RB3LYP/6-31G(d) Freq\\
 CID_117695767_JID_401_neutraal\\0,1\C,1.1354734941,-0.0035954132,0.584
 5285809\C,0.4330691721,1.3561449671,0.6578960737\C,0.8922338998,2.2752
 298087,-0.4979327153\O,0.5561700912,1.7842546998,-1.7858468447\C,-1.07
 9882575,1.2748567705,0.7083143225\C,-1.7979708575,0.2254975574,0.27205
 22023\C,-3.3073540258,0.2696044278,0.2493727986\C,-3.8735068371,1.1312
 987967,1.3872641154\C,-3.0956204878,2.4157143794,1.5366804635\C,-1.792

 Normal termination of Gaussian 16 at Tue Dec  8 10:41:42 2020.

 ----------------------------------------------------------------------
 # B3LYP/6-311++G(d,p) empiricaldispersion=gd3bj scf=xqc pop=npa geom=c
 heck
 ----------------------------------------------------------------------

 --------------------------------------
 CID_117695767_JID_401_Energie_neutraal
 --------------------------------------
 Structure from the checkpoint file:  "JID_401.chk"
 Charge =  0 Multiplicity = 1

 SCF Done:  E(RB3LYP) =  -426.736711633     A.U. after   15 cycles
 Normal termination of Gaussian 16 at Tue Dec  8 10:45:33 2020.

 ----------------------------------------------------------------------
 # B3LYP/6-311++G(d,p) empiricaldispersion=gd3bj scf=xqc pop=npa geom=c
 heck
 ----------------------------------------------------------------------

 ------------------------------------
 CID_117695767_JID_401_Energie_kation
 ------------------------------------
 Structure from the checkpoint file:  "JID_401.chk"
 Charge =  1 Multiplicity = 2

 SCF Done:  E(UB3LYP) =  -426.451348060     A.U. after   20 cycles
 Normal termination of Gaussian 16 at Tue Dec  8 10:50:24 2020.
 Gaussian 16:  ES64L-G16RevA.03 25-Dec-2016

 -----------------------------------
 CID_117695767_JID_401_Energie_anion
 -----------------------------------
 Structure from the checkpoint file:  "JID_401.chk"
 Charge = -1 Multiplicity = 2

                         Standard orientation:
 ---------------------------------------------------------------------
 Center     Atomic      Atomic             Coordinates (Angstroms)
 Number     Number       Type             X           Y           Z
 ---------------------------------------------------------------------
      1          6           0        2.035020    1.170489   -1.119463
      2          6           0        1.362398   -0.159814   -0.765173
      3          6           0        2.194675   -0.934763    0.282806
      4          8           0        2.309903   -0.265819    1.528581
      5          6           0       -0.078941   -0.029387   -0.313840
      6          6           0       -0.616930    1.094493    0.190729
      7          6           0       -2.028951    1.110230    0.726124
      8          6           0       -2.938670    0.127613   -0.025355
      9          6           0       -2.245017   -1.193462   -0.250656
     10          6           0       -0.911886   -1.241940   -0.390225
     11          1           0        2.120495    1.828102   -0.246338
     12          1           0        1.461098    1.713229   -1.876338
     13          1           0        3.044687    0.999437   -1.510582
     14          1           0        1.371879   -0.787331   -1.670098
     15          1           0        1.713793   -1.890793    0.510266
     16          1           0        3.187305   -1.156850   -0.143486
     17          1           0        2.823031    0.542719    1.381737
     18          1           0       -0.025531    1.999651    0.291645
     19          1           0       -2.450229    2.120973    0.681819
     20          1           0       -1.999564    0.835143    1.794011
     21          1           0       -3.878214   -0.011070    0.521467
     22          1           0       -3.213525    0.551785   -1.006224
     23          1           0       -2.847771   -2.091805   -0.361564
     24          1           0       -0.416872   -2.187385   -0.604646
 ---------------------------------------------------------------------

 SCF Done:  E(UB3LYP) =  -426.721220853     A.U. after   33 cycles
 SCF Done:  E(UB3LYP) =  -426.721220853     a.u. after    1 cycles

 The electronic state is 2-A.
 Alpha  occ. eigenvalues --  -19.01093 -10.10410 -10.06868 -10.06712 -10.06528
 Alpha  occ. eigenvalues --  -10.06355 -10.06108 -10.06066 -10.05295 -10.04898
 Alpha  occ. eigenvalues --   -0.91287  -0.73914  -0.68608  -0.63556  -0.61841
 Alpha  occ. eigenvalues --   -0.57428  -0.51791  -0.49718  -0.45611  -0.40692
 Alpha  occ. eigenvalues --   -0.39102  -0.36608  -0.35539  -0.33428  -0.32989
 Alpha  occ. eigenvalues --   -0.32085  -0.30852  -0.29213  -0.26720  -0.26642
 Alpha  occ. eigenvalues --   -0.25610  -0.24477  -0.22471  -0.22163  -0.20546
 Alpha  occ. eigenvalues --   -0.19254  -0.16346  -0.10585   0.04769
 Alpha virt. eigenvalues --    0.06753   0.07511   0.07807   0.08818   0.09136
 Alpha virt. eigenvalues --    0.09413   0.10329   0.11111   0.11571   0.11976
 Alpha virt. eigenvalues --    0.12340   0.13281   0.14263   0.15490   0.15605

  Beta  occ. eigenvalues --  -19.01066 -10.10380 -10.06862 -10.06693 -10.06518
  Beta  occ. eigenvalues --  -10.06320 -10.06094 -10.06059 -10.05267 -10.04844
  Beta  occ. eigenvalues --   -0.91227  -0.73865  -0.68558  -0.63504  -0.61778
  Beta  occ. eigenvalues --   -0.57331  -0.51727  -0.49660  -0.45528  -0.40626
  Beta  occ. eigenvalues --   -0.39038  -0.36557  -0.35472  -0.33382  -0.32939
  Beta  occ. eigenvalues --   -0.32040  -0.30810  -0.29172  -0.26672  -0.26589
  Beta  occ. eigenvalues --   -0.25558  -0.24423  -0.22429  -0.22115  -0.20509
  Beta  occ. eigenvalues --   -0.19172  -0.16303  -0.10464
  Beta virt. eigenvalues --    0.07018   0.07741   0.07988   0.08341   0.09380
  Beta virt. eigenvalues --    0.09700   0.10048   0.10746   0.11485   0.11943
  Beta virt. eigenvalues --    0.12545   0.12930   0.13630   0.14619   0.15717

 Mulliken charges and spin densities:
               1          2
     1  C    1.116543  -1.552011
     2  C   -1.625612   1.492068
     3  C    1.269362  -1.823983
     4  O   -0.219841  -0.000083
     5  C    1.975808  -0.881834
     6  C   -1.980363   1.940855
     7  C    1.261469  -1.852204
     8  C    0.471514  -0.979379
     9  C    0.069622  -0.173045
    10  C   -0.637603  -0.076011
    11  H   -0.192338   0.310067
    12  H   -0.176633   0.316890
    13  H   -0.805428   0.977816
    14  H   -0.247793   0.422746
    15  H   -0.060021   0.227267
    16  H   -0.361580   0.518478
    17  H   -0.012792   0.248589
    18  H   -0.232433   0.422710
    19  H   -0.073340   0.206899
    20  H    0.049571   0.080958
    21  H   -0.056115   0.194352
    22  H   -0.052233   0.185677
    23  H   -0.517477   0.695443
    24  H    0.037711   0.097733
 Sum of Mulliken charges =  -1.00000   1.00000

 Dipole moment (field-independent basis, Debye):
    X=             -3.4390    Y=             -0.5429    Z=              1.1825  Tot=              3.6769
 Quadrupole moment (field-independent basis, Debye-Ang):
   XX=           -129.1685   YY=            -95.0641   ZZ=            -95.8125
   XY=             -4.7395   XZ=              3.7539   YZ=              2.4799

 Summary of Natural Population Analysis:

                                       Natural Population
                Natural  -----------------------------------------------
    Atom  No    Charge         Core      Valence    Rydberg      Total
 -----------------------------------------------------------------------
      C    1   -0.29032      0.99965     2.28301    0.00766     3.29032
      C    2   -0.14434      0.99959     2.12845    0.01630     3.14434
      C    3   -0.00254      0.99957     1.98893    0.01404     3.00254
      O    4   -0.36840      0.99990     3.36173    0.00677     4.36840
      C    5    0.02416      0.99946     1.96837    0.00801     2.97584
      C    6   -0.09797      0.99951     2.08249    0.01598     3.09797
      C    7   -0.20056      0.99963     2.19300    0.00792     3.20056
      C    8   -0.20640      0.99964     2.19839    0.00837     3.20640
      C    9   -0.07507      0.99956     2.06556    0.00995     3.07507
      C   10   -0.12434      0.99953     2.10924    0.01557     3.12434
      H   11    0.09477      0.00000     0.40331    0.00192     0.40523
      H   12    0.10512      0.00000     0.39333    0.00155     0.39488
      H   13    0.10395      0.00000     0.39352    0.00253     0.39605
      H   14    0.10042      0.00000     0.39739    0.00219     0.39958
      H   15    0.08529      0.00000     0.41316    0.00155     0.41471
      H   16    0.07871      0.00000     0.41904    0.00225     0.42129
      H   17    0.22888      0.00000     0.26731    0.00381     0.27112
      H   18    0.09805      0.00000     0.40060    0.00135     0.40195
      H   19    0.09922      0.00000     0.39923    0.00155     0.40078
      H   20    0.09831      0.00000     0.40023    0.00146     0.40169
      H   21    0.10153      0.00000     0.39625    0.00222     0.39847
      H   22    0.09864      0.00000     0.39927    0.00209     0.40136
      H   23    0.09518      0.00000     0.40343    0.00139     0.40482
      H   24    0.09791      0.00000     0.40088    0.00121     0.40209
 =======================================================================
   * Total *    0.00019      9.99604    27.86611    0.13767    37.99981

 Normal termination of Gaussian 16 at Tue Dec  8 10:56:08 2020.
