 Gaussian 16, Revision A.03,

 -----------------------------------------------------------
 # opt freq B3LYP/6-31G(d) empiricaldispersion=gd3bj scf=xqc
 -----------------------------------------------------------

 ------------------------------
 CID_21825345_JID_7513_neutraal
 ------------------------------
 Symbolic Z-matrix:
 Charge =  0 Multiplicity = 1

 SCF Done:  E(RB3LYP) =  -787.287732461     A.U. after   14 cycles
 SCF Done:  E(RB3LYP) =  -787.292095673     A.U. after   11 cycles
 SCF Done:  E(RB3LYP) =  -787.292655823     A.U. after   11 cycles
 SCF Done:  E(RB3LYP) =  -787.292894720     A.U. after   11 cycles
 SCF Done:  E(RB3LYP) =  -787.292971587     A.U. after   11 cycles
 SCF Done:  E(RB3LYP) =  -787.293003072     A.U. after   10 cycles
 SCF Done:  E(RB3LYP) =  -787.293022613     A.U. after   10 cycles
 SCF Done:  E(RB3LYP) =  -787.293039318     A.U. after   10 cycles
 SCF Done:  E(RB3LYP) =  -787.293048813     A.U. after   10 cycles
 SCF Done:  E(RB3LYP) =  -787.293086493     A.U. after   11 cycles
 SCF Done:  E(RB3LYP) =  -787.297599239     A.U. after   10 cycles
 SCF Done:  E(RB3LYP) =  -787.297600051     A.U. after    7 cycles
 SCF Done:  E(RB3LYP) =  -787.297600886     A.U. after    7 cycles
 SCF Done:  E(RB3LYP) =  -787.297601635     A.U. after    8 cycles
 SCF Done:  E(RB3LYP) =  -787.297601842     A.U. after    7 cycles
 Optimization completed.
    -- Stationary point found.
 Normal termination of Gaussian 16 at Fri Dec 11 13:23:10 2020.

 --------------------------------------------------------------------
 #N Geom=AllCheck Guess=TCheck SCRF=Check GenChk RB3LYP/6-31G(d) Freq
 --------------------------------------------------------------------

 Structure from the checkpoint file:  "JID_7513.chk"
 ------------------------------
 CID_21825345_JID_7513_neutraal
 ------------------------------
 Charge =  0 Multiplicity = 1

 SCF Done:  E(RB3LYP) =  -787.297601842     A.U. after    1 cycles

  Exact polarizability: 190.387  13.830 129.624   9.845 -14.872 126.448
 Approx polarizability: 252.563  34.019 202.701  20.907 -36.575 211.117

                      1                      2                      3
                      A                      A                      A
 Frequencies --     29.0786                49.4452                60.3570
 Red. masses --      4.1557                 4.9409                 4.2301
 Frc consts  --      0.0021                 0.0071                 0.0091
 IR Inten    --      0.5034                 0.2660                 0.5340

                      4                      5                      6
                      A                      A                      A
 Frequencies --    131.3092               152.0993               167.7267
 Red. masses --      3.0593                 5.7955                 2.3287
 Frc consts  --      0.0311                 0.0790                 0.0386
 IR Inten    --      0.4087                 0.4885                 0.1243

                      7                      8                      9
                      A                      A                      A
 Frequencies --    188.5443               205.5389               213.4289
 Red. masses --      4.4700                 1.4874                 1.2834
 Frc consts  --      0.0936                 0.0370                 0.0344
 IR Inten    --      2.8447                35.5289                90.4696

                     10                     11                     12
                      A                      A                      A
 Frequencies --    237.8780               250.6801               281.4203
 Red. masses --      2.1263                 3.1102                 2.3014
 Frc consts  --      0.0709                 0.1152                 0.1074
 IR Inten    --     35.1014                16.7413                24.9081

                     13                     14                     15
                      A                      A                      A
 Frequencies --    291.2663               312.1791               331.3652
 Red. masses --      2.9692                 4.4383                 2.7190
 Frc consts  --      0.1484                 0.2548                 0.1759
 IR Inten    --      3.1692                20.4207                 5.2669

                     16                     17                     18
                      A                      A                      A
 Frequencies --    332.8357               351.1049               403.5782
 Red. masses --      1.7207                 3.2746                 2.2456
 Frc consts  --      0.1123                 0.2378                 0.2155
 IR Inten    --     81.1318                 5.6865                 2.9315

                     19                     20                     21
                      A                      A                      A
 Frequencies --    433.7394               442.7247               452.9903
 Red. masses --      1.4298                 3.5045                 2.8957
 Frc consts  --      0.1585                 0.4047                 0.3501
 IR Inten    --     46.7170                10.9837                16.0586

                     22                     23                     24
                      A                      A                      A
 Frequencies --    470.2909               492.7306               518.1394
 Red. masses --      3.2403                 3.1305                 3.4415
 Frc consts  --      0.4222                 0.4478                 0.5444
 IR Inten    --      1.2900                 2.0595                 6.6847

                     25                     26                     27
                      A                      A                      A
 Frequencies --    553.8564               597.5830               621.9551
 Red. masses --      2.6143                 4.9205                 4.7748
 Frc consts  --      0.4725                 1.0353                 1.0882
 IR Inten    --      3.5841                 4.1880                22.2059

                     28                     29                     30
                      A                      A                      A
 Frequencies --    649.9390               667.1159               707.8469
 Red. masses --      4.4307                 2.1411                 5.1139
 Frc consts  --      1.1027                 0.5614                 1.5097
 IR Inten    --      9.9566                22.4111                 2.7563

                     31                     32                     33
                      A                      A                      A
 Frequencies --    791.3190               802.2369               806.8813
 Red. masses --      4.3222                 3.9707                 1.6118
 Frc consts  --      1.5946                 1.5057                 0.6183
 IR Inten    --     12.6894                25.8573                19.3954

                     34                     35                     36
                      A                      A                      A
 Frequencies --    809.5962               833.4221               874.0231
 Red. masses --      2.6161                 1.6761                 2.4608
 Frc consts  --      1.0103                 0.6859                 1.1076
 IR Inten    --     23.6853                40.1221                 2.3781

                     37                     38                     39
                      A                      A                      A
 Frequencies --    882.4270               904.3280               913.1443
 Red. masses --      1.3968                 1.5456                 1.3126
 Frc consts  --      0.6408                 0.7447                 0.6449
 IR Inten    --     17.3979                18.2246                 1.2993

                     40                     41                     42
                      A                      A                      A
 Frequencies --    922.7500               949.2562               968.4482
 Red. masses --      2.0746                 2.0461                 2.8034
 Frc consts  --      1.0408                 1.0863                 1.5491
 IR Inten    --      4.7711                 2.4681                35.3982

                     43                     44                     45
                      A                      A                      A
 Frequencies --   1010.8977              1022.9456              1040.0548
 Red. masses --      1.7405                 2.0850                 1.7772
 Frc consts  --      1.0480                 1.2855                 1.1327
 IR Inten    --      4.6901                25.3039                22.7547

                     46                     47                     48
                      A                      A                      A
 Frequencies --   1061.5256              1106.1864              1117.1014
 Red. masses --      3.5962                 1.7005                 1.6473
 Frc consts  --      2.3875                 1.2260                 1.2112
 IR Inten    --     38.4317                 3.2524                53.6118

                     49                     50                     51
                      A                      A                      A
 Frequencies --   1122.4007              1135.5702              1159.6069
 Red. masses --      1.9328                 1.9685                 2.4408
 Frc consts  --      1.4346                 1.4956                 1.9337
 IR Inten    --     13.5355                73.6527                28.6507

                     52                     53                     54
                      A                      A                      A
 Frequencies --   1174.2376              1183.8851              1193.2089
 Red. masses --      1.8037                 1.3879                 1.5424
 Frc consts  --      1.4653                 1.1461                 1.2939
 IR Inten    --     12.4577                40.0004                46.4576

                     55                     56                     57
                      A                      A                      A
 Frequencies --   1227.8044              1228.8350              1250.5909
 Red. masses --      1.3953                 1.4662                 1.2924
 Frc consts  --      1.2393                 1.3045                 1.1909
 IR Inten    --     21.2176                23.3958                19.8906

                     58                     59                     60
                      A                      A                      A
 Frequencies --   1254.6844              1300.8996              1307.8070
 Red. masses --      1.4812                 2.0202                 1.2076
 Frc consts  --      1.3739                 2.0143                 1.2169
 IR Inten    --      8.4102                29.7557                 7.7866

                     61                     62                     63
                      A                      A                      A
 Frequencies --   1328.2169              1334.0342              1346.7489
 Red. masses --      2.0223                 1.6192                 1.9139
 Frc consts  --      2.1020                 1.6978                 2.0452
 IR Inten    --     77.7798                98.7334                89.3513

                     64                     65                     66
                      A                      A                      A
 Frequencies --   1354.6870              1369.2421              1379.8926
 Red. masses --      1.4650                 1.4335                 1.4837
 Frc consts  --      1.5841                 1.5835                 1.6645
 IR Inten    --     22.9747               115.0636                54.5310

                     67                     68                     69
                      A                      A                      A
 Frequencies --   1386.4807              1391.7168              1407.3290
 Red. masses --      1.5761                 1.4539                 1.3673
 Frc consts  --      1.7851                 1.6592                 1.5955
 IR Inten    --      4.5219                 6.5892                 7.5310

                     70                     71                     72
                      A                      A                      A
 Frequencies --   1420.2800              1426.1149              1435.7698
 Red. masses --      1.7404                 1.6601                 1.4629
 Frc consts  --      2.0685                 1.9892                 1.7768
 IR Inten    --     20.4990                38.5450                 7.4979

                     73                     74                     75
                      A                      A                      A
 Frequencies --   1444.8540              1508.1871              1511.0742
 Red. masses --      1.3491                 1.2837                 1.1111
 Frc consts  --      1.6594                 1.7204                 1.4947
 IR Inten    --      9.9071                32.2383                 3.7082

                     76                     77                     78
                      A                      A                      A
 Frequencies --   1519.9454              1521.7270              1528.3773
 Red. masses --      1.1722                 2.4312                 1.0686
 Frc consts  --      1.5955                 3.3170                 1.4707
 IR Inten    --      4.3324                 0.7970                 1.2354

                     79                     80                     81
                      A                      A                      A
 Frequencies --   1535.6643              1546.2854              1567.5557
 Red. masses --      1.0930                 1.0644                 3.3063
 Frc consts  --      1.5186                 1.4995                 4.7867
 IR Inten    --      2.0315                 2.8067               141.1669

                     82                     83                     84
                      A                      A                      A
 Frequencies --   1666.1301              1681.8409              2902.3924
 Red. masses --      6.5214                 6.2533                 1.0799
 Frc consts  --     10.6661                10.4215                 5.3598
 IR Inten    --     46.4063                 9.1569                28.9641

                     85                     86                     87
                      A                      A                      A
 Frequencies --   2911.7243              3023.7122              3034.3128
 Red. masses --      1.0735                 1.0648                 1.0840
 Frc consts  --      5.3625                 5.7359                 5.8801
 IR Inten    --    112.9430                25.8042                35.3551

                     88                     89                     90
                      A                      A                      A
 Frequencies --   3050.2199              3054.6688              3058.4246
 Red. masses --      1.0631                 1.0712                 1.0546
 Frc consts  --      5.8276                 5.8894                 5.8124
 IR Inten    --     21.1389                42.6857                19.2770

                     91                     92                     93
                      A                      A                      A
 Frequencies --   3070.8571              3077.0431              3093.9979
 Red. masses --      1.0944                 1.0870                 1.1039
 Frc consts  --      6.0804                 6.0636                 6.2260
 IR Inten    --     59.4386                73.0552                51.1985

                     94                     95                     96
                      A                      A                      A
 Frequencies --   3118.5808              3144.6332              3169.8670
 Red. masses --      1.0977                 1.1012                 1.0895
 Frc consts  --      6.2898                 6.4156                 6.4499
 IR Inten    --     38.0824                23.4235                21.5886

                     97                     98                     99
                      A                      A                      A
 Frequencies --   3207.8753              3219.8814              3520.0206
 Red. masses --      1.0902                 1.0916                 1.0739
 Frc consts  --      6.6100                 6.6682                 7.8400
 IR Inten    --      4.8896                 3.1624                 5.7054

                    100                    101                    102
                      A                      A                      A
 Frequencies --   3716.7863              3747.8172              3773.9172
 Red. masses --      1.0651                 1.0663                 1.0663
 Frc consts  --      8.6690                 8.8245                 8.9474
 IR Inten    --     88.7924                14.8569                67.6738

 - Thermochemistry -
 -------------------
 Temperature   298.150 Kelvin.  Pressure   1.00000 Atm.
 Atom     1 has atomic number  6 and mass  12.00000

 Molecular mass:   237.13649 amu.
 Principal axes and moments of inertia in atomic units:
                           1         2         3
     Eigenvalues --  1913.696237294.823317823.85453
           X            0.99995  -0.01021  -0.00108
           Y            0.01018   0.99961  -0.02618
           Z            0.00135   0.02617   0.99966
 This molecule is an asymmetric top.
 Rotational symmetry number  1.
 Warning -- assumption of classical behavior for rotation
           may cause significant error
 Rotational temperatures (Kelvin)      0.04526     0.01187     0.01107
 Rotational constants (GHZ):           0.94307     0.24740     0.23067
 Zero-point vibrational energy     816234.2 (Joules/Mol)
                                  195.08466 (Kcal/Mol)
 Warning -- explicit consideration of  26 degrees of freedom as
           vibrations may cause significant error
 Vibrational temperatures:     41.84    71.14    86.84   188.92   218.84
          (Kelvin)            241.32   271.27   295.72   307.08   342.25
                              360.67   404.90   419.07   449.16   476.76
                              478.88   505.16   580.66   624.05   636.98
                              651.75   676.64   708.93   745.49   796.88
                              859.79   894.85   935.12   959.83  1018.43
                             1138.53  1154.24  1160.92  1164.83  1199.11
                             1257.52  1269.62  1301.13  1313.81  1327.63
                             1365.77  1393.38  1454.46  1471.79  1496.41
                             1527.30  1591.56  1607.26  1614.88  1633.83
                             1668.42  1689.47  1703.35  1716.76  1766.54
                             1768.02  1799.32  1805.21  1871.70  1881.64
                             1911.01  1919.38  1937.67  1949.09  1970.03
                             1985.36  1994.84  2002.37  2024.83  2043.47
                             2051.86  2065.75  2078.82  2169.94  2174.10
                             2186.86  2189.43  2198.99  2209.48  2224.76
                             2255.36  2397.19  2419.79  4175.90  4189.32
                             4350.45  4365.70  4388.59  4394.99  4400.39
                             4418.28  4427.18  4451.57  4486.94  4524.43
                             4560.73  4615.42  4632.69  5064.52  5347.63
                             5392.27  5429.83

 Zero-point correction=                           0.310887 (Hartree/Particle)
 Thermal correction to Energy=                    0.327166
 Thermal correction to Enthalpy=                  0.328111
 Thermal correction to Gibbs Free Energy=         0.267533
 Sum of electronic and zero-point Energies=           -786.986715
 Sum of electronic and thermal Energies=              -786.970435
 Sum of electronic and thermal Enthalpies=            -786.969491
 Sum of electronic and thermal Free Energies=         -787.030069

                     E (Thermal)             CV                S
                      KCal/Mol        Cal/Mol-Kelvin    Cal/Mol-Kelvin
 Total                  205.300             64.597            127.496
 Electronic               0.000              0.000              0.000
 Translational            0.889              2.981             42.292
 Rotational               0.889              2.981             33.057
 Vibrational            203.523             58.635             52.147
 Vibration     1          0.593              1.984              5.891
 Vibration     2          0.595              1.978              4.839
 Vibration     3          0.597              1.973              4.445
 Vibration     4          0.612              1.922              2.927
 Vibration     5          0.619              1.900              2.646
 Vibration     6          0.624              1.882              2.461
 Vibration     7          0.633              1.856              2.242
 Vibration     8          0.640              1.832              2.083
 Vibration     9          0.644              1.820              2.014
 Vibration    10          0.656              1.783              1.819
 Vibration    11          0.663              1.762              1.726
 Vibration    12          0.681              1.708              1.525
 Vibration    13          0.687              1.690              1.467
 Vibration    14          0.701              1.650              1.351
 Vibration    15          0.714              1.613              1.253
 Vibration    16          0.715              1.610              1.246
 Vibration    17          0.728              1.573              1.161
 Vibration    18          0.769              1.462              0.950
 Vibration    19          0.794              1.397              0.847
 Vibration    20          0.802              1.377              0.818
 Vibration    21          0.812              1.354              0.787
 Vibration    22          0.827              1.316              0.737
 Vibration    23          0.848              1.266              0.677
 Vibration    24          0.873              1.210              0.614
 Vibration    25          0.909              1.131              0.536
 Vibration    26          0.956              1.037              0.454

 Optimization completed.
    -- Stationary point found.
 Normal termination of Gaussian 16 at Fri Dec 11 13:36:10 2020.

 ----------------------------------------------------------------------
 # B3LYP/6-311++G(d,p) empiricaldispersion=gd3bj scf=xqc pop=npa geom=c
 heck
 ----------------------------------------------------------------------

 --------------------------------------
 CID_21825345_JID_7513_Energie_neutraal
 --------------------------------------
 Structure from the checkpoint file:  "JID_7513.chk"
 Charge =  0 Multiplicity = 1

 SCF Done:  E(RB3LYP) =  -787.543696450     A.U. after   15 cycles
 Normal termination of Gaussian 16 at Fri Dec 11 13:41:41 2020.

 ----------------------------------------------------------------------
 # B3LYP/6-311++G(d,p) empiricaldispersion=gd3bj scf=xqc pop=npa geom=c
 heck
 ----------------------------------------------------------------------

 ------------------------------------
 CID_21825345_JID_7513_Energie_kation
 ------------------------------------
 Structure from the checkpoint file:  "JID_7513.chk"
 Charge =  1 Multiplicity = 2

 SCF Done:  E(UB3LYP) =  -787.263402903     A.U. after   28 cycles
 Normal termination of Gaussian 16 at Fri Dec 11 13:55:30 2020.
 Gaussian 16:  ES64L-G16RevA.03 25-Dec-2016

 ----------------------------------------------------------------------
 # B3LYP/6-311++G(d,p) empiricaldispersion=gd3bj scf=xqc pop=npa geom=c
 heck
 ----------------------------------------------------------------------

 -----------------------------------
 CID_21825345_JID_7513_Energie_anion
 -----------------------------------
 Structure from the checkpoint file:  "JID_7513.chk"
 Charge = -1 Multiplicity = 2

                         Standard orientation:
 ---------------------------------------------------------------------
 Center     Atomic      Atomic             Coordinates (Angstroms)
 Number     Number       Type             X           Y           Z
 ---------------------------------------------------------------------
      1          6           0       -1.652500    1.912762   -0.960501
      2          6           0       -1.594575    1.058557    0.313654
      3          6           0       -2.753974    1.387502    1.276777
      4          6           0       -4.106883    0.905541    0.734882
      5          6           0       -4.034138   -0.579413    0.372694
      6          7           0       -2.932459   -0.804586   -0.561210
      7          6           0       -1.638704   -0.457748    0.027056
      8          6           0       -0.524719   -0.966996   -0.896702
      9          6           0        0.861960   -0.662498   -0.372692
     10          6           0        1.670998    0.290061   -1.002481
     11          6           0        2.934573    0.590859   -0.504084
     12          6           0        3.403700   -0.077609    0.637662
     13          6           0        2.613664   -1.036781    1.261729
     14          6           0        1.345452   -1.329693    0.757679
     15          8           0        4.667529    0.287845    1.047855
     16          8           0        3.712289    1.521242   -1.127261
     17          8           0       -0.742817   -2.384678   -0.992756
     18          1           0       -2.467339    1.588227   -1.612947
     19          1           0       -0.719635    1.849230   -1.528878
     20          1           0       -1.808228    2.968179   -0.708133
     21          1           0       -0.651572    1.270737    0.832420
     22          1           0       -2.562693    0.892619    2.239898
     23          1           0       -2.780453    2.466254    1.475466
     24          1           0       -4.380686    1.477120   -0.159657
     25          1           0       -4.895559    1.069688    1.479434
     26          1           0       -4.966269   -0.906249   -0.102351
     27          1           0       -3.916976   -1.167087    1.306361
     28          1           0       -2.897915   -1.782217   -0.839289
     29          1           0       -1.490235   -0.974348    0.997557
     30          1           0       -0.654403   -0.507301   -1.885897
     31          1           0        1.331693    0.811568   -1.892037
     32          1           0        2.990637   -1.556340    2.140713
     33          1           0        0.733097   -2.088498    1.232550
     34          1           0        4.909997   -0.217200    1.837936
     35          1           0        4.545962    1.581063   -0.630181
     36          1           0       -0.037350   -2.745884   -1.551234
 ---------------------------------------------------------------------

 SCF Done:  E(UB3LYP) =  -787.535585745     A.U. after   33 cycles
 SCF Done:  E(UB3LYP) =  -787.535585744     a.u. after    1 cycles

 The electronic state is 2-A.
 Alpha  occ. eigenvalues --  -19.05716 -19.05474 -19.04085 -14.20427 -10.13741
 Alpha  occ. eigenvalues --  -10.13676 -10.13675 -10.10632 -10.10413 -10.08376
 Alpha  occ. eigenvalues --  -10.08237 -10.07996 -10.07829 -10.07816 -10.07749
 Alpha  occ. eigenvalues --  -10.07507 -10.06675  -0.97951  -0.95097  -0.94268
 Alpha  occ. eigenvalues --   -0.82582  -0.76128  -0.71099  -0.69162  -0.65871
 Alpha  occ. eigenvalues --   -0.65103  -0.60898  -0.58206  -0.54031  -0.53526
 Alpha  occ. eigenvalues --   -0.52265  -0.50152  -0.45936  -0.44748  -0.44120
 Alpha  occ. eigenvalues --   -0.43064  -0.41255  -0.38802  -0.37673  -0.36867
 Alpha  occ. eigenvalues --   -0.35132  -0.34503  -0.34215  -0.33706  -0.33273
 Alpha  occ. eigenvalues --   -0.32624  -0.32066  -0.31266  -0.30082  -0.28818
 Alpha  occ. eigenvalues --   -0.28229  -0.27486  -0.27394  -0.25898  -0.25567
 Alpha  occ. eigenvalues --   -0.25092  -0.24039  -0.23608  -0.22201  -0.21850
 Alpha  occ. eigenvalues --   -0.19683  -0.15013  -0.14094  -0.11901   0.04149
 Alpha virt. eigenvalues --    0.05459   0.06696   0.07187   0.07527   0.08155
 Alpha virt. eigenvalues --    0.08388   0.08646   0.09358   0.09558   0.09993
 Alpha virt. eigenvalues --    0.10498   0.10859   0.11608   0.12441   0.12777

  Beta  occ. eigenvalues --  -19.05695 -19.05380 -19.04074 -14.20421 -10.13734
  Beta  occ. eigenvalues --  -10.13673 -10.13671 -10.10630 -10.10403 -10.08376
  Beta  occ. eigenvalues --  -10.08235 -10.07994 -10.07820 -10.07780 -10.07741
  Beta  occ. eigenvalues --  -10.07501 -10.06671  -0.97867  -0.94964  -0.94247
  Beta  occ. eigenvalues --   -0.82572  -0.76100  -0.71086  -0.69139  -0.65835
  Beta  occ. eigenvalues --   -0.65068  -0.60872  -0.58174  -0.53954  -0.53501
  Beta  occ. eigenvalues --   -0.52237  -0.50121  -0.45870  -0.44669  -0.44097
  Beta  occ. eigenvalues --   -0.43037  -0.41226  -0.38764  -0.37637  -0.36853
  Beta  occ. eigenvalues --   -0.35101  -0.34476  -0.34162  -0.33675  -0.33251
  Beta  occ. eigenvalues --   -0.32598  -0.32040  -0.31243  -0.30059  -0.28798
  Beta  occ. eigenvalues --   -0.28194  -0.27456  -0.27338  -0.25876  -0.25528
  Beta  occ. eigenvalues --   -0.25077  -0.24024  -0.23586  -0.22186  -0.21836
  Beta  occ. eigenvalues --   -0.19667  -0.14991  -0.14073  -0.11871
  Beta virt. eigenvalues --    0.05767   0.06799   0.07238   0.07426   0.07951
  Beta virt. eigenvalues --    0.08182   0.08772   0.09045   0.09405   0.09645
  Beta virt. eigenvalues --    0.10294   0.10901   0.10925   0.11700   0.12442

 Mulliken charges and spin densities:
               1          2
     1  C   -0.479140  -0.288286
     2  C   -0.021672   0.509572
     3  C   -0.125460  -0.339304
     4  C   -0.420782  -0.004773
     5  C    0.299697  -0.479353
     6  N   -0.149850   0.085082
     7  C   -0.021766  -0.359370
     8  C    1.330789  -1.548621
     9  C    0.717381   0.119145
    10  C   -1.219754   0.969591
    11  C    0.314020  -0.780933
    12  C    1.942314  -2.298706
    13  C   -0.445685   0.314157
    14  C   -1.433480   1.042599
    15  O   -0.305528   0.017157
    16  O   -0.243407  -0.010388
    17  O   -0.231528   0.016185
    18  H    0.138048   0.042950
    19  H    0.175591  -0.095441
    20  H    0.045300   0.093855
    21  H    0.183757   0.053265
    22  H    0.024760   0.103765
    23  H   -0.033410   0.189933
    24  H    0.150863  -0.033040
    25  H   -0.209425   0.385959
    26  H   -0.057534   0.218793
    27  H   -0.006788   0.107061
    28  H    0.254643   0.014571
    29  H    0.246276  -0.061813
    30  H    0.212798   0.007392
    31  H    0.029677   0.139816
    32  H   -1.224726   1.420639
    33  H    0.021427   0.150264
    34  H   -0.656533   0.966204
    35  H    0.090798   0.196498
    36  H    0.108328   0.135573
 Sum of Mulliken charges =  -1.00000   1.00000

 Dipole moment (field-independent basis, Debye):
    X=             -8.3210    Y=              1.1881    Z=             -6.0419  Tot=             10.3516
 Quadrupole moment (field-independent basis, Debye-Ang):
   XX=           -215.2565   YY=           -134.7019   ZZ=           -144.3188
   XY=              6.1366   XZ=            -22.0513   YZ=              6.0658

 Summary of Natural Population Analysis:

                                       Natural Population
                Natural  -----------------------------------------------
    Atom  No    Charge         Core      Valence    Rydberg      Total
 -----------------------------------------------------------------------
      C    1   -0.29100      0.99965     2.28596    0.00539     3.29100
      C    2   -0.11744      0.99958     2.10750    0.01036     3.11744
      C    3   -0.18736      0.99962     2.17811    0.00964     3.18736
      C    4   -0.19673      0.99963     2.18853    0.00858     3.19673
      C    5   -0.08586      0.99963     2.07492    0.01132     3.08586
      N    6   -0.34797      0.99972     2.83811    0.01015     3.84797
      C    7   -0.00772      0.99955     1.99469    0.01347     3.00772
      C    8    0.05799      0.99947     1.92818    0.01436     2.94201
      C    9   -0.04458      0.99950     2.03372    0.01136     3.04458
      C   10   -0.12118      0.99948     2.11372    0.00799     3.12118
      C   11    0.13870      0.99935     1.84663    0.01532     2.86130
      C   12    0.13134      0.99935     1.85547    0.01384     2.86866
      C   13   -0.12298      0.99953     2.11258    0.01087     3.12298
      C   14   -0.10424      0.99951     2.09487    0.00985     3.10424
      O   15   -0.35624      0.99987     3.34812    0.00825     4.35624
      O   16   -0.34157      0.99988     3.33533    0.00636     4.34157
      O   17   -0.37769      0.99989     3.37163    0.00616     4.37769
      H   18    0.10368      0.00000     0.39513    0.00119     0.39632
      H   19    0.09905      0.00000     0.40006    0.00089     0.40095
      H   20    0.09682      0.00000     0.40236    0.00082     0.40318
      H   21    0.10629      0.00000     0.39213    0.00158     0.39371
      H   22    0.09739      0.00000     0.40143    0.00118     0.40261
      H   23    0.09838      0.00000     0.40078    0.00083     0.40162
      H   24    0.09573      0.00000     0.40316    0.00111     0.40427
      H   25    0.09860      0.00000     0.40037    0.00103     0.40140
      H   26    0.09363      0.00000     0.40552    0.00086     0.40637
      H   27    0.07661      0.00000     0.42200    0.00138     0.42339
      H   28    0.18458      0.00000     0.31290    0.00252     0.31542
      H   29    0.08649      0.00000     0.41125    0.00226     0.41351
      H   30    0.08551      0.00000     0.41249    0.00201     0.41449
      H   31    0.10299      0.00000     0.39555    0.00146     0.39701
      H   32    0.10929      0.00000     0.38773    0.00299     0.39071
      H   33    0.10660      0.00000     0.39211    0.00130     0.39340
      H   34    0.25482      0.00000     0.19125    0.05393     0.24518
      H   35    0.24571      0.00000     0.25120    0.00309     0.25429
      H   36    0.23235      0.00000     0.26520    0.00245     0.26765
 =======================================================================
   * Total *    0.00000     16.99319    46.75066    0.25614    64.00000

 Normal termination of Gaussian 16 at Fri Dec 11 14:11:44 2020.
