 Gaussian 16, Revision A.03,

 -----------------------------------------------------------
 # opt freq B3LYP/6-31G(d) empiricaldispersion=gd3bj scf=xqc
 -----------------------------------------------------------

 ------------------------------
 CID_70918803_JID_7065_neutraal
 ------------------------------
 Symbolic Z-matrix:
 Charge =  0 Multiplicity = 1

 SCF Done:  E(RB3LYP) =  -690.784479045     A.U. after   14 cycles
 SCF Done:  E(RB3LYP) =  -690.791540796     A.U. after   12 cycles
 SCF Done:  E(RB3LYP) =  -690.793044638     A.U. after   13 cycles
 SCF Done:  E(RB3LYP) =  -690.793461262     A.U. after   12 cycles
 SCF Done:  E(RB3LYP) =  -690.793580589     A.U. after   12 cycles
 SCF Done:  E(RB3LYP) =  -690.793607880     A.U. after   11 cycles
 SCF Done:  E(RB3LYP) =  -690.793615713     A.U. after   10 cycles
 SCF Done:  E(RB3LYP) =  -690.793617121     A.U. after    9 cycles
 SCF Done:  E(RB3LYP) =  -690.793617319     A.U. after    7 cycles
 Optimization completed.
    -- Stationary point found.
 Normal termination of Gaussian 16 at Fri Dec 11 11:43:54 2020.

 --------------------------------------------------------------------
 #N Geom=AllCheck Guess=TCheck SCRF=Check GenChk RB3LYP/6-31G(d) Freq
 --------------------------------------------------------------------

 Structure from the checkpoint file:  "JID_7065.chk"
 ------------------------------
 CID_70918803_JID_7065_neutraal
 ------------------------------
 Charge =  0 Multiplicity = 1

 SCF Done:  E(RB3LYP) =  -690.793617319     A.U. after    1 cycles

  Exact polarizability: 279.393  23.822 169.456   7.875  -1.316  85.405
 Approx polarizability: 404.908  55.068 302.625  19.607  -2.286 132.689

                      1                      2                      3
                      A                      A                      A
 Frequencies --     24.0737                46.8533                96.1697
 Red. masses --      3.4406                 4.0428                 3.7410
 Frc consts  --      0.0012                 0.0052                 0.0204
 IR Inten    --      0.1068                 0.2173                 0.8477

                      4                      5                      6
                      A                      A                      A
 Frequencies --    116.2155               176.0202               199.7735
 Red. masses --      4.2554                 4.2011                 2.5646
 Frc consts  --      0.0339                 0.0767                 0.0603
 IR Inten    --      1.4652                 2.6692                 1.0775

                      7                      8                      9
                      A                      A                      A
 Frequencies --    202.8171               238.5838               284.2544
 Red. masses --      2.4011                 1.2136                 4.1973
 Frc consts  --      0.0582                 0.0407                 0.1998
 IR Inten    --      0.8036                 0.1579                 1.3578

                     10                     11                     12
                      A                      A                      A
 Frequencies --    294.6708               326.5601               404.1163
 Red. masses --      3.5183                 4.4763                 3.4652
 Frc consts  --      0.1800                 0.2812                 0.3334
 IR Inten    --      0.9473                 2.3776                 0.3007

                     13                     14                     15
                      A                      A                      A
 Frequencies --    415.5432               419.0890               450.8877
 Red. masses --      1.9723                 2.0158                 2.9011
 Frc consts  --      0.2007                 0.2086                 0.3475
 IR Inten    --      2.0838                 2.1214                 1.5219

                     16                     17                     18
                      A                      A                      A
 Frequencies --    489.0043               493.0313               528.6809
 Red. masses --      3.5718                 3.0884                 5.1061
 Frc consts  --      0.5032                 0.4423                 0.8409
 IR Inten    --      3.6636                 1.3142                12.3786

                     19                     20                     21
                      A                      A                      A
 Frequencies --    537.4155               548.8497               579.4485
 Red. masses --      6.7402                 3.5254                 3.5869
 Frc consts  --      1.1469                 0.6257                 0.7096
 IR Inten    --      1.4537                 0.6277                 1.4387

                     22                     23                     24
                      A                      A                      A
 Frequencies --    631.1051               655.1051               690.0759
 Red. masses --      6.7649                 5.8159                 2.6669
 Frc consts  --      1.5875                 1.4706                 0.7483
 IR Inten    --      4.1490                 5.4029                 4.9209

                     25                     26                     27
                      A                      A                      A
 Frequencies --    764.3755               781.0628               790.4299
 Red. masses --      1.4170                 2.4208                 4.9596
 Frc consts  --      0.4878                 0.8701                 1.8257
 IR Inten    --      8.9511                10.5404                 1.8654

                     28                     29                     30
                      A                      A                      A
 Frequencies --    797.8791               805.1042               835.5859
 Red. masses --      3.0715                 2.5258                 1.3266
 Frc consts  --      1.1521                 0.9646                 0.5457
 IR Inten    --     19.4535                 4.0342                41.7219

                     31                     32                     33
                      A                      A                      A
 Frequencies --    859.5990               865.2747               889.7645
 Red. masses --      2.0480                 3.7005                 1.6747
 Frc consts  --      0.8916                 1.6324                 0.7812
 IR Inten    --      4.2934                 1.5625                 0.6405

                     34                     35                     36
                      A                      A                      A
 Frequencies --    935.6265               951.0725               959.3255
 Red. masses --      3.2513                 3.4809                 1.3370
 Frc consts  --      1.6769                 1.8551                 0.7250
 IR Inten    --      0.0349                 2.7057                 1.2228

                     37                     38                     39
                      A                      A                      A
 Frequencies --    963.8317               987.7364               995.9932
 Red. masses --      2.4193                 1.3190                 1.2754
 Frc consts  --      1.3242                 0.7582                 0.7454
 IR Inten    --      0.5566                 1.9650                 0.0151

                     40                     41                     42
                      A                      A                      A
 Frequencies --   1005.6047              1020.3466              1043.7603
 Red. masses --      2.4692                 2.4743                 2.2168
 Frc consts  --      1.4712                 1.5177                 1.4229
 IR Inten    --      1.4245                 7.1325                 2.9256

                     43                     44                     45
                      A                      A                      A
 Frequencies --   1050.3543              1074.9106              1091.0503
 Red. masses --      2.0938                 2.2594                 2.0784
 Frc consts  --      1.3610                 1.5381                 1.4577
 IR Inten    --      2.1473                15.4701                15.2568

                     46                     47                     48
                      A                      A                      A
 Frequencies --   1153.6216              1154.9537              1172.7227
 Red. masses --      1.6613                 1.7866                 1.3889
 Frc consts  --      1.3027                 1.4042                 1.1254
 IR Inten    --     12.8744                20.8620                 2.5388

                     49                     50                     51
                      A                      A                      A
 Frequencies --   1184.2179              1187.3816              1212.9581
 Red. masses --      1.1847                 1.2001                 1.3381
 Frc consts  --      0.9789                 0.9969                 1.1599
 IR Inten    --      2.5332                 3.7612                10.2700

                     52                     53                     54
                      A                      A                      A
 Frequencies --   1241.4550              1256.5149              1275.9051
 Red. masses --      1.3971                 1.9985                 2.0386
 Frc consts  --      1.2686                 1.8591                 1.9553
 IR Inten    --     26.4400                 1.7762                21.0713

                     55                     56                     57
                      A                      A                      A
 Frequencies --   1302.9920              1323.6117              1333.5054
 Red. masses --      1.9414                 1.7462                 1.6131
 Frc consts  --      1.9420                 1.8024                 1.6900
 IR Inten    --     26.6698                 9.1872                 3.8755

                     58                     59                     60
                      A                      A                      A
 Frequencies --   1351.2726              1362.3371              1389.9116
 Red. masses --      2.2833                 1.5008                 3.6709
 Frc consts  --      2.4564                 1.6411                 4.1783
 IR Inten    --      8.4818                10.2235                 9.4206

                     61                     62                     63
                      A                      A                      A
 Frequencies --   1401.8757              1405.3803              1416.9093
 Red. masses --      1.4414                 1.6793                 1.7685
 Frc consts  --      1.6690                 1.9542                 2.0919
 IR Inten    --      7.7806                37.5426                 7.7820

                     64                     65                     66
                      A                      A                      A
 Frequencies --   1419.2506              1476.7939              1478.9147
 Red. masses --      6.8933                 1.7120                 1.3290
 Frc consts  --      8.1808                 2.1999                 1.7126
 IR Inten    --      0.5510                 9.4408                 8.4682

                     67                     68                     69
                      A                      A                      A
 Frequencies --   1500.3621              1503.3493              1514.6504
 Red. masses --      1.0941                 1.0891                 2.6894
 Frc consts  --      1.4511                 1.4502                 3.6352
 IR Inten    --      1.5193                11.5767                 3.6137

                     70                     71                     72
                      A                      A                      A
 Frequencies --   1516.5560              1521.3073              1545.9947
 Red. masses --      1.0505                 1.1075                 1.0508
 Frc consts  --      1.4236                 1.5101                 1.4798
 IR Inten    --     11.2537                 2.5359                 2.2552

                     73                     74                     75
                      A                      A                      A
 Frequencies --   1559.1437              1608.2442              1658.4138
 Red. masses --      3.2748                 7.2859                 6.1120
 Frc consts  --      4.6903                11.1029                 9.9042
 IR Inten    --     35.2500                23.5415                68.9722

                     76                     77                     78
                      A                      A                      A
 Frequencies --   1677.4135              1712.7998              2974.7765
 Red. masses --      5.9827                 6.6428                 1.0563
 Frc consts  --      9.9182                11.4819                 5.5074
 IR Inten    --     20.5762                 9.2676                70.3095

                     79                     80                     81
                      A                      A                      A
 Frequencies --   2993.8972              3034.7178              3043.9579
 Red. masses --      1.0711                 1.0734                 1.0612
 Frc consts  --      5.6567                 5.8243                 5.7935
 IR Inten    --     41.2007                12.6552                56.2690

                     82                     83                     84
                      A                      A                      A
 Frequencies --   3059.8567              3075.6124              3090.4318
 Red. masses --      1.0908                 1.0759                 1.1023
 Frc consts  --      6.0174                 5.9965                 6.2029
 IR Inten    --     26.2884                62.9998                43.7394

                     85                     86                     87
                      A                      A                      A
 Frequencies --   3107.6775              3117.5865              3170.2911
 Red. masses --      1.0904                 1.1036                 1.0890
 Frc consts  --      6.2044                 6.3199                 6.4487
 IR Inten    --     11.4961                29.0636                24.0430

                     88                     89                     90
                      A                      A                      A
 Frequencies --   3179.1955              3183.8924              3192.2477
 Red. masses --      1.0873                 1.0893                 1.0889
 Frc consts  --      6.4746                 6.5062                 6.5376
 IR Inten    --      2.5678                11.2708                13.9654

                     91                     92                     93
                      A                      A                      A
 Frequencies --   3207.4407              3219.8771              3225.9107
 Red. masses --      1.0939                 1.0955                 1.0922
 Frc consts  --      6.6305                 6.6919                 6.6969
 IR Inten    --     31.5809                17.2240                11.7205

 - Thermochemistry -
 -------------------
 Temperature   298.150 Kelvin.  Pressure   1.00000 Atm.
 Atom     1 has atomic number  6 and mass  12.00000

 Molecular mass:   224.13135 amu.
 Principal axes and moments of inertia in atomic units:
                           1         2         3
     Eigenvalues --  1251.327068046.510768915.75726
           X            0.99999  -0.00115  -0.00351
           Y            0.00116   1.00000   0.00134
           Z            0.00351  -0.00134   0.99999
 This molecule is an asymmetric top.
 Rotational symmetry number  1.
 Warning -- assumption of classical behavior for rotation
           may cause significant error
 Rotational temperatures (Kelvin)      0.06922     0.01076     0.00971
 Rotational constants (GHZ):           1.44226     0.22429     0.20242
 Zero-point vibrational energy     735793.8 (Joules/Mol)
                                  175.85895 (Kcal/Mol)
 Warning -- explicit consideration of  21 degrees of freedom as
           vibrations may cause significant error
 Vibrational temperatures:     34.64    67.41   138.37   167.21   253.25
          (Kelvin)            287.43   291.81   343.27   408.98   423.97
                              469.85   581.43   597.87   602.98   648.73
                              703.57   709.36   760.65   773.22   789.67
                              833.70   908.02   942.55   992.87  1099.77
                             1123.78  1137.25  1147.97  1158.37  1202.22
                             1236.77  1244.94  1280.17  1346.16  1368.38
                             1380.26  1386.74  1421.13  1433.01  1446.84
                             1468.05  1501.74  1511.23  1546.56  1569.78
                             1659.80  1661.72  1687.29  1703.83  1708.38
                             1745.18  1786.18  1807.84  1835.74  1874.71
                             1904.38  1918.62  1944.18  1960.10  1999.77
                             2016.99  2022.03  2038.62  2041.99  2124.78
                             2127.83  2158.69  2162.98  2179.24  2181.99
                             2188.82  2224.34  2243.26  2313.90  2386.09
                             2413.42  2464.34  4280.04  4307.55  4366.28
                             4379.58  4402.45  4425.12  4446.44  4471.25
                             4485.51  4561.34  4574.15  4580.91  4592.93
                             4614.79  4632.68  4641.37

 Zero-point correction=                           0.280249 (Hartree/Particle)
 Thermal correction to Energy=                    0.293891
 Thermal correction to Enthalpy=                  0.294835
 Thermal correction to Gibbs Free Energy=         0.239111
 Sum of electronic and zero-point Energies=           -690.513368
 Sum of electronic and thermal Energies=              -690.499726
 Sum of electronic and thermal Enthalpies=            -690.498782
 Sum of electronic and thermal Free Energies=         -690.554507

                     E (Thermal)             CV                S
                      KCal/Mol        Cal/Mol-Kelvin    Cal/Mol-Kelvin
 Total                  184.419             55.556            117.282
 Electronic               0.000              0.000              0.000
 Translational            0.889              2.981             42.124
 Rotational               0.889              2.981             32.862
 Vibrational            182.642             49.595             42.296
 Vibration     1          0.593              1.985              6.266
 Vibration     2          0.595              1.979              4.946
 Vibration     3          0.603              1.952              3.530
 Vibration     4          0.608              1.936              3.162
 Vibration     5          0.628              1.872              2.370
 Vibration     6          0.638              1.840              2.135
 Vibration     7          0.639              1.836              2.107
 Vibration     8          0.657              1.782              1.813
 Vibration     9          0.683              1.703              1.508
 Vibration    10          0.689              1.684              1.447
 Vibration    11          0.710              1.622              1.277
 Vibration    12          0.769              1.461              0.948
 Vibration    13          0.779              1.436              0.907
 Vibration    14          0.782              1.429              0.895
 Vibration    15          0.810              1.359              0.793
 Vibration    16          0.845              1.274              0.686
 Vibration    17          0.849              1.265              0.676
 Vibration    18          0.884              1.187              0.590
 Vibration    19          0.892              1.167              0.571
 Vibration    20          0.904              1.142              0.547
 Vibration    21          0.936              1.076              0.486

                           ! Non-Optimized Parameters !
 Normal termination of Gaussian 16 at Fri Dec 11 11:54:58 2020.

 ----------------------------------------------------------------------
 # B3LYP/6-311++G(d,p) empiricaldispersion=gd3bj scf=xqc pop=npa geom=c
 heck
 ----------------------------------------------------------------------

 --------------------------------------
 CID_70918803_JID_7065_Energie_neutraal
 --------------------------------------
 Structure from the checkpoint file:  "JID_7065.chk"
 Charge =  0 Multiplicity = 1

 SCF Done:  E(RB3LYP) =  -690.966486525     A.U. after   15 cycles
 Normal termination of Gaussian 16 at Fri Dec 11 12:00:58 2020.

 ----------------------------------------------------------------------
 # B3LYP/6-311++G(d,p) empiricaldispersion=gd3bj scf=xqc pop=npa geom=c
 heck
 ----------------------------------------------------------------------

 ------------------------------------
 CID_70918803_JID_7065_Energie_kation
 ------------------------------------
 Structure from the checkpoint file:  "JID_7065.chk"
 Charge =  1 Multiplicity = 2

 SCF Done:  E(UB3LYP) =  -690.689371798     A.U. after   27 cycles
 Normal termination of Gaussian 16 at Fri Dec 11 12:14:45 2020.
 Gaussian 16:  ES64L-G16RevA.03 25-Dec-2016

 ----------------------------------------------------------------------
 # B3LYP/6-311++G(d,p) empiricaldispersion=gd3bj scf=xqc pop=npa geom=c
 heck
 ----------------------------------------------------------------------

 -----------------------------------
 CID_70918803_JID_7065_Energie_anion
 -----------------------------------
 Structure from the checkpoint file:  "JID_7065.chk"
 Charge = -1 Multiplicity = 2

                         Standard orientation:
 ---------------------------------------------------------------------
 Center     Atomic      Atomic             Coordinates (Angstroms)
 Number     Number       Type             X           Y           Z
 ---------------------------------------------------------------------
      1          6           0        4.430231   -0.267918   -1.388113
      2          7           0        4.277919   -0.328673    0.061443
      3          6           0        3.386085   -1.409155    0.490422
      4          6           0        1.932257   -1.234285    0.025831
      5          6           0        1.450669    0.186187    0.226158
      6          6           0        2.325992    1.165659    0.515576
      7          6           0        3.815461    0.936219    0.625819
      8          6           0       -0.006877    0.428164    0.106982
      9          7           0       -0.791012   -0.640389    0.147388
     10          6           0       -2.140025   -0.480786    0.051283
     11          6           0       -2.963721   -1.634858    0.102662
     12          6           0       -4.333062   -1.519297    0.012127
     13          6           0       -4.940985   -0.248955   -0.134895
     14          6           0       -4.166258    0.888975   -0.189955
     15          6           0       -2.756010    0.800268   -0.098021
     16          6           0       -1.891157    1.923217   -0.158970
     17          6           0       -0.536941    1.745239   -0.063913
     18          1           0        4.771170   -1.243086   -1.752318
     19          1           0        5.197181    0.472870   -1.639628
     20          1           0        3.508936   -0.000835   -1.935134
     21          1           0        3.790731   -2.361735    0.130017
     22          1           0        3.416179   -1.438892    1.587336
     23          1           0        1.823491   -1.505985   -1.033626
     24          1           0        1.268308   -1.916285    0.565387
     25          1           0        1.980334    2.175264    0.727714
     26          1           0        4.106391    0.976833    1.688403
     27          1           0        4.356354    1.756850    0.137172
     28          1           0       -2.475280   -2.597262    0.216115
     29          1           0       -4.956500   -2.407988    0.053568
     30          1           0       -6.022416   -0.175701   -0.204373
     31          1           0       -4.625558    1.867947   -0.304094
     32          1           0       -2.314453    2.915790   -0.294064
     33          1           0        0.132825    2.593608   -0.142240
 ---------------------------------------------------------------------

 SCF Done:  E(UB3LYP) =  -690.976801324     A.U. after   23 cycles

 The electronic state is 2-A.
 Alpha  occ. eigenvalues --  -14.19472 -14.12574 -10.08649 -10.08170 -10.08056
 Alpha  occ. eigenvalues --  -10.05251 -10.04215 -10.03926 -10.03699 -10.03267
 Alpha  occ. eigenvalues --  -10.03002 -10.02632 -10.02489 -10.02288 -10.02275
 Alpha  occ. eigenvalues --  -10.02208 -10.01342  -0.82007  -0.78278  -0.70103
 Alpha  occ. eigenvalues --   -0.67011  -0.65144  -0.63392  -0.60795  -0.59030
 Alpha  occ. eigenvalues --   -0.58193  -0.52038  -0.50286  -0.47996  -0.46762
 Alpha  occ. eigenvalues --   -0.45108  -0.40218  -0.38537  -0.37318  -0.36668
 Alpha  occ. eigenvalues --   -0.35734  -0.34022  -0.33112  -0.31110  -0.30532
 Alpha  occ. eigenvalues --   -0.29221  -0.28787  -0.28448  -0.27547  -0.27066
 Alpha  occ. eigenvalues --   -0.26274  -0.26030  -0.25789  -0.24174  -0.23354
 Alpha  occ. eigenvalues --   -0.21145  -0.20840  -0.20046  -0.19970  -0.15972
 Alpha  occ. eigenvalues --   -0.13648  -0.10527  -0.09774  -0.09423  -0.08565
 Alpha  occ. eigenvalues --    0.04490
 Alpha virt. eigenvalues --    0.07359   0.08921   0.09126   0.09421   0.09985
 Alpha virt. eigenvalues --    0.10441   0.10554   0.11565   0.11676   0.11953
 Alpha virt. eigenvalues --    0.12295   0.13261   0.13882   0.14174   0.14624

  Beta  occ. eigenvalues --  -14.19469 -14.12109 -10.08648 -10.08193 -10.08057
  Beta  occ. eigenvalues --  -10.05326 -10.03958 -10.03922 -10.03750 -10.03312
  Beta  occ. eigenvalues --  -10.03010 -10.02704 -10.02358 -10.02114 -10.01995
  Beta  occ. eigenvalues --  -10.01895 -10.01095  -0.81987  -0.77645  -0.69765
  Beta  occ. eigenvalues --   -0.66761  -0.64725  -0.63235  -0.60621  -0.58653
  Beta  occ. eigenvalues --   -0.58058  -0.51861  -0.49980  -0.47744  -0.46552
  Beta  occ. eigenvalues --   -0.44772  -0.40021  -0.38399  -0.37180  -0.36461
  Beta  occ. eigenvalues --   -0.35632  -0.33898  -0.33006  -0.31020  -0.30443
  Beta  occ. eigenvalues --   -0.29087  -0.28673  -0.28298  -0.27458  -0.26898
  Beta  occ. eigenvalues --   -0.25993  -0.25776  -0.25223  -0.24032  -0.23248
  Beta  occ. eigenvalues --   -0.20988  -0.20768  -0.19823  -0.18864  -0.14599
  Beta  occ. eigenvalues --   -0.12703  -0.10472  -0.09280  -0.08597  -0.06819
  Beta virt. eigenvalues --    0.07342   0.08897   0.09100   0.09372   0.09965
  Beta virt. eigenvalues --    0.10093   0.10543   0.10956   0.11557   0.11662
  Beta virt. eigenvalues --    0.11942   0.12270   0.13319   0.14043   0.14493

 Mulliken charges and spin densities:
               1          2
     1  C   -0.403038   0.003330
     2  N    0.140142   0.005878
     3  C   -0.717427  -0.007156
     4  C   -0.003131   0.016777
     5  C    0.603317  -0.059842
     6  C   -0.350774   0.198842
     7  C   -0.792059  -0.017109
     8  C    0.359579   0.173554
     9  N    0.145471   0.215067
    10  C   -1.573473  -0.069430
    11  C   -0.307999   0.178788
    12  C   -0.319921   0.008568
    13  C   -0.269185   0.120772
    14  C   -0.128250   0.114359
    15  C    1.760267  -0.048082
    16  C   -0.653323   0.259447
    17  C   -0.473177  -0.058360
    18  H    0.129942  -0.000012
    19  H    0.117340  -0.000280
    20  H    0.130475  -0.000082
    21  H    0.153291  -0.000452
    22  H    0.153687   0.003126
    23  H    0.167023  -0.002997
    24  H    0.184596  -0.000330
    25  H    0.107059  -0.015127
    26  H    0.144391   0.022012
    27  H    0.115069   0.005517
    28  H    0.111923  -0.015724
    29  H    0.112453   0.000018
    30  H    0.099426  -0.008481
    31  H    0.070274  -0.011487
    32  H    0.104243  -0.019173
    33  H    0.081790   0.008071
 Sum of Mulliken charges =  -1.00000   1.00000

 Dipole moment (field-independent basis, Debye):
    X=              4.5674    Y=              0.6409    Z=             -0.6995  Tot=              4.6649
 Quadrupole moment (field-independent basis, Debye-Ang):
   XX=           -160.0932   YY=           -110.5250   ZZ=           -112.8206
   XY=             -1.8500   XZ=             -3.0937   YZ=             -0.0032

 Summary of Natural Population Analysis:

                                       Natural Population
                Natural  -----------------------------------------------
    Atom  No    Charge         Core      Valence    Rydberg      Total
 -----------------------------------------------------------------------
      C    1   -0.17671      0.99961     2.16880    0.00830     3.17671
      N    2   -0.28685      0.99976     2.76854    0.01855     3.78685
      C    3   -0.07626      0.99957     2.06644    0.01025     3.07626
      C    4   -0.21766      0.99962     2.20976    0.00829     3.21766
      C    5   -0.02887      0.99940     2.01837    0.01111     3.02887
      C    6   -0.05529      0.99943     2.04791    0.00795     3.05529
      C    7   -0.09212      0.99955     2.08208    0.01049     3.09212
      C    8    0.13274      0.99952     1.85469    0.01305     2.86726
      N    9   -0.18785      0.99966     2.67512    0.01307     3.68785
      C   10    0.07426      0.99948     1.91398    0.01228     2.92574
      C   11   -0.05375      0.99953     2.04454    0.00967     3.05375
      C   12   -0.11552      0.99958     2.10655    0.00939     3.11552
      C   13   -0.09239      0.99957     2.08300    0.00981     3.09239
      C   14   -0.07068      0.99954     2.06208    0.00906     3.07068
      C   15   -0.05658      0.99948     2.04786    0.00923     3.05658
      C   16   -0.02851      0.99954     2.01998    0.00899     3.02851
      C   17   -0.13255      0.99953     2.12494    0.00807     3.13255
      H   18    0.08841      0.00000     0.41046    0.00113     0.41159
      H   19    0.08810      0.00000     0.41073    0.00116     0.41190
      H   20    0.08672      0.00000     0.41203    0.00125     0.41328
      H   21    0.08742      0.00000     0.41125    0.00134     0.41258
      H   22    0.09015      0.00000     0.40855    0.00130     0.40985
      H   23    0.09683      0.00000     0.40165    0.00152     0.40317
      H   24    0.11820      0.00000     0.38050    0.00130     0.38180
      H   25    0.08933      0.00000     0.40985    0.00082     0.41067
      H   26    0.09294      0.00000     0.40547    0.00159     0.40706
      H   27    0.09072      0.00000     0.40763    0.00165     0.40928
      H   28    0.09339      0.00000     0.40500    0.00161     0.40661
      H   29    0.08858      0.00000     0.41034    0.00108     0.41142
      H   30    0.08707      0.00000     0.41184    0.00109     0.41293
      H   31    0.08615      0.00000     0.41208    0.00177     0.41385
      H   32    0.08828      0.00000     0.41088    0.00084     0.41172
      H   33    0.09240      0.00000     0.40576    0.00184     0.40760
 =======================================================================
   * Total *    0.00010     16.99237    42.80865    0.19887    59.99990

 Normal termination of Gaussian 16 at Fri Dec 11 12:25:06 2020.
