 Gaussian 16, Revision A.03,

 -----------------------------------------------------------
 # opt freq B3LYP/6-31G(d) empiricaldispersion=gd3bj scf=xqc
 -----------------------------------------------------------

 -------------------------------
 CID_138471074_JID_5118_neutraal
 -------------------------------
 Symbolic Z-matrix:
 Charge =  0 Multiplicity = 1

 SCF Done:  E(RB3LYP) =  -729.714902436     A.U. after   14 cycles
 SCF Done:  E(RB3LYP) =  -729.719701792     A.U. after   12 cycles
 SCF Done:  E(RB3LYP) =  -729.721220470     A.U. after   11 cycles
 SCF Done:  E(RB3LYP) =  -729.722320243     A.U. after   11 cycles
 SCF Done:  E(RB3LYP) =  -729.723053551     A.U. after   12 cycles
 SCF Done:  E(RB3LYP) =  -729.723077034     A.U. after   11 cycles
 SCF Done:  E(RB3LYP) =  -729.723526737     A.U. after   11 cycles
 SCF Done:  E(RB3LYP) =  -729.723680404     A.U. after   11 cycles
 SCF Done:  E(RB3LYP) =  -729.723726170     A.U. after   11 cycles
 SCF Done:  E(RB3LYP) =  -729.723735334     A.U. after    9 cycles
 SCF Done:  E(RB3LYP) =  -729.723739124     A.U. after    9 cycles
 SCF Done:  E(RB3LYP) =  -729.723739395     A.U. after    7 cycles
 SCF Done:  E(RB3LYP) =  -729.723739445     A.U. after    7 cycles
 SCF Done:  E(RB3LYP) =  -729.723739466     A.U. after    7 cycles
 Optimization completed.
    -- Stationary point found.
 Normal termination of Gaussian 16 at Thu Dec 10 14:48:17 2020.

 --------------------------------------------------------------------
 #N Geom=AllCheck Guess=TCheck SCRF=Check GenChk RB3LYP/6-31G(d) Freq
 --------------------------------------------------------------------

 Structure from the checkpoint file:  "JID_5118.chk"
 -------------------------------
 CID_138471074_JID_5118_neutraal
 -------------------------------
 Charge =  0 Multiplicity = 1

 SCF Done:  E(RB3LYP) =  -729.723739466     A.U. after    1 cycles

  Exact polarizability: 168.673  -1.539 141.858  -1.257   0.982  82.106
 Approx polarizability: 237.437   0.140 216.478  -3.794  -1.615 121.087

                      1                      2                      3
                      A                      A                      A
 Frequencies --     37.8481                48.8775                64.7762
 Red. masses --      4.2789                 2.6656                 3.9571
 Frc consts  --      0.0036                 0.0038                 0.0098
 IR Inten    --      0.2749                 0.4243                 0.8238

                      4                      5                      6
                      A                      A                      A
 Frequencies --     99.5928               114.6832               129.2680
 Red. masses --      3.2893                 3.7123                 2.8983
 Frc consts  --      0.0192                 0.0288                 0.0285
 IR Inten    --      0.6574                 4.6312                 3.5064

                      7                      8                      9
                      A                      A                      A
 Frequencies --    145.4788               170.7800               197.6755
 Red. masses --      2.4091                 4.5942                 2.2497
 Frc consts  --      0.0300                 0.0789                 0.0518
 IR Inten    --      1.7056                 0.3733                 3.3908

                     10                     11                     12
                      A                      A                      A
 Frequencies --    212.9388               231.2104               274.3542
 Red. masses --      2.1465                 2.6901                 4.1582
 Frc consts  --      0.0573                 0.0847                 0.1844
 IR Inten    --      1.4475                 6.5520                 4.3959

                     13                     14                     15
                      A                      A                      A
 Frequencies --    295.3375               341.0695               348.4971
 Red. masses --      1.7988                 3.4760                 4.4460
 Frc consts  --      0.0924                 0.2382                 0.3181
 IR Inten    --      0.2529                18.6910                 3.5578

                     16                     17                     18
                      A                      A                      A
 Frequencies --    371.0006               390.1163               401.3648
 Red. masses --      1.4153                 5.2485                 2.9829
 Frc consts  --      0.1148                 0.4706                 0.2831
 IR Inten    --    142.9278                 8.7810                21.3837

                     19                     20                     21
                      A                      A                      A
 Frequencies --    434.1784               472.1389               500.8968
 Red. masses --      2.3298                 1.5987                 3.8184
 Frc consts  --      0.2588                 0.2100                 0.5645
 IR Inten    --     17.2540               117.4851                13.2022

                     22                     23                     24
                      A                      A                      A
 Frequencies --    545.6616               573.7676               611.0137
 Red. masses --      4.9321                 4.1257                 3.7527
 Frc consts  --      0.8652                 0.8002                 0.8255
 IR Inten    --     13.4590                 6.5350                 4.3431

                     25                     26                     27
                      A                      A                      A
 Frequencies --    629.1164               698.0219               747.6495
 Red. masses --      4.2826                 4.1080                 4.0094
 Frc consts  --      0.9987                 1.1793                 1.3205
 IR Inten    --      8.3989                 4.6503                 2.1426

                     28                     29                     30
                      A                      A                      A
 Frequencies --    766.0152               779.8274               820.2865
 Red. masses --      1.1734                 1.5375                 2.9945
 Frc consts  --      0.4057                 0.5509                 1.1871
 IR Inten    --    107.8582                 8.8492                13.5475

                     31                     32                     33
                      A                      A                      A
 Frequencies --    846.0190               902.7884               912.4110
 Red. masses --      1.4260                 2.5758                 1.3282
 Frc consts  --      0.6014                 1.2369                 0.6515
 IR Inten    --     21.7476                 0.5194                13.2710

                     34                     35                     36
                      A                      A                      A
 Frequencies --    945.8854               953.0246               967.3637
 Red. masses --      1.4053                 2.5630                 2.7839
 Frc consts  --      0.7408                 1.3715                 1.5349
 IR Inten    --      2.7860                60.3366                 7.6608

                     37                     38                     39
                      A                      A                      A
 Frequencies --    991.6661               996.2790              1026.5371
 Red. masses --      1.9218                 1.6232                 3.9287
 Frc consts  --      1.1135                 0.9493                 2.4392
 IR Inten    --      7.9764                33.8780                77.4869

                     40                     41                     42
                      A                      A                      A
 Frequencies --   1055.8293              1095.9915              1100.2780
 Red. masses --      2.6257                 3.4606                 3.2411
 Frc consts  --      1.7246                 2.4492                 2.3118
 IR Inten    --     13.4068                52.6200                90.9488

                     43                     44                     45
                      A                      A                      A
 Frequencies --   1145.7861              1188.4640              1193.5919
 Red. masses --      2.0413                 1.7885                 2.0835
 Frc consts  --      1.5790                 1.4884                 1.7489
 IR Inten    --      6.8200                20.1384                90.2541

                     46                     47                     48
                      A                      A                      A
 Frequencies --   1200.6572              1217.6631              1253.6634
 Red. masses --      1.2275                 1.1086                 1.6751
 Frc consts  --      1.0425                 0.9685                 1.5511
 IR Inten    --     15.8043                21.7516                35.1566

                     49                     50                     51
                      A                      A                      A
 Frequencies --   1279.3453              1286.8858              1306.0026
 Red. masses --      2.2549                 1.2098                 2.7368
 Frc consts  --      2.1745                 1.1804                 2.7503
 IR Inten    --     88.9408                 5.0582                18.1214

                     52                     53                     54
                      A                      A                      A
 Frequencies --   1325.0521              1367.0178              1375.2843
 Red. masses --      1.2161                 1.6714                 2.4421
 Frc consts  --      1.2581                 1.8403                 2.7214
 IR Inten    --      0.3654               210.6548                81.0026

                     55                     56                     57
                      A                      A                      A
 Frequencies --   1395.9541              1400.3489              1420.3323
 Red. masses --      1.3854                 1.4660                 1.2503
 Frc consts  --      1.5906                 1.6938                 1.4861
 IR Inten    --      6.8961                 2.2758                87.5865

                     58                     59                     60
                      A                      A                      A
 Frequencies --   1425.2980              1429.5820              1436.9723
 Red. masses --      1.6485                 1.3668                 1.4242
 Frc consts  --      1.9731                 1.6458                 1.7327
 IR Inten    --    104.7980                32.9176                16.3308

                     61                     62                     63
                      A                      A                      A
 Frequencies --   1450.0418              1504.3430              1509.8995
 Red. masses --      1.3889                 2.9524                 1.1034
 Frc consts  --      1.7206                 3.9365                 1.4821
 IR Inten    --      9.8152                45.9563                 1.5051

                     64                     65                     66
                      A                      A                      A
 Frequencies --   1521.9509              1526.2158              1527.8757
 Red. masses --      1.5459                 1.0610                 1.1767
 Frc consts  --      2.1097                 1.4561                 1.6184
 IR Inten    --    147.7151                 6.2671                 8.2347

                     67                     68                     69
                      A                      A                      A
 Frequencies --   1532.1306              1540.2629              1551.6468
 Red. masses --      1.4083                 1.0644                 1.1909
 Frc consts  --      1.9478                 1.4878                 1.6893
 IR Inten    --    101.1295                 2.3147                 5.9003

                     70                     71                     72
                      A                      A                      A
 Frequencies --   1666.9104              1675.4709              2998.0405
 Red. masses --      5.4895                 6.3643                 1.0564
 Frc consts  --      8.9869                10.5262                 5.5946
 IR Inten    --     14.1398                22.1980                30.0840

                     73                     74                     75
                      A                      A                      A
 Frequencies --   3029.2722              3035.0103              3044.2780
 Red. masses --      1.0676                 1.0979                 1.0624
 Frc consts  --      5.7719                 5.9584                 5.8010
 IR Inten    --     35.8083                22.7757                47.9395

                     76                     77                     78
                      A                      A                      A
 Frequencies --   3051.0055              3052.5375              3085.8450
 Red. masses --      1.0395                 1.0695                 1.0958
 Frc consts  --      5.7011                 5.8717                 6.1479
 IR Inten    --     25.0298                57.2641                21.7180

                     79                     80                     81
                      A                      A                      A
 Frequencies --   3086.9168              3095.1675              3116.0161
 Red. masses --      1.1008                 1.1035                 1.1008
 Frc consts  --      6.1802                 6.2285                 6.2972
 IR Inten    --     20.9423                20.8519                47.4919

                     82                     83                     84
                      A                      A                      A
 Frequencies --   3139.9763              3213.9130              3224.8520
 Red. masses --      1.1017                 1.0892                 1.0898
 Frc consts  --      6.4000                 6.6284                 6.6773
 IR Inten    --     31.9689                11.7796                 1.3928

                     85                     86                     87
                      A                      A                      A
 Frequencies --   3542.8786              3722.1503              3733.2053
 Red. masses --      1.0657                 1.0660                 1.0660
 Frc consts  --      7.8814                 8.7012                 8.7531
 IR Inten    --    288.7135                17.6180                 9.6994

 - Thermochemistry -
 -------------------
 Temperature   298.150 Kelvin.  Pressure   1.00000 Atm.
 Atom     1 has atomic number  6 and mass  12.00000

 Molecular mass:   212.10486 amu.
 Principal axes and moments of inertia in atomic units:
                           1         2         3
     Eigenvalues --  2393.204765284.231897375.65924
           X            0.99997  -0.00615   0.00417
           Y            0.00612   0.99996   0.00668
           Z           -0.00421  -0.00666   0.99997
 This molecule is an asymmetric top.
 Rotational symmetry number  1.
 Warning -- assumption of classical behavior for rotation
           may cause significant error
 Rotational temperatures (Kelvin)      0.03619     0.01639     0.01174
 Rotational constants (GHZ):           0.75411     0.34153     0.24469
 Zero-point vibrational energy     688290.8 (Joules/Mol)
                                  164.50544 (Kcal/Mol)
 Warning -- explicit consideration of  24 degrees of freedom as
           vibrations may cause significant error
 Vibrational temperatures:     54.45    70.32    93.20   143.29   165.00
          (Kelvin)            185.99   209.31   245.71   284.41   306.37
                              332.66   394.73   424.92   490.72   501.41
                              533.79   561.29   577.47   624.69   679.30
                              720.68   785.09   825.52   879.11   905.16
                             1004.30  1075.70  1102.13  1122.00  1180.21
                             1217.23  1298.91  1312.76  1360.92  1371.19
                             1391.82  1426.79  1433.42  1476.96  1519.10
                             1576.89  1583.05  1648.53  1709.93  1717.31
                             1727.48  1751.95  1803.74  1840.69  1851.54
                             1879.05  1906.45  1966.83  1978.73  2008.47
                             2014.79  2043.54  2050.69  2056.85  2067.48
                             2086.29  2164.41  2172.41  2189.75  2195.88
                             2198.27  2204.39  2216.09  2232.47  2398.31
                             2410.63  4313.51  4358.45  4366.70  4380.04
                             4389.72  4391.92  4439.84  4441.38  4453.26
                             4483.25  4517.73  4624.10  4639.84  5097.41
                             5355.34  5371.25

 Zero-point correction=                           0.262156 (Hartree/Particle)
 Thermal correction to Energy=                    0.277679
 Thermal correction to Enthalpy=                  0.278623
 Thermal correction to Gibbs Free Energy=         0.218838
 Sum of electronic and zero-point Energies=           -729.461583
 Sum of electronic and thermal Energies=              -729.446061
 Sum of electronic and thermal Enthalpies=            -729.445117
 Sum of electronic and thermal Free Energies=         -729.504901

                     E (Thermal)             CV                S
                      KCal/Mol        Cal/Mol-Kelvin    Cal/Mol-Kelvin
 Total                  174.246             57.991            125.827
 Electronic               0.000              0.000              0.000
 Translational            0.889              2.981             41.959
 Rotational               0.889              2.981             32.900
 Vibrational            172.469             52.030             50.968
 Vibration     1          0.594              1.982              5.369
 Vibration     2          0.595              1.978              4.862
 Vibration     3          0.597              1.971              4.306
 Vibration     4          0.604              1.949              3.462
 Vibration     5          0.608              1.937              3.188
 Vibration     6          0.612              1.924              2.957
 Vibration     7          0.617              1.908              2.731
 Vibration     8          0.626              1.878              2.427
 Vibration     9          0.637              1.843              2.155
 Vibration    10          0.644              1.821              2.018
 Vibration    11          0.653              1.793              1.870
 Vibration    12          0.677              1.721              1.569
 Vibration    13          0.690              1.682              1.443
 Vibration    14          0.721              1.593              1.207
 Vibration    15          0.726              1.578              1.173
 Vibration    16          0.743              1.532              1.076
 Vibration    17          0.758              1.491              1.000
 Vibration    18          0.767              1.467              0.958
 Vibration    19          0.795              1.396              0.845
 Vibration    20          0.829              1.312              0.732
 Vibration    21          0.856              1.248              0.656
 Vibration    22          0.901              1.149              0.553
 Vibration    23          0.930              1.088              0.497
 Vibration    24          0.970              1.009              0.431

                           ! Non-Optimized Parameters !
 Normal termination of Gaussian 16 at Thu Dec 10 14:56:46 2020.

 ----------------------------------------------------------------------
 # B3LYP/6-311++G(d,p) empiricaldispersion=gd3bj scf=xqc pop=npa geom=c
 heck
 ----------------------------------------------------------------------

 ---------------------------------------
 CID_138471074_JID_5118_Energie_neutraal
 ---------------------------------------
 Structure from the checkpoint file:  "JID_5118.chk"
 Charge =  0 Multiplicity = 1

 SCF Done:  E(RB3LYP) =  -729.954345154     A.U. after   14 cycles
 Normal termination of Gaussian 16 at Thu Dec 10 15:00:04 2020.

 ----------------------------------------------------------------------
 # B3LYP/6-311++G(d,p) empiricaldispersion=gd3bj scf=xqc pop=npa geom=c
 heck
 ----------------------------------------------------------------------

 -------------------------------------
 CID_138471074_JID_5118_Energie_kation
 -------------------------------------
 Structure from the checkpoint file:  "JID_5118.chk"
 Charge =  1 Multiplicity = 2

 SCF Done:  E(UB3LYP) =  -729.676298638     A.U. after   22 cycles
 Normal termination of Gaussian 16 at Thu Dec 10 15:07:41 2020.
 Gaussian 16:  ES64L-G16RevA.03 25-Dec-2016

 ----------------------------------------------------------------------
 # B3LYP/6-311++G(d,p) empiricaldispersion=gd3bj scf=xqc pop=npa geom=c
 heck
 ----------------------------------------------------------------------

 ------------------------------------
 CID_138471074_JID_5118_Energie_anion
 ------------------------------------
 Structure from the checkpoint file:  "JID_5118.chk"
 Charge = -1 Multiplicity = 2

                         Standard orientation:
 ---------------------------------------------------------------------
 Center     Atomic      Atomic             Coordinates (Angstroms)
 Number     Number       Type             X           Y           Z
 ---------------------------------------------------------------------
      1          6           0        4.861656    0.306619    0.907783
      2          6           0        4.460593   -0.484918   -0.338875
      3          6           0        3.007472   -0.935729   -0.313924
      4          8           0        2.190327    0.228380   -0.290188
      5          6           0        0.832511    0.067438   -0.238621
      6          6           0        0.078621    1.247934   -0.216472
      7          6           0       -1.308876    1.214834   -0.149164
      8          6           0       -1.963527   -0.028737   -0.123176
      9          6           0       -1.221831   -1.216871   -0.162966
     10          6           0        0.178999   -1.164418   -0.205916
     11          6           0       -1.944799   -2.538911   -0.206613
     12          8           0       -3.025607   -2.611086    0.747825
     13          8           0       -3.331873   -0.028594   -0.074305
     14          6           0       -2.124231    2.490249   -0.103243
     15          8           0       -1.357685    3.644207    0.214692
     16          1           0        4.240048    1.200395    1.012639
     17          1           0        5.909420    0.620728    0.855284
     18          1           0        4.736968   -0.298555    1.814276
     19          1           0        4.620963    0.120976   -1.238984
     20          1           0        5.088321   -1.379710   -0.441268
     21          1           0        2.769441   -1.541636   -1.200600
     22          1           0        2.809488   -1.549750    0.578541
     23          1           0        0.592385    2.202403   -0.247817
     24          1           0        0.734911   -2.095215   -0.226190
     25          1           0       -2.436957   -2.689104   -1.173909
     26          1           0       -1.245023   -3.371176   -0.056363
     27          1           0       -2.638709   -2.456769    1.625788
     28          1           0       -3.610884   -0.921928    0.219419
     29          1           0       -2.563586    2.692793   -1.086562
     30          1           0       -2.966118    2.357012    0.591067
     31          1           0       -0.981483    3.501331    1.097618
 ---------------------------------------------------------------------

 SCF Done:  E(UB3LYP) =  -729.946767462     A.U. after   33 cycles
 SCF Done:  E(UB3LYP) =  -729.946767462     a.u. after    1 cycles

 The electronic state is 2-A.
 Alpha  occ. eigenvalues --  -19.04971 -19.03890 -19.03752 -19.03590 -10.12818
 Alpha  occ. eigenvalues --  -10.12785 -10.12715 -10.12620 -10.12483 -10.08024
 Alpha  occ. eigenvalues --  -10.07956 -10.07903 -10.07223 -10.06869 -10.06779
 Alpha  occ. eigenvalues --   -0.96682  -0.95634  -0.93859  -0.92824  -0.75591
 Alpha  occ. eigenvalues --   -0.70035  -0.68068  -0.64560  -0.59913  -0.58637
 Alpha  occ. eigenvalues --   -0.57923  -0.51682  -0.50757  -0.47893  -0.45131
 Alpha  occ. eigenvalues --   -0.43570  -0.41521  -0.40485  -0.38921  -0.38350
 Alpha  occ. eigenvalues --   -0.35643  -0.34818  -0.34685  -0.34564  -0.33417
 Alpha  occ. eigenvalues --   -0.33080  -0.31402  -0.30140  -0.29591  -0.28755
 Alpha  occ. eigenvalues --   -0.27149  -0.26213  -0.25769  -0.25032  -0.25014
 Alpha  occ. eigenvalues --   -0.24518  -0.22974  -0.20340  -0.19509  -0.18979
 Alpha  occ. eigenvalues --   -0.15007  -0.10544   0.04093
 Alpha virt. eigenvalues --    0.06008   0.06845   0.07505   0.08061   0.08613
 Alpha virt. eigenvalues --    0.08686   0.09190   0.10051   0.10459   0.10809
 Alpha virt. eigenvalues --    0.11221   0.11742   0.12159   0.12663   0.13630

  Beta  occ. eigenvalues --  -19.04969 -19.03874 -19.03742 -19.03513 -10.12822
  Beta  occ. eigenvalues --  -10.12780 -10.12696 -10.12584 -10.12454 -10.08007
  Beta  occ. eigenvalues --  -10.07954 -10.07892 -10.07192 -10.06849 -10.06742
  Beta  occ. eigenvalues --   -0.96676  -0.95578  -0.93838  -0.92675  -0.75540
  Beta  occ. eigenvalues --   -0.70002  -0.68003  -0.64507  -0.59839  -0.58591
  Beta  occ. eigenvalues --   -0.57827  -0.51639  -0.50690  -0.47846  -0.45050
  Beta  occ. eigenvalues --   -0.43537  -0.41490  -0.40409  -0.38878  -0.38301
  Beta  occ. eigenvalues --   -0.35592  -0.34761  -0.34623  -0.34532  -0.33371
  Beta  occ. eigenvalues --   -0.33043  -0.31364  -0.30107  -0.29544  -0.28709
  Beta  occ. eigenvalues --   -0.27108  -0.26163  -0.25735  -0.24995  -0.24964
  Beta  occ. eigenvalues --   -0.24477  -0.22929  -0.20295  -0.19467  -0.18917
  Beta  occ. eigenvalues --   -0.14844  -0.10420
  Beta virt. eigenvalues --    0.06299   0.06915   0.07307   0.07878   0.08525
  Beta virt. eigenvalues --    0.08825   0.09107   0.09524   0.10330   0.10627
  Beta virt. eigenvalues --    0.11017   0.11451   0.12067   0.12308   0.12928

 Mulliken charges and spin densities:
               1          2
     1  C    0.182290  -0.667481
     2  C   -0.556340   0.098919
     3  C    0.546554  -0.620421
     4  O   -0.118719   0.036043
     5  C   -0.420796  -0.123445
     6  C   -0.973832   0.304693
     7  C    0.291891   0.162205
     8  C   -0.879021   0.154162
     9  C   -0.417326   1.204981
    10  C    0.371070  -0.151148
    11  C    2.712372  -3.019463
    12  O   -0.292378   0.040566
    13  O   -0.343961   0.051669
    14  C    0.068681  -0.282706
    15  O   -0.266335   0.002471
    16  H    0.048166   0.109035
    17  H   -0.160120   0.296881
    18  H   -0.018535   0.142304
    19  H    0.115054   0.024927
    20  H   -0.279381   0.428413
    21  H   -0.147227   0.300572
    22  H   -0.168070   0.329626
    23  H    0.171515  -0.024626
    24  H   -0.132845   0.257375
    25  H    0.007192   0.183291
    26  H   -0.633272   0.831089
    27  H   -0.317152   0.581225
    28  H    0.225209   0.090539
    29  H    0.205184  -0.003338
    30  H    0.032495   0.169643
    31  H    0.147636   0.091999
 Sum of Mulliken charges =  -1.00000   1.00000

 Dipole moment (field-independent basis, Debye):
    X=              0.0841    Y=              4.7709    Z=             -2.3020  Tot=              5.2979
 Quadrupole moment (field-independent basis, Debye-Ang):
   XX=           -164.6830   YY=           -147.5044   ZZ=           -115.7088
   XY=             -2.4844   XZ=              3.1864   YZ=              8.6263

 Summary of Natural Population Analysis:

                                       Natural Population
                Natural  -----------------------------------------------
    Atom  No    Charge         Core      Valence    Rydberg      Total
 -----------------------------------------------------------------------
      C    1   -0.28661      0.99966     2.28241    0.00453     3.28661
      C    2   -0.19763      0.99964     2.18927    0.00872     3.19763
      C    3   -0.01070      0.99957     1.99805    0.01309     3.01070
      O    4   -0.28215      0.99985     3.27286    0.00944     4.28215
      C    5    0.15297      0.99938     1.83459    0.01306     2.84703
      C    6   -0.11263      0.99949     2.10199    0.01116     3.11263
      C    7   -0.05012      0.99947     2.04068    0.00996     3.05012
      C    8    0.15545      0.99930     1.83078    0.01447     2.84455
      C    9   -0.05924      0.99948     2.04899    0.01076     3.05924
      C   10   -0.12955      0.99948     2.12083    0.00924     3.12955
      C   11   -0.01752      0.99956     2.00405    0.01391     3.01752
      O   12   -0.37660      0.99990     3.36951    0.00719     4.37660
      O   13   -0.35822      0.99988     3.35202    0.00633     4.35822
      C   14   -0.01323      0.99956     2.00231    0.01135     3.01323
      O   15   -0.36717      0.99990     3.36110    0.00617     4.36717
      H   16    0.10258      0.00000     0.39599    0.00143     0.39742
      H   17    0.09616      0.00000     0.40285    0.00099     0.40384
      H   18    0.09666      0.00000     0.40214    0.00120     0.40334
      H   19    0.09590      0.00000     0.40293    0.00117     0.40410
      H   20    0.09915      0.00000     0.39949    0.00135     0.40085
      H   21    0.08589      0.00000     0.41250    0.00161     0.41411
      H   22    0.08406      0.00000     0.41399    0.00195     0.41594
      H   23    0.10918      0.00000     0.38949    0.00133     0.39082
      H   24    0.10595      0.00000     0.39226    0.00179     0.39405
      H   25    0.09181      0.00000     0.40675    0.00144     0.40819
      H   26    0.08997      0.00000     0.40795    0.00208     0.41003
      H   27    0.23979      0.00000     0.24356    0.01665     0.26021
      H   28    0.24963      0.00000     0.24692    0.00345     0.25037
      H   29    0.09092      0.00000     0.40771    0.00137     0.40908
      H   30    0.08866      0.00000     0.40967    0.00168     0.41134
      H   31    0.22664      0.00000     0.27043    0.00294     0.27336
 =======================================================================
   * Total *   -0.00000     14.99412    41.81408    0.19181    57.00000

 Normal termination of Gaussian 16 at Thu Dec 10 15:19:06 2020.
