 Gaussian 16, Revision A.03,

 -----------------------------------------------------------
 # opt freq B3LYP/6-31G(d) empiricaldispersion=gd3bj scf=xqc
 -----------------------------------------------------------

 ------------------------------
 CID_72183283_JID_7452_neutraal
 ------------------------------
 Symbolic Z-matrix:
 Charge =  0 Multiplicity = 1

 SCF Done:  E(RB3LYP) =  -875.146157606     A.U. after   15 cycles
 SCF Done:  E(RB3LYP) =  -875.152610227     A.U. after   12 cycles
 SCF Done:  E(RB3LYP) =  -875.153440569     A.U. after   12 cycles
 SCF Done:  E(RB3LYP) =  -875.153399547     A.U. after   12 cycles
 SCF Done:  E(RB3LYP) =  -875.153691696     A.U. after   11 cycles
 SCF Done:  E(RB3LYP) =  -875.153713152     A.U. after   10 cycles
 SCF Done:  E(RB3LYP) =  -875.153714583     A.U. after   10 cycles
 SCF Done:  E(RB3LYP) =  -875.153722467     A.U. after    9 cycles
 SCF Done:  E(RB3LYP) =  -875.153723580     A.U. after    8 cycles
 SCF Done:  E(RB3LYP) =  -875.153724026     A.U. after    8 cycles
 SCF Done:  E(RB3LYP) =  -875.153724246     A.U. after    8 cycles
 SCF Done:  E(RB3LYP) =  -875.153724320     A.U. after    7 cycles
 Optimization completed.
    -- Stationary point found.
 Normal termination of Gaussian 16 at Mon Dec 14 16:38:33 2020.

 --------------------------------------------------------------------
 #N Geom=AllCheck Guess=TCheck SCRF=Check GenChk RB3LYP/6-31G(d) Freq
 --------------------------------------------------------------------

 Structure from the checkpoint file:  "JID_7452.chk"
 ------------------------------
 CID_72183283_JID_7452_neutraal
 ------------------------------
 Charge =  0 Multiplicity = 1

 SCF Done:  E(RB3LYP) =  -875.153724320     A.U. after    1 cycles

  Exact polarizability: 176.978   4.816 138.160   0.008  -0.008  82.187
 Approx polarizability: 246.398   4.534 211.011   0.023  -0.024 118.381

                      1                      2                      3
                      A                      A                      A
 Frequencies --     25.0789                31.4760                52.4894
 Red. masses --      5.2636                 3.2756                 4.5276
 Frc consts  --      0.0020                 0.0019                 0.0073
 IR Inten    --      1.6163                 0.0399                 0.0866

                      4                      5                      6
                      A                      A                      A
 Frequencies --     53.1334                86.8358               118.1878
 Red. masses --      7.2036                 5.0041                 2.8177
 Frc consts  --      0.0120                 0.0222                 0.0232
 IR Inten    --      0.0809                 1.8372                 2.5228

                      7                      8                      9
                      A                      A                      A
 Frequencies --    121.7519               123.2328               138.0829
 Red. masses --      3.1994                 5.0151                 1.3880
 Frc consts  --      0.0279                 0.0449                 0.0156
 IR Inten    --      0.3795                 0.8961                 0.2437

                     10                     11                     12
                      A                      A                      A
 Frequencies --    206.6324               208.7114               214.1625
 Red. masses --      4.1006                 3.6457                 1.1993
 Frc consts  --      0.1032                 0.0936                 0.0324
 IR Inten    --      5.7189                 2.3747                 0.2894

                     13                     14                     15
                      A                      A                      A
 Frequencies --    255.8884               265.8613               278.6375
 Red. masses --      1.1559                 3.4839                 1.0618
 Frc consts  --      0.0446                 0.1451                 0.0486
 IR Inten    --      0.3788                 4.3236                 0.0036

                     16                     17                     18
                      A                      A                      A
 Frequencies --    323.9787               332.8119               341.9812
 Red. masses --      3.2539                 4.9755                 6.4686
 Frc consts  --      0.2012                 0.3247                 0.4457
 IR Inten    --      8.6686                 6.9174                 1.7343

                     19                     20                     21
                      A                      A                      A
 Frequencies --    350.3507               354.6148               418.3355
 Red. masses --      2.8513                 7.5490                 2.9477
 Frc consts  --      0.2062                 0.5593                 0.3039
 IR Inten    --      0.9447                 1.4454                 0.3546

                     22                     23                     24
                      A                      A                      A
 Frequencies --    439.1203               460.2469               476.6104
 Red. masses --      3.4589                 2.9320                 4.9614
 Frc consts  --      0.3930                 0.3659                 0.6640
 IR Inten    --     12.8656                 3.3316                 1.9935

                     25                     26                     27
                      A                      A                      A
 Frequencies --    521.9377               541.9740               628.7269
 Red. masses --      6.8244                 1.1283                 8.0987
 Frc consts  --      1.0954                 0.1953                 1.8862
 IR Inten    --     15.0068                84.9957                20.9476

                     28                     29                     30
                      A                      A                      A
 Frequencies --    660.6562               687.3452               750.7421
 Red. masses --      4.5417                 6.0784                11.4610
 Frc consts  --      1.1679                 1.6920                 3.8059
 IR Inten    --      0.5304                 3.1546                26.3241

                     31                     32                     33
                      A                      A                      A
 Frequencies --    775.7581               786.4359               800.8244
 Red. masses --      2.1362                 5.8484                 2.4101
 Frc consts  --      0.7574                 2.1312                 0.9107
 IR Inten    --     25.4561                 2.8455                 5.7289

                     34                     35                     36
                      A                      A                      A
 Frequencies --    807.8807               826.7794               889.5181
 Red. masses --      4.1173                 4.8042                 4.7930
 Frc consts  --      1.5833                 1.9349                 2.2345
 IR Inten    --      5.0520                38.0580                18.5013

                     37                     38                     39
                      A                      A                      A
 Frequencies --    939.3883               940.0166               943.2346
 Red. masses --      1.6251                 1.8431                 6.3894
 Frc consts  --      0.8449                 0.9596                 3.3492
 IR Inten    --      0.1199                 6.8563                40.9722

                     40                     41                     42
                      A                      A                      A
 Frequencies --    978.9723               985.4644              1030.1438
 Red. masses --      8.1574                 1.1987                 3.7690
 Frc consts  --      4.6062                 0.6859                 2.3565
 IR Inten    --      0.0671                 0.2089                 9.8603

                     43                     44                     45
                      A                      A                      A
 Frequencies --   1049.1967              1063.5888              1068.1325
 Red. masses --      3.8055                 2.7637                 1.4053
 Frc consts  --      2.4682                 1.8420                 0.9447
 IR Inten    --     59.4700                29.2883                 0.3554

                     46                     47                     48
                      A                      A                      A
 Frequencies --   1083.0104              1161.1519              1186.4012
 Red. masses --      2.0786                 2.2251                 1.2748
 Frc consts  --      1.4365                 1.7676                 1.0572
 IR Inten    --     23.6579                70.3124                 0.9410

                     49                     50                     51
                      A                      A                      A
 Frequencies --   1212.8001              1219.6161              1238.2644
 Red. masses --      2.3776                 1.6222                 3.1261
 Frc consts  --      2.0605                 1.4217                 2.8241
 IR Inten    --    281.5397                19.2195                94.7514

                     52                     53                     54
                      A                      A                      A
 Frequencies --   1278.0160              1289.9334              1300.1660
 Red. masses --      4.3144                 2.7101                 2.8276
 Frc consts  --      4.1519                 2.6569                 2.8163
 IR Inten    --    326.4761                16.1977                37.8442

                     55                     56                     57
                      A                      A                      A
 Frequencies --   1370.0300              1426.9841              1429.1280
 Red. masses --      4.5277                 1.2807                 1.2913
 Frc consts  --      5.0071                 1.5365                 1.5539
 IR Inten    --    621.9279                18.8119                35.0148

                     58                     59                     60
                      A                      A                      A
 Frequencies --   1453.8539              1455.2319              1488.0053
 Red. masses --      2.0605                 1.7749                 1.4560
 Frc consts  --      2.5660                 2.2146                 1.8994
 IR Inten    --     37.5707                 0.4798                10.5696

                     61                     62                     63
                      A                      A                      A
 Frequencies --   1500.4078              1510.5766              1511.9081
 Red. masses --      1.0461                 2.5267                 1.0474
 Frc consts  --      1.3875                 3.3969                 1.4106
 IR Inten    --      0.5475                94.3621                 6.0916

                     64                     65                     66
                      A                      A                      A
 Frequencies --   1519.9491              1521.0108              1524.7464
 Red. masses --      1.0471                 1.0516                 1.0676
 Frc consts  --      1.4253                 1.4335                 1.4624
 IR Inten    --      0.2882                 0.6172                 1.9391

                     67                     68                     69
                      A                      A                      A
 Frequencies --   1525.9214              1534.4360              1556.4996
 Red. masses --      1.0656                 1.0527                 1.1337
 Frc consts  --      1.4619                 1.4604                 1.6182
 IR Inten    --     23.5123                 1.5232                 6.0842

                     70                     71                     72
                      A                      A                      A
 Frequencies --   1561.6754              1667.5978              1827.0008
 Red. masses --      3.3261                 9.3422                 9.0855
 Frc consts  --      4.7794                15.3068                17.8679
 IR Inten    --    280.5613               239.7825               630.2734

                     73                     74                     75
                      A                      A                      A
 Frequencies --   1836.7962              3060.2047              3063.4679
 Red. masses --     11.7490                 1.0352                 1.0379
 Frc consts  --     23.3546                 5.7117                 5.7388
 IR Inten    --    131.5261                 8.9740                20.4991

                     76                     77                     78
                      A                      A                      A
 Frequencies --   3069.7427              3078.1199              3126.6421
 Red. masses --      1.0384                 1.0294                 1.1028
 Frc consts  --      5.7655                 5.7468                 6.3520
 IR Inten    --     11.1596                30.9473                 4.4395

                     79                     80                     81
                      A                      A                      A
 Frequencies --   3128.5677              3135.5364              3140.9839
 Red. masses --      1.1025                 1.1034                 1.1023
 Frc consts  --      6.3580                 6.3915                 6.4075
 IR Inten    --     12.9692                28.0024                47.0080

                     82                     83                     84
                      A                      A                      A
 Frequencies --   3153.6153              3173.3444              3176.3811
 Red. masses --      1.1076                 1.1004                 1.0997
 Frc consts  --      6.4902                 6.5286                 6.5374
 IR Inten    --     18.1261                 0.7363                 8.6317

                     85                     86                     87
                      A                      A                      A
 Frequencies --   3186.6499              3362.5169              3623.7879
 Red. masses --      1.1073                 1.0981                 1.0769
 Frc consts  --      6.6251                 7.3152                 8.3319
 IR Inten    --     14.9288                 3.8229                87.4059

 - Thermochemistry -
 -------------------
 Temperature   298.150 Kelvin.  Pressure   1.00000 Atm.
 Atom     1 has atomic number  6 and mass  12.00000

 Molecular mass:   242.09027 amu.
 Principal axes and moments of inertia in atomic units:
                           1         2         3
     Eigenvalues --  2315.981997444.584099344.57776
           X            1.00000  -0.00234  -0.00001
           Y            0.00234   1.00000   0.00000
           Z            0.00001  -0.00000   1.00000
 This molecule is an asymmetric top.
 Rotational symmetry number  1.
 Warning -- assumption of classical behavior for rotation
           may cause significant error
 Rotational temperatures (Kelvin)      0.03740     0.01163     0.00927
 Rotational constants (GHZ):           0.77926     0.24242     0.19313
 Zero-point vibrational energy     646136.6 (Joules/Mol)
                                  154.43036 (Kcal/Mol)
 Warning -- explicit consideration of  26 degrees of freedom as
           vibrations may cause significant error
 Vibrational temperatures:     36.08    45.29    75.52    76.45   124.94
          (Kelvin)            170.05   175.17   177.30   198.67   297.30
                              300.29   308.13   368.17   382.52   400.90
                              466.13   478.84   492.03   504.08   510.21
                              601.89   631.80   662.19   685.74   750.95
                              779.78   904.60   950.54   988.94  1080.15
                             1116.14  1131.51  1152.21  1162.36  1189.55
                             1279.82  1351.57  1352.47  1357.10  1408.52
                             1417.86  1482.15  1509.56  1530.27  1536.80
                             1558.21  1670.64  1706.97  1744.95  1754.76
                             1781.59  1838.78  1855.93  1870.65  1971.17
                             2053.11  2056.20  2091.77  2093.75  2140.91
                             2158.75  2173.38  2175.30  2186.87  2188.40
                             2193.77  2195.46  2207.71  2239.46  2246.90
                             2399.30  2628.65  2642.74  4402.95  4407.65
                             4416.68  4428.73  4498.54  4501.31  4511.34
                             4519.18  4537.35  4565.73  4570.10  4584.88
                             4837.91  5213.82

 Zero-point correction=                           0.246100 (Hartree/Particle)
 Thermal correction to Energy=                    0.263721
 Thermal correction to Enthalpy=                  0.264665
 Thermal correction to Gibbs Free Energy=         0.198950
 Sum of electronic and zero-point Energies=           -874.907624
 Sum of electronic and thermal Energies=              -874.890004
 Sum of electronic and thermal Enthalpies=            -874.889059
 Sum of electronic and thermal Free Energies=         -874.954775

                     E (Thermal)             CV                S
                      KCal/Mol        Cal/Mol-Kelvin    Cal/Mol-Kelvin
 Total                  165.487             63.786            138.310
 Electronic               0.000              0.000              0.000
 Translational            0.889              2.981             42.353
 Rotational               0.889              2.981             33.443
 Vibrational            163.710             57.825             62.513
 Vibration     1          0.593              1.985              6.185
 Vibration     2          0.594              1.983              5.734
 Vibration     3          0.596              1.977              4.721
 Vibration     4          0.596              1.976              4.697
 Vibration     5          0.601              1.958              3.730
 Vibration     6          0.608              1.934              3.130
 Vibration     7          0.609              1.931              3.072
 Vibration     8          0.610              1.930              3.049
 Vibration     9          0.614              1.915              2.830
 Vibration    10          0.641              1.830              2.073
 Vibration    11          0.642              1.827              2.055
 Vibration    12          0.644              1.819              2.008
 Vibration    13          0.666              1.753              1.690
 Vibration    14          0.672              1.736              1.623
 Vibration    15          0.679              1.713              1.542
 Vibration    16          0.709              1.627              1.290
 Vibration    17          0.715              1.610              1.246
 Vibration    18          0.721              1.592              1.203
 Vibration    19          0.727              1.575              1.165
 Vibration    20          0.730              1.566              1.146
 Vibration    21          0.781              1.430              0.898
 Vibration    22          0.799              1.385              0.829
 Vibration    23          0.818              1.338              0.765
 Vibration    24          0.833              1.302              0.719
 Vibration    25          0.877              1.201              0.605
 Vibration    26          0.897              1.157              0.561

                           ! Non-Optimized Parameters !
 Normal termination of Gaussian 16 at Mon Dec 14 16:48:57 2020.

 ----------------------------------------------------------------------
 # B3LYP/6-311++G(d,p) empiricaldispersion=gd3bj scf=xqc pop=npa geom=c
 heck
 ----------------------------------------------------------------------

 --------------------------------------
 CID_72183283_JID_7452_Energie_neutraal
 --------------------------------------
 Structure from the checkpoint file:  "JID_7452.chk"
 Charge =  0 Multiplicity = 1

 SCF Done:  E(RB3LYP) =  -875.408210662     A.U. after   17 cycles
 Normal termination of Gaussian 16 at Mon Dec 14 16:54:27 2020.

 ----------------------------------------------------------------------
 # B3LYP/6-311++G(d,p) empiricaldispersion=gd3bj scf=xqc pop=npa geom=c
 heck
 ----------------------------------------------------------------------

 ------------------------------------
 CID_72183283_JID_7452_Energie_kation
 ------------------------------------
 Structure from the checkpoint file:  "JID_7452.chk"
 Charge =  1 Multiplicity = 2

 SCF Done:  E(UB3LYP) =  -875.084941982     A.U. after   23 cycles
 Normal termination of Gaussian 16 at Mon Dec 14 17:05:22 2020.
 Gaussian 16:  ES64L-G16RevA.03 25-Dec-2016

 ----------------------------------------------------------------------
 # B3LYP/6-311++G(d,p) empiricaldispersion=gd3bj scf=xqc pop=npa geom=c
 heck
 ----------------------------------------------------------------------

 -----------------------------------
 CID_72183283_JID_7452_Energie_anion
 -----------------------------------
 Structure from the checkpoint file:  "JID_7452.chk"
 Charge = -1 Multiplicity = 2

                         Standard orientation:
 ---------------------------------------------------------------------
 Center     Atomic      Atomic             Coordinates (Angstroms)
 Number     Number       Type             X           Y           Z
 ---------------------------------------------------------------------
      1          6           0       -2.200876    2.456727    0.000484
      2          6           0       -2.980736    1.143478    0.000224
      3          6           0       -3.815478    0.998651    1.272243
      4          6           0       -3.815812    0.999403   -1.271657
      5          8           0       -1.898277    0.135529   -0.000131
      6          6           0       -2.182133   -1.171346   -0.000261
      7          8           0       -3.275060   -1.700573   -0.000092
      8          7           0       -1.014829   -1.925954   -0.000870
      9          6           0        0.291512   -1.493322   -0.000422
     10          6           0        0.931866   -0.285765   -0.000784
     11          6           0        2.304701   -0.659180    0.000059
     12          7           0        2.490188   -1.964715    0.000568
     13          8           0        1.194901   -2.499209    0.000427
     14          6           0        3.492485    0.237862    0.000144
     15          8           0        4.646681   -0.120977    0.000750
     16          8           0        3.094529    1.530088   -0.000456
     17          6           0        4.164186    2.489185   -0.000351
     18          1           0       -2.895856    3.302052    0.000798
     19          1           0       -1.566964    2.529587   -0.888887
     20          1           0       -1.566736    2.529125    0.889730
     21          1           0       -4.537320    1.820424    1.326760
     22          1           0       -4.358285    0.052697    1.281250
     23          1           0       -3.171918    1.050424    2.156669
     24          1           0       -3.172511    1.051671   -2.156241
     25          1           0       -4.358688    0.053499   -1.281075
     26          1           0       -4.537617    1.821262   -1.325479
     27          1           0       -1.165297   -2.926574   -0.001098
     28          1           0        0.509040    0.701024   -0.001335
     29          1           0        4.787211    2.365114    0.889034
     30          1           0        4.786839    2.365673   -0.890087
     31          1           0        3.680100    3.465670    0.000024
 ---------------------------------------------------------------------

 SCF Done:  E(UB3LYP) =  -875.411761757     A.U. after   33 cycles
 SCF Done:  E(UB3LYP) =  -875.412289109     a.u. after    3 cycles

 The electronic state is 2-A.
 Alpha  occ. eigenvalues --  -19.07375 -19.07309 -19.04251 -19.00902 -18.96749
 Alpha  occ. eigenvalues --  -14.26586 -14.20892 -10.23607 -10.16018 -10.15487
 Alpha  occ. eigenvalues --  -10.15424 -10.12197 -10.07577 -10.07445 -10.07272
 Alpha  occ. eigenvalues --  -10.07020 -10.05199  -1.02480  -1.01596  -0.98040
 Alpha  occ. eigenvalues --   -0.93407  -0.88806  -0.85381  -0.74010  -0.72534
 Alpha  occ. eigenvalues --   -0.66657  -0.62504  -0.61138  -0.61042  -0.57155
 Alpha  occ. eigenvalues --   -0.52134  -0.51719  -0.46516  -0.45005  -0.42575
 Alpha  occ. eigenvalues --   -0.42330  -0.39456  -0.38307  -0.37317  -0.36435
 Alpha  occ. eigenvalues --   -0.36271  -0.35464  -0.35200  -0.34598  -0.33936
 Alpha  occ. eigenvalues --   -0.32620  -0.30690  -0.30477  -0.30135  -0.28589
 Alpha  occ. eigenvalues --   -0.28440  -0.27441  -0.27345  -0.27072  -0.25426
 Alpha  occ. eigenvalues --   -0.24356  -0.22993  -0.21692  -0.19782  -0.19020
 Alpha  occ. eigenvalues --   -0.17523  -0.17395  -0.14999  -0.11862   0.04098
 Alpha virt. eigenvalues --    0.05400   0.07356   0.08221   0.08438   0.08802
 Alpha virt. eigenvalues --    0.09704   0.10134   0.10927   0.11118   0.11824
 Alpha virt. eigenvalues --    0.11879   0.12063   0.12271   0.13636   0.14305

  Beta  occ. eigenvalues --  -19.07303 -19.07151 -19.04156 -19.00877 -18.96510
  Beta  occ. eigenvalues --  -14.26603 -14.20318 -10.23571 -10.16017 -10.15359
  Beta  occ. eigenvalues --  -10.15256 -10.12201 -10.07553 -10.07428 -10.07247
  Beta  occ. eigenvalues --  -10.06951 -10.05243  -1.02359  -1.01237  -0.97759
  Beta  occ. eigenvalues --   -0.93373  -0.88428  -0.85312  -0.73573  -0.72385
  Beta  occ. eigenvalues --   -0.66376  -0.62347  -0.61102  -0.61002  -0.57077
  Beta  occ. eigenvalues --   -0.52027  -0.51239  -0.46337  -0.44956  -0.42429
  Beta  occ. eigenvalues --   -0.42295  -0.39330  -0.38274  -0.36875  -0.36379
  Beta  occ. eigenvalues --   -0.36025  -0.35385  -0.34977  -0.33940  -0.33723
  Beta  occ. eigenvalues --   -0.32540  -0.30606  -0.30343  -0.30018  -0.28517
  Beta  occ. eigenvalues --   -0.27576  -0.27393  -0.27191  -0.26964  -0.25399
  Beta  occ. eigenvalues --   -0.24190  -0.22461  -0.21601  -0.19699  -0.18146
  Beta  occ. eigenvalues --   -0.16849  -0.16316  -0.14767  -0.10532
  Beta virt. eigenvalues --    0.06290   0.07349   0.08446   0.08684   0.09051
  Beta virt. eigenvalues --    0.09614   0.09859   0.10577   0.10845   0.11400
  Beta virt. eigenvalues --    0.11942   0.12014   0.12065   0.12382   0.13625

 Mulliken charges and spin densities:
               1          2
     1  C   -0.114454  -0.334784
     2  C   -0.883547   0.794076
     3  C    0.225759  -0.654842
     4  C    0.425136  -0.854155
     5  O    0.070577  -0.019074
     6  C    0.306462  -0.178290
     7  O   -0.284117   0.009859
     8  N   -0.465309  -0.024776
     9  C   -0.947567  -0.032043
    10  C   -0.009680   0.188594
    11  C    0.728315  -0.142210
    12  N   -0.601341   0.271106
    13  O    0.213001   0.040847
    14  C    0.079604   0.212137
    15  O   -0.325850   0.079562
    16  O   -0.116349   0.015266
    17  C   -0.178077  -0.030663
    18  H   -0.264205   0.423624
    19  H    0.031483   0.127796
    20  H    0.083321   0.072700
    21  H   -0.188075   0.350787
    22  H    0.152975   0.032527
    23  H    0.097925   0.046874
    24  H    0.080379   0.067150
    25  H    0.084999   0.100666
    26  H   -0.260779   0.425505
    27  H    0.340238  -0.004178
    28  H    0.305703  -0.023076
    29  H    0.148340   0.014678
    30  H    0.159813   0.002153
    31  H    0.105321   0.022182
 Sum of Mulliken charges =  -1.00000   1.00000

 Dipole moment (field-independent basis, Debye):
    X=             -2.0094    Y=              1.5236    Z=              0.4386  Tot=              2.5596
 Quadrupole moment (field-independent basis, Debye-Ang):
   XX=           -192.3782   YY=           -132.3353   ZZ=           -112.1142
   XY=             28.3402   XZ=             -2.1816   YZ=              0.7815

 Summary of Natural Population Analysis:

                                       Natural Population
                Natural  -----------------------------------------------
    Atom  No    Charge         Core      Valence    Rydberg      Total
 -----------------------------------------------------------------------
      C    1   -0.29122      0.99960     2.28407    0.00755     3.29122
      C    2    0.13661      0.99954     1.85020    0.01365     2.86339
      C    3   -0.30249      0.99960     2.29646    0.00643     3.30249
      C    4   -0.30272      0.99960     2.29652    0.00660     3.30272
      O    5   -0.29530      0.99985     3.28499    0.01047     4.29530
      C    6    0.47185      0.99971     1.50370    0.02474     2.52815
      O    7   -0.33078      0.99987     3.32614    0.00477     4.33078
      N    8   -0.31978      0.99963     2.81190    0.00825     3.81978
      C    9    0.25373      0.99950     1.73076    0.01600     2.74627
      C   10   -0.18948      0.99947     2.18243    0.00757     3.18948
      C   11    0.02529      0.99956     1.95979    0.01536     2.97471
      N   12    0.01984      0.99968     2.46847    0.01201     3.48016
      O   13   -0.16710      0.99985     3.15681    0.01044     4.16710
      C   14    0.41911      0.99965     1.55779    0.02345     2.58089
      O   15   -0.28695      0.99987     3.28114    0.00594     4.28695
      O   16   -0.27637      0.99986     3.26867    0.00784     4.27637
      C   17   -0.10578      0.99961     2.09774    0.00843     3.10578
      H   18    0.10478      0.00000     0.39401    0.00121     0.39522
      H   19    0.10488      0.00000     0.39398    0.00114     0.39512
      H   20    0.10392      0.00000     0.39497    0.00112     0.39608
      H   21    0.10474      0.00000     0.39431    0.00096     0.39526
      H   22    0.11376      0.00000     0.38539    0.00085     0.38624
      H   23    0.10201      0.00000     0.39717    0.00082     0.39799
      H   24    0.10275      0.00000     0.39639    0.00086     0.39725
      H   25    0.11386      0.00000     0.38528    0.00086     0.38614
      H   26    0.10526      0.00000     0.39350    0.00124     0.39474
      H   27    0.20457      0.00000     0.29290    0.00252     0.29543
      H   28    0.12080      0.00000     0.37769    0.00151     0.37920
      H   29    0.08803      0.00000     0.41075    0.00122     0.41197
      H   30    0.08772      0.00000     0.41106    0.00121     0.41228
      H   31    0.08445      0.00000     0.41455    0.00100     0.41555
 =======================================================================
   * Total *   -0.00000     16.99446    46.79954    0.20600    64.00000

 Normal termination of Gaussian 16 at Mon Dec 14 17:50:43 2020.
