 Gaussian 16, Revision A.03,

 -----------------------------------------------------------
 # opt freq B3LYP/6-31G(d) empiricaldispersion=gd3bj scf=xqc
 -----------------------------------------------------------

 ------------------------------
 CID_65299751_JID_7953_neutraal
 ------------------------------
 Symbolic Z-matrix:
 Charge =  0 Multiplicity = 1

 SCF Done:  E(RB3LYP) =  -805.783958846     A.U. after   15 cycles
 SCF Done:  E(RB3LYP) =  -805.788968514     A.U. after   12 cycles
 SCF Done:  E(RB3LYP) =  -805.789169865     A.U. after   12 cycles
 SCF Done:  E(RB3LYP) =  -805.789592913     A.U. after   13 cycles
 SCF Done:  E(RB3LYP) =  -805.789909710     A.U. after   12 cycles
 SCF Done:  E(RB3LYP) =  -805.790073826     A.U. after   11 cycles
 SCF Done:  E(RB3LYP) =  -805.790162644     A.U. after   11 cycles
 SCF Done:  E(RB3LYP) =  -805.790215760     A.U. after   11 cycles
 SCF Done:  E(RB3LYP) =  -805.790263633     A.U. after   11 cycles
 SCF Done:  E(RB3LYP) =  -805.790313633     A.U. after   11 cycles
 SCF Done:  E(RB3LYP) =  -805.790455188     A.U. after    7 cycles
 SCF Done:  E(RB3LYP) =  -805.790455214     A.U. after    7 cycles
 SCF Done:  E(RB3LYP) =  -805.790455285     A.U. after    7 cycles
 SCF Done:  E(RB3LYP) =  -805.790455361     A.U. after    7 cycles
 SCF Done:  E(RB3LYP) =  -805.790455408     A.U. after    7 cycles
 SCF Done:  E(RB3LYP) =  -805.790455432     A.U. after    6 cycles
 Optimization completed.
    -- Stationary point found.
 Normal termination of Gaussian 16 at Fri Dec 11 13:41:52 2020.

 --------------------------------------------------------------------
 #N Geom=AllCheck Guess=TCheck SCRF=Check GenChk RB3LYP/6-31G(d) Freq
 --------------------------------------------------------------------

 Structure from the checkpoint file:  "JID_7953.chk"
 ------------------------------
 CID_65299751_JID_7953_neutraal
 ------------------------------
 Charge =  0 Multiplicity = 1

 SCF Done:  E(RB3LYP) =  -805.790455432     A.U. after    1 cycles

  Exact polarizability: 169.031   4.539 136.243   2.302  -0.591 125.358
 Approx polarizability: 202.284  12.652 209.494   1.062  -6.905 198.183

                      1                      2                      3
                      A                      A                      A
 Frequencies --      6.6432                39.1060                54.4233
 Red. masses --      5.0064                 3.4859                 5.7031
 Frc consts  --      0.0001                 0.0031                 0.0100
 IR Inten    --      0.9354                 0.3665                 0.4327

                      4                      5                      6
                      A                      A                      A
 Frequencies --     63.5733                97.0978               121.3517
 Red. masses --      3.7427                 7.2928                 1.6069
 Frc consts  --      0.0089                 0.0405                 0.0139
 IR Inten    --      3.1175                 0.3095                 0.5554

                      7                      8                      9
                      A                      A                      A
 Frequencies --    130.5786               159.5543               169.6552
 Red. masses --      2.5623                 4.0939                 3.5501
 Frc consts  --      0.0257                 0.0614                 0.0602
 IR Inten    --      1.5939                 0.7093                 0.4219

                     10                     11                     12
                      A                      A                      A
 Frequencies --    203.8416               229.2379               242.6960
 Red. masses --      2.7166                 1.7049                 1.4736
 Frc consts  --      0.0665                 0.0528                 0.0511
 IR Inten    --      0.9074                 0.3489                 1.5301

                     13                     14                     15
                      A                      A                      A
 Frequencies --    255.5950               262.7885               274.8536
 Red. masses --      2.3897                 2.3118                 1.3953
 Frc consts  --      0.0920                 0.0941                 0.0621
 IR Inten    --      3.2269                 2.7837                 0.7679

                     16                     17                     18
                      A                      A                      A
 Frequencies --    304.5229               329.4974               344.6977
 Red. masses --      2.7604                 3.3255                 2.8925
 Frc consts  --      0.1508                 0.2127                 0.2025
 IR Inten    --     10.3717                 0.4643                 4.7473

                     19                     20                     21
                      A                      A                      A
 Frequencies --    385.6663               393.5880               414.2648
 Red. masses --      1.9736                 2.4802                 2.3129
 Frc consts  --      0.1730                 0.2264                 0.2339
 IR Inten    --      0.9671                 1.8093                 0.5788

                     22                     23                     24
                      A                      A                      A
 Frequencies --    452.7381               462.6636               488.6736
 Red. masses --      2.6459                 3.1821                 3.4201
 Frc consts  --      0.3195                 0.4013                 0.4812
 IR Inten    --      3.9762                16.2475                 3.0751

                     25                     26                     27
                      A                      A                      A
 Frequencies --    517.2030               522.7604               557.5312
 Red. masses --      2.8993                 1.8918                 2.6389
 Frc consts  --      0.4569                 0.3046                 0.4833
 IR Inten    --     13.6084                25.0053                22.2243

                     28                     29                     30
                      A                      A                      A
 Frequencies --    583.2328               613.0060               652.3166
 Red. masses --      1.4701                 4.1239                 2.8870
 Frc consts  --      0.2946                 0.9130                 0.7238
 IR Inten    --     84.2711                19.2760                 6.0230

                     31                     32                     33
                      A                      A                      A
 Frequencies --    714.8778               738.8312               759.0464
 Red. masses --      3.9828                 3.0445                 3.4351
 Frc consts  --      1.1992                 0.9792                 1.1661
 IR Inten    --      8.4231                11.9444                78.3475

                     34                     35                     36
                      A                      A                      A
 Frequencies --    792.3250               816.3440               827.4521
 Red. masses --      3.7570                 1.6246                 2.3830
 Frc consts  --      1.3896                 0.6379                 0.9613
 IR Inten    --     17.2832                 1.3673                39.5772

                     37                     38                     39
                      A                      A                      A
 Frequencies --    846.1702               884.1636               892.8794
 Red. masses --      3.1160                 2.3975                 2.3971
 Frc consts  --      1.3145                 1.1042                 1.1259
 IR Inten    --     13.4030                 3.1792                 0.6294

                     40                     41                     42
                      A                      A                      A
 Frequencies --    908.9419               933.5771               966.5336
 Red. masses --      2.2729                 1.9263                 2.0874
 Frc consts  --      1.1064                 0.9892                 1.1489
 IR Inten    --      0.8134                 3.1890                 3.8045

                     43                     44                     45
                      A                      A                      A
 Frequencies --    969.1243              1012.2064              1036.2838
 Red. masses --      1.5583                 1.8205                 1.4608
 Frc consts  --      0.8623                 1.0990                 0.9243
 IR Inten    --      0.4948                 3.2865                 0.3261

                     46                     47                     48
                      A                      A                      A
 Frequencies --   1047.6675              1064.4923              1074.4841
 Red. masses --      1.3696                 2.0744                 1.8188
 Frc consts  --      0.8857                 1.3849                 1.2372
 IR Inten    --     10.6388                27.7880                17.6929

                     49                     50                     51
                      A                      A                      A
 Frequencies --   1106.9801              1128.2406              1132.0468
 Red. masses --      1.9226                 1.7287                 1.7943
 Frc consts  --      1.3881                 1.2965                 1.3548
 IR Inten    --     12.0349                15.7569                60.0794

                     52                     53                     54
                      A                      A                      A
 Frequencies --   1150.2054              1154.4217              1161.4173
 Red. masses --      2.8319                 1.3506                 2.5652
 Frc consts  --      2.2074                 1.0604                 2.0387
 IR Inten    --    147.0057                 9.7174               108.6237

                     55                     56                     57
                      A                      A                      A
 Frequencies --   1197.8322              1201.7498              1205.1973
 Red. masses --      1.2903                 2.0351                 1.7601
 Frc consts  --      1.0908                 1.7317                 1.5063
 IR Inten    --      3.1579                52.4097                 4.0868

                     58                     59                     60
                      A                      A                      A
 Frequencies --   1223.7577              1245.4418              1249.1623
 Red. masses --      1.1809                 2.3946                 2.6608
 Frc consts  --      1.0420                 2.1885                 2.4463
 IR Inten    --     13.2710                24.1001                12.0993

                     61                     62                     63
                      A                      A                      A
 Frequencies --   1304.4993              1310.7497              1334.6440
 Red. masses --      1.6010                 1.4946                 1.3435
 Frc consts  --      1.6052                 1.5129                 1.4100
 IR Inten    --     11.5188                 7.4755                24.6798

                     64                     65                     66
                      A                      A                      A
 Frequencies --   1341.5231              1360.4743              1366.0805
 Red. masses --      1.5304                 1.5480                 1.3779
 Frc consts  --      1.6227                 1.6881                 1.5150
 IR Inten    --      5.9542                 8.1009                25.8939

                     67                     68                     69
                      A                      A                      A
 Frequencies --   1382.7933              1391.1382              1404.9588
 Red. masses --      2.2779                 1.4002                 1.5663
 Frc consts  --      2.5663                 1.5966                 1.8216
 IR Inten    --     14.8744                 2.7001                18.6329

                     70                     71                     72
                      A                      A                      A
 Frequencies --   1418.7055              1430.5928              1441.4806
 Red. masses --      1.4967                 1.2671                 1.8799
 Frc consts  --      1.7749                 1.5279                 2.3014
 IR Inten    --     38.5735                 1.2770               130.4259

                     73                     74                     75
                      A                      A                      A
 Frequencies --   1452.5979              1457.7647              1493.4071
 Red. masses --      1.2573                 1.4713                 1.2440
 Frc consts  --      1.5631                 1.8421                 1.6347
 IR Inten    --     15.8589                21.0845                 9.3512

                     76                     77                     78
                      A                      A                      A
 Frequencies --   1501.1396              1506.9314              1507.8863
 Red. masses --      1.2426                 1.0689                 1.1396
 Frc consts  --      1.6498                 1.4302                 1.5267
 IR Inten    --      8.2263                 3.5447                 4.3927

                     79                     80                     81
                      A                      A                      A
 Frequencies --   1515.2503              1518.2568              1521.8787
 Red. masses --      1.0861                 1.0578                 1.0596
 Frc consts  --      1.4692                 1.4367                 1.4459
 IR Inten    --      7.0639                 1.9833                 5.5351

                     82                     83                     84
                      A                      A                      A
 Frequencies --   1529.7276              1531.3537              1540.3691
 Red. masses --      1.0532                 1.1185                 1.0991
 Frc consts  --      1.4520                 1.5454                 1.5365
 IR Inten    --      6.3960                 3.2833                17.3858

                     85                     86                     87
                      A                      A                      A
 Frequencies --   1541.6436              1546.4395              1557.2267
 Red. masses --      1.0733                 1.0791                 1.0718
 Frc consts  --      1.5029                 1.5204                 1.5314
 IR Inten    --     15.6688                14.2246                16.8489

                     88                     89                     90
                      A                      A                      A
 Frequencies --   1728.7873              1845.8178              2917.6600
 Red. masses --     10.4721                10.0712                 1.0734
 Frc consts  --     18.4402                20.2166                 5.3838
 IR Inten    --    222.1306               240.2007                74.3839

                     91                     92                     93
                      A                      A                      A
 Frequencies --   2960.1503              3037.6221              3052.4772
 Red. masses --      1.0721                 1.0565                 1.0363
 Frc consts  --      5.5347                 5.7434                 5.6889
 IR Inten    --     80.5236                55.0892                20.5713

                     94                     95                     96
                      A                      A                      A
 Frequencies --   3058.7034              3059.8695              3064.1710
 Red. masses --      1.0640                 1.0395                 1.0684
 Frc consts  --      5.8648                 5.7343                 5.9104
 IR Inten    --     10.5030                22.2595                16.1027

                     97                     98                     99
                      A                      A                      A
 Frequencies --   3077.3366              3085.2550              3097.2001
 Red. masses --      1.0859                 1.0874                 1.0605
 Frc consts  --      6.0590                 6.0985                 5.9936
 IR Inten    --     60.8723                49.9225                11.6611

                    100                    101                    102
                      A                      A                      A
 Frequencies --   3098.1488              3109.8639              3117.5990
 Red. masses --      1.1026                 1.0859                 1.1023
 Frc consts  --      6.2353                 6.1875                 6.3125
 IR Inten    --     27.6867                16.6810                18.3654

                    103                    104                    105
                      A                      A                      A
 Frequencies --   3131.0435              3133.9618              3138.1730
 Red. masses --      1.0977                 1.0971                 1.1017
 Frc consts  --      6.3405                 6.3489                 6.3922
 IR Inten    --     20.6901                17.0981                15.7942

                    106                    107                    108
                      A                      A                      A
 Frequencies --   3143.7966              3150.3556              3153.9008
 Red. masses --      1.1015                 1.1027                 1.0819
 Frc consts  --      6.4143                 6.4477                 6.3404
 IR Inten    --     14.1508                23.1029                29.8856

                    109                    110                    111
                      A                      A                      A
 Frequencies --   3186.9828              3500.8041              3699.4142
 Red. masses --      1.1001                 1.0746                 1.0641
 Frc consts  --      6.5833                 7.7598                 8.5803
 IR Inten    --     19.0415                 2.2689                57.6651

 - Thermochemistry -
 -------------------
 Temperature   298.150 Kelvin.  Pressure   1.00000 Atm.
 Atom     1 has atomic number  6 and mass  12.00000

 Molecular mass:   242.16304 amu.
 Principal axes and moments of inertia in atomic units:
                           1         2         3
     Eigenvalues --  1677.244347785.367908198.68981
           X            0.99994  -0.00956   0.00540
           Y            0.00948   0.99985   0.01460
           Z           -0.00554  -0.01455   0.99988
 This molecule is an asymmetric top.
 Rotational symmetry number  1.
 Warning -- assumption of classical behavior for rotation
           may cause significant error
 Rotational temperatures (Kelvin)      0.05164     0.01113     0.01056
 Rotational constants (GHZ):           1.07602     0.23181     0.22013
 Zero-point vibrational energy     906373.5 (Joules/Mol)
                                  216.62847 (Kcal/Mol)
 Warning -- explicit consideration of  29 degrees of freedom as
           vibrations may cause significant error
 Vibrational temperatures:      9.56    56.26    78.30    91.47   139.70
          (Kelvin)            174.60   187.87   229.56   244.10   293.28
                              329.82   349.19   367.74   378.09   395.45
                              438.14   474.07   495.94   554.89   566.29
                              596.03   651.39   665.67   703.09   744.14
                              752.14   802.16   839.14   881.98   938.54
                             1028.55  1063.01  1092.10  1139.98  1174.54
                             1190.52  1217.45  1272.11  1284.65  1307.76
                             1343.21  1390.63  1394.35  1456.34  1490.98
                             1507.36  1531.57  1545.94  1592.70  1623.29
                             1628.76  1654.89  1660.96  1671.02  1723.41
                             1729.05  1734.01  1760.71  1791.91  1797.27
                             1876.88  1885.88  1920.26  1930.15  1957.42
                             1965.49  1989.53  2001.54  2021.42  2041.20
                             2058.30  2073.97  2089.96  2097.40  2148.68
                             2159.81  2168.14  2169.51  2180.11  2184.43
                             2189.64  2200.94  2203.28  2216.25  2218.08
                             2224.98  2240.50  2487.34  2655.72  4197.86
                             4259.00  4370.46  4391.83  4400.79  4402.47
                             4408.66  4427.60  4438.99  4456.18  4457.55
                             4474.40  4485.53  4504.87  4509.07  4515.13
                             4523.22  4532.66  4537.76  4585.36  5036.88
                             5322.63

 Zero-point correction=                           0.345219 (Hartree/Particle)
 Thermal correction to Energy=                    0.363130
 Thermal correction to Enthalpy=                  0.364074
 Thermal correction to Gibbs Free Energy=         0.297841
 Sum of electronic and zero-point Energies=           -805.445236
 Sum of electronic and thermal Energies=              -805.427326
 Sum of electronic and thermal Enthalpies=            -805.426382
 Sum of electronic and thermal Free Energies=         -805.492614

                     E (Thermal)             CV                S
                      KCal/Mol        Cal/Mol-Kelvin    Cal/Mol-Kelvin
 Total                  227.867             68.233            139.398
 Electronic               0.000              0.000              0.000
 Translational            0.889              2.981             42.354
 Rotational               0.889              2.981             33.037
 Vibrational            226.090             62.272             64.006
 Vibration     1          0.593              1.987              8.824
 Vibration     2          0.594              1.981              5.304
 Vibration     3          0.596              1.976              4.650
 Vibration     4          0.597              1.972              4.343
 Vibration     5          0.603              1.951              3.512
 Vibration     6          0.609              1.931              3.079
 Vibration     7          0.612              1.923              2.938
 Vibration     8          0.621              1.892              2.555
 Vibration     9          0.625              1.880              2.439
 Vibration    10          0.640              1.834              2.098
 Vibration    11          0.652              1.796              1.885
 Vibration    12          0.659              1.775              1.783
 Vibration    13          0.666              1.753              1.692
 Vibration    14          0.670              1.741              1.643
 Vibration    15          0.677              1.720              1.565
 Vibration    16          0.695              1.665              1.392
 Vibration    17          0.712              1.617              1.263
 Vibration    18          0.723              1.586              1.190
 Vibration    19          0.754              1.501              1.017
 Vibration    20          0.761              1.484              0.987
 Vibration    21          0.778              1.439              0.912
 Vibration    22          0.811              1.355              0.788
 Vibration    23          0.820              1.333              0.758
 Vibration    24          0.845              1.275              0.687
 Vibration    25          0.872              1.212              0.616
 Vibration    26          0.878              1.200              0.604
 Vibration    27          0.913              1.123              0.529
 Vibration    28          0.940              1.068              0.479
 Vibration    29          0.972              1.004              0.428

 Optimization completed.
    -- Stationary point found.
 Normal termination of Gaussian 16 at Fri Dec 11 13:57:00 2020.

 ----------------------------------------------------------------------
 # B3LYP/6-311++G(d,p) empiricaldispersion=gd3bj scf=xqc pop=npa geom=c
 heck
 ----------------------------------------------------------------------

 --------------------------------------
 CID_65299751_JID_7953_Energie_neutraal
 --------------------------------------
 Structure from the checkpoint file:  "JID_7953.chk"
 Charge =  0 Multiplicity = 1

 SCF Done:  E(RB3LYP) =  -806.032486942     A.U. after   16 cycles
 Normal termination of Gaussian 16 at Fri Dec 11 14:05:28 2020.

 ----------------------------------------------------------------------
 # B3LYP/6-311++G(d,p) empiricaldispersion=gd3bj scf=xqc pop=npa geom=c
 heck
 ----------------------------------------------------------------------

 ------------------------------------
 CID_65299751_JID_7953_Energie_kation
 ------------------------------------
 Structure from the checkpoint file:  "JID_7953.chk"
 Charge =  1 Multiplicity = 2

 SCF Done:  E(UB3LYP) =  -805.730243817     A.U. after   27 cycles
 Normal termination of Gaussian 16 at Fri Dec 11 14:25:46 2020.
 Gaussian 16:  ES64L-G16RevA.03 25-Dec-2016

 ----------------------------------------------------------------------
 # B3LYP/6-311++G(d,p) empiricaldispersion=gd3bj scf=xqc pop=npa geom=c
 heck
 ----------------------------------------------------------------------

 -----------------------------------
 CID_65299751_JID_7953_Energie_anion
 -----------------------------------
 Structure from the checkpoint file:  "JID_7953.chk"
 Charge = -1 Multiplicity = 2

                         Standard orientation:
 ---------------------------------------------------------------------
 Center     Atomic      Atomic             Coordinates (Angstroms)
 Number     Number       Type             X           Y           Z
 ---------------------------------------------------------------------
      1          6           0       -2.386611    1.577325    0.962879
      2          6           0       -2.728105    0.620671   -0.186055
      3          6           0       -3.832952    1.228341   -1.074973
      4          6           0       -1.479670    0.338829   -1.063035
      5          6           0       -0.355577   -0.297765   -0.251187
      6          8           0       -0.538803   -1.428075    0.204455
      7          7           0        0.818971    0.377241   -0.033113
      8          6           0        1.058261    1.735923   -0.499248
      9          6           0        1.860222   -0.400976    0.692753
     10          6           0        2.952948    0.445607    1.367331
     11          6           0        4.079955    0.907728    0.430979
     12          7           0        4.612248   -0.240117   -0.301650
     13          6           0        3.581090   -0.872417   -1.126922
     14          6           0        2.508460   -1.464941   -0.216002
     15          6           0       -3.257283   -0.689978    0.400564
     16          8           0       -3.465835   -0.901228    1.573395
     17          8           0       -3.554430   -1.594623   -0.565338
     18          1           0       -2.029145    2.532977    0.562209
     19          1           0       -1.616001    1.156444    1.614132
     20          1           0       -3.267851    1.769917    1.579993
     21          1           0       -3.497649    2.188868   -1.482451
     22          1           0       -4.082439    0.564696   -1.907136
     23          1           0       -4.743426    1.408372   -0.493035
     24          1           0       -1.746335   -0.395523   -1.827937
     25          1           0       -1.198960    1.258385   -1.579681
     26          1           0        1.684512    2.268470    0.215498
     27          1           0        1.556179    1.766445   -1.477665
     28          1           0        0.122251    2.287773   -0.564139
     29          1           0        1.307155   -0.928613    1.472364
     30          1           0        2.521133    1.296733    1.906470
     31          1           0        3.407954   -0.203777    2.123776
     32          1           0        3.719999    1.702934   -0.246674
     33          1           0        4.886663    1.343558    1.031545
     34          1           0        5.387899    0.061844   -0.886724
     35          1           0        4.049093   -1.666232   -1.719294
     36          1           0        3.113447   -0.165951   -1.842475
     37          1           0        2.984264   -2.214754    0.427538
     38          1           0        1.730699   -1.972408   -0.791475
     39          1           0       -3.839851   -2.398702   -0.094091
 ---------------------------------------------------------------------

 SCF Done:  E(UB3LYP) =  -806.023735984     A.U. after   31 cycles

 The electronic state is 2-A.
 Alpha  occ. eigenvalues --  -19.08311 -19.02623 -18.98891 -14.24944 -14.20017
 Alpha  occ. eigenvalues --  -10.21619 -10.17467 -10.11795 -10.11308 -10.10371
 Alpha  occ. eigenvalues --  -10.09462 -10.09404 -10.08930 -10.08223 -10.07786
 Alpha  occ. eigenvalues --  -10.07101 -10.06715  -1.02316  -0.94320  -0.93312
 Alpha  occ. eigenvalues --   -0.84033  -0.81281  -0.74657  -0.69218  -0.66063
 Alpha  occ. eigenvalues --   -0.62992  -0.61388  -0.60674  -0.57482  -0.54554
 Alpha  occ. eigenvalues --   -0.52989  -0.48898  -0.47105  -0.42994  -0.42645
 Alpha  occ. eigenvalues --   -0.41697  -0.40557  -0.39392  -0.38165  -0.37469
 Alpha  occ. eigenvalues --   -0.37151  -0.35771  -0.35066  -0.34307  -0.33720
 Alpha  occ. eigenvalues --   -0.33160  -0.31960  -0.31161  -0.30515  -0.30192
 Alpha  occ. eigenvalues --   -0.29805  -0.29401  -0.28829  -0.28452  -0.27483
 Alpha  occ. eigenvalues --   -0.26290  -0.25676  -0.25514  -0.24737  -0.23846
 Alpha  occ. eigenvalues --   -0.22925  -0.22161  -0.19177  -0.16084  -0.14838
 Alpha  occ. eigenvalues --   -0.13331   0.03954
 Alpha virt. eigenvalues --    0.05923   0.06757   0.07288   0.07827   0.08134
 Alpha virt. eigenvalues --    0.08255   0.08791   0.09506   0.09861   0.10076
 Alpha virt. eigenvalues --    0.10304   0.10665   0.11543   0.12020   0.12292

  Beta  occ. eigenvalues --  -19.08306 -19.02620 -18.98889 -14.24938 -14.19994
  Beta  occ. eigenvalues --  -10.21617 -10.17466 -10.11794 -10.11308 -10.10321
  Beta  occ. eigenvalues --  -10.09435 -10.09384 -10.08913 -10.08196 -10.07774
  Beta  occ. eigenvalues --  -10.07078 -10.06712  -1.02310  -0.94315  -0.93306
  Beta  occ. eigenvalues --   -0.84018  -0.81248  -0.74643  -0.69196  -0.66029
  Beta  occ. eigenvalues --   -0.62957  -0.61325  -0.60631  -0.57454  -0.54518
  Beta  occ. eigenvalues --   -0.52947  -0.48856  -0.47069  -0.42932  -0.42615
  Beta  occ. eigenvalues --   -0.41651  -0.40544  -0.39366  -0.38138  -0.37435
  Beta  occ. eigenvalues --   -0.37124  -0.35747  -0.35040  -0.34278  -0.33697
  Beta  occ. eigenvalues --   -0.33141  -0.31923  -0.31135  -0.30483  -0.30159
  Beta  occ. eigenvalues --   -0.29780  -0.29372  -0.28802  -0.28427  -0.27450
  Beta  occ. eigenvalues --   -0.26264  -0.25648  -0.25495  -0.24716  -0.23836
  Beta  occ. eigenvalues --   -0.22902  -0.22130  -0.19166  -0.16074  -0.14818
  Beta  occ. eigenvalues --   -0.13279
  Beta virt. eigenvalues --    0.06104   0.06676   0.07280   0.07860   0.08127
  Beta virt. eigenvalues --    0.08454   0.08567   0.09050   0.09972   0.10104
  Beta virt. eigenvalues --    0.10466   0.10617   0.11122   0.11616   0.12183

 Mulliken charges and spin densities:
               1          2
     1  C   -0.071337  -0.634624
     2  C   -1.314546   2.133750
     3  C    0.874896  -1.402469
     4  C    2.131858  -2.433417
     5  C   -2.139810   1.270172
     6  O   -0.214872  -0.002830
     7  N    0.095799   0.192824
     8  C    1.082611  -1.475575
     9  C    0.342112  -0.283488
    10  C   -1.050874   0.492372
    11  C    0.851011  -1.154353
    12  N   -0.322453   0.187523
    13  C    0.340114  -0.764934
    14  C   -0.370109   0.224122
    15  C    0.189042  -0.451531
    16  O   -0.244388   0.015241
    17  O   -0.147793   0.018839
    18  H   -0.155429   0.297374
    19  H    0.189905   0.026183
    20  H    0.105953   0.075205
    21  H   -0.284094   0.449960
    22  H   -0.021053   0.179792
    23  H    0.035420   0.114876
    24  H    0.151272   0.100983
    25  H   -0.009558   0.180691
    26  H   -0.211929   0.381022
    27  H   -0.506405   0.710354
    28  H   -0.125989   0.279346
    29  H    0.154755   0.086199
    30  H   -0.034001   0.203132
    31  H    0.136839   0.016688
    32  H   -0.256907   0.393017
    33  H   -0.428436   0.607667
    34  H   -0.126721   0.377039
    35  H   -0.055136   0.237937
    36  H   -0.113707   0.238689
    37  H    0.138605   0.010235
    38  H    0.122244   0.078485
    39  H    0.263108   0.023506
 Sum of Mulliken charges =  -1.00000   1.00000

 Dipole moment (field-independent basis, Debye):
    X=             -4.5760    Y=             -4.8152    Z=              1.4945  Tot=              6.8088
 Quadrupole moment (field-independent basis, Debye-Ang):
   XX=           -191.1439   YY=           -151.5099   ZZ=           -143.3280
   XY=             -3.2367   XZ=              7.0413   YZ=              7.8411

 Summary of Natural Population Analysis:

                                       Natural Population
                Natural  -----------------------------------------------
    Atom  No    Charge         Core      Valence    Rydberg      Total
 -----------------------------------------------------------------------
      C    1   -0.28646      0.99963     2.27885    0.00798     3.28646
      C    2   -0.07821      0.99953     2.06645    0.01223     3.07821
      C    3   -0.28069      0.99963     2.27364    0.00742     3.28069
      C    4   -0.22787      0.99956     2.21738    0.01093     3.22787
      C    5    0.34659      0.99963     1.63002    0.02377     2.65341
      O    6   -0.33288      0.99988     3.32792    0.00508     4.33288
      N    7   -0.25430      0.99963     2.74258    0.01209     3.75430
      C    8   -0.17707      0.99961     2.16853    0.00893     3.17707
      C    9   -0.00481      0.99956     1.99227    0.01299     3.00481
      C   10   -0.20182      0.99961     2.19283    0.00938     3.20182
      C   11   -0.08961      0.99962     2.07853    0.01146     3.08961
      N   12   -0.34307      0.99974     2.83081    0.01252     3.84307
      C   13   -0.09046      0.99962     2.07963    0.01121     3.09046
      C   14   -0.19651      0.99959     2.18914    0.00778     3.19651
      C   15    0.41874      0.99963     1.55252    0.02911     2.58126
      O   16   -0.30624      0.99986     3.30027    0.00610     4.30624
      O   17   -0.34711      0.99987     3.34103    0.00621     4.34711
      H   18    0.10119      0.00000     0.39766    0.00115     0.39881
      H   19    0.10828      0.00000     0.39067    0.00105     0.39172
      H   20    0.10574      0.00000     0.39341    0.00085     0.39426
      H   21    0.10508      0.00000     0.39370    0.00121     0.39492
      H   22    0.10554      0.00000     0.39323    0.00123     0.39446
      H   23    0.10080      0.00000     0.39819    0.00101     0.39920
      H   24    0.11884      0.00000     0.37964    0.00152     0.38116
      H   25    0.10845      0.00000     0.38995    0.00160     0.39155
      H   26    0.10231      0.00000     0.39587    0.00182     0.39769
      H   27    0.09627      0.00000     0.40147    0.00226     0.40373
      H   28    0.10252      0.00000     0.39565    0.00183     0.39748
      H   29    0.11164      0.00000     0.38687    0.00148     0.38836
      H   30    0.10427      0.00000     0.39477    0.00096     0.39573
      H   31    0.10483      0.00000     0.39401    0.00116     0.39517
      H   32    0.08171      0.00000     0.41562    0.00267     0.41829
      H   33    0.09598      0.00000     0.40267    0.00135     0.40402
      H   34    0.17725      0.00000     0.31946    0.00330     0.32275
      H   35    0.09478      0.00000     0.40423    0.00099     0.40522
      H   36    0.07939      0.00000     0.41867    0.00194     0.42061
      H   37    0.09888      0.00000     0.39996    0.00116     0.40112
      H   38    0.10929      0.00000     0.38979    0.00092     0.39071
      H   39    0.23872      0.00000     0.25800    0.00329     0.26128
 =======================================================================
   * Total *   -0.00000     16.99419    48.77589    0.22991    66.00000

 Normal termination of Gaussian 16 at Fri Dec 11 14:48:37 2020.
