 Gaussian 16, Revision A.03,

 -----------------------------------------------------------
 # opt freq B3LYP/6-31G(d) empiricaldispersion=gd3bj scf=xqc
 -----------------------------------------------------------

 ------------------------------
 CID_57475456_JID_1633_neutraal
 ------------------------------
 Symbolic Z-matrix:
 Charge =  0 Multiplicity = 1

 SCF Done:  E(RB3LYP) =  -474.539022043     A.U. after   15 cycles
 SCF Done:  E(RB3LYP) =  -474.542219962     A.U. after   13 cycles
 SCF Done:  E(RB3LYP) =  -474.542771770     A.U. after   13 cycles
 SCF Done:  E(RB3LYP) =  -474.543518365     A.U. after   12 cycles
 SCF Done:  E(RB3LYP) =  -474.543714860     A.U. after   12 cycles
 SCF Done:  E(RB3LYP) =  -474.543769130     A.U. after   12 cycles
 SCF Done:  E(RB3LYP) =  -474.543787427     A.U. after   11 cycles
 SCF Done:  E(RB3LYP) =  -474.543798672     A.U. after   10 cycles
 SCF Done:  E(RB3LYP) =  -474.543802059     A.U. after    9 cycles
 SCF Done:  E(RB3LYP) =  -474.543805826     A.U. after   10 cycles
 SCF Done:  E(RB3LYP) =  -474.543808760     A.U. after   10 cycles
 SCF Done:  E(RB3LYP) =  -474.543809401     A.U. after    9 cycles
 Optimization completed.
    -- Stationary point found.
 Normal termination of Gaussian 16 at Tue Dec  8 20:35:06 2020.

 --------------------------------------------------------------------
 #N Geom=AllCheck Guess=TCheck SCRF=Check GenChk RB3LYP/6-31G(d) Freq
 --------------------------------------------------------------------

 Structure from the checkpoint file:  "JID_1633.chk"
 ------------------------------
 CID_57475456_JID_1633_neutraal
 ------------------------------
 Charge =  0 Multiplicity = 1

 SCF Done:  E(RB3LYP) =  -474.543809401     A.U. after    1 cycles

  Exact polarizability: 138.713  -0.023 121.356  -1.341  -2.231  43.797
 Approx polarizability: 229.086  -5.346 200.738  -5.499  -5.553  66.342

                      1                      2                      3
                      A                      A                      A
 Frequencies --     49.9118               136.3960               165.6542
 Red. masses --      3.6848                 3.0140                 8.6198
 Frc consts  --      0.0054                 0.0330                 0.1394
 IR Inten    --      3.4671                 5.2770                 4.9345

                      4                      5                      6
                      A                      A                      A
 Frequencies --    198.9532               221.3331               260.3928
 Red. masses --      2.5634                 1.6930                 1.6618
 Frc consts  --      0.0598                 0.0489                 0.0664
 IR Inten    --      1.8203                 1.6141                 4.0274

                      7                      8                      9
                      A                      A                      A
 Frequencies --    290.5945               307.4878               349.4510
 Red. masses --      2.4926                 1.8236                 3.3694
 Frc consts  --      0.1240                 0.1016                 0.2424
 IR Inten    --      2.5428                 4.3750                 6.7402

                     10                     11                     12
                      A                      A                      A
 Frequencies --    418.5765               436.2196               497.9600
 Red. masses --      5.4883                 5.9501                 4.2779
 Frc consts  --      0.5665                 0.6671                 0.6250
 IR Inten    --      1.6521                10.3956                22.9421

                     13                     14                     15
                      A                      A                      A
 Frequencies --    538.9040               558.6653               591.6290
 Red. masses --      7.2006                 3.9845                 5.0848
 Frc consts  --      1.2321                 0.7327                 1.0486
 IR Inten    --      4.5060                 0.2891                 1.8078

                     16                     17                     18
                      A                      A                      A
 Frequencies --    607.3680               664.1221               712.3533
 Red. masses --      4.9110                 2.8017                 1.9279
 Frc consts  --      1.0674                 0.7281                 0.5764
 IR Inten    --      6.8610                51.2875                27.8811

                     19                     20                     21
                      A                      A                      A
 Frequencies --    738.3558               777.0742               843.0969
 Red. masses --      3.1306                 1.5041                 1.9368
 Frc consts  --      1.0056                 0.5351                 0.8111
 IR Inten    --     59.1125                48.0610               157.9362

                     22                     23                     24
                      A                      A                      A
 Frequencies --    852.9447               896.3096               944.0671
 Red. masses --      2.0518                 1.4179                 1.2444
 Frc consts  --      0.8795                 0.6711                 0.6535
 IR Inten    --    113.5851                18.0835                 1.2155

                     25                     26                     27
                      A                      A                      A
 Frequencies --    993.8898              1079.8280              1123.1098
 Red. masses --      3.5206                 2.9030                 1.9046
 Frc consts  --      2.0490                 1.9944                 1.4154
 IR Inten    --      1.8111                 5.3723                 9.7164

                     28                     29                     30
                      A                      A                      A
 Frequencies --   1150.8139              1163.7215              1195.1951
 Red. masses --      1.3549                 1.4052                 1.2640
 Frc consts  --      1.0572                 1.1212                 1.0638
 IR Inten    --     25.1824                 3.9061                 2.1135

                     31                     32                     33
                      A                      A                      A
 Frequencies --   1204.8165              1277.4974              1298.0575
 Red. masses --      1.6645                 2.3714                 4.1950
 Frc consts  --      1.4236                 2.2803                 4.1646
 IR Inten    --      2.1722                30.9331                37.9968

                     34                     35                     36
                      A                      A                      A
 Frequencies --   1318.8320              1420.5922              1479.5779
 Red. masses --      2.3200                 3.4890                 1.5581
 Frc consts  --      2.3775                 4.1485                 2.0096
 IR Inten    --     55.6528                 7.6443                52.3221

                     37                     38                     39
                      A                      A                      A
 Frequencies --   1497.0502              1520.5140              1530.9093
 Red. masses --      1.7013                 1.0794                 2.1265
 Frc consts  --      2.2465                 1.4703                 2.9364
 IR Inten    --      8.1248                18.7562                32.6552

                     40                     41                     42
                      A                      A                      A
 Frequencies --   1536.3979              1572.0407              1635.1221
 Red. masses --      1.1639                 1.6600                 4.1295
 Frc consts  --      1.6187                 2.4171                 6.5049
 IR Inten    --      5.0628               158.3074                 1.5663

                     43                     44                     45
                      A                      A                      A
 Frequencies --   1661.1565              1692.6523              2333.9074
 Red. masses --      3.1648                 1.3650                12.6709
 Frc consts  --      5.1453                 2.3042                40.6654
 IR Inten    --     24.3182                67.4414                58.6330

                     46                     47                     48
                      A                      A                      A
 Frequencies --   3036.9913              3122.5463              3164.6953
 Red. masses --      1.0486                 1.0892                 1.1026
 Frc consts  --      5.6982                 6.2573                 6.5061
 IR Inten    --     52.4204                29.1323                10.9513

                     49                     50                     51
                      A                      A                      A
 Frequencies --   3177.1952              3209.3154              3225.7077
 Red. masses --      1.0890                 1.0888                 1.0964
 Frc consts  --      6.4767                 6.6074                 6.7215
 IR Inten    --     16.7135                 5.9892                10.3176

                     52                     53                     54
                      A                      A                      A
 Frequencies --   3479.2236              3533.9782              3595.1802
 Red. masses --      1.0531                 1.0752                 1.0908
 Frc consts  --      7.5107                 7.9115                 8.3068
 IR Inten    --      3.2614                32.4457                 8.3174

 - Thermochemistry -
 -------------------
 Temperature   298.150 Kelvin.  Pressure   1.00000 Atm.
 Atom     1 has atomic number  6 and mass  12.00000

 Molecular mass:   147.07965 amu.
 Principal axes and moments of inertia in atomic units:
                           1         2         3
     Eigenvalues --  1137.005851669.391432778.68952
           X            0.99719   0.07468   0.00600
           Y           -0.07467   0.99721  -0.00109
           Z           -0.00606   0.00064   0.99998
 This molecule is an asymmetric top.
 Rotational symmetry number  1.
 Warning -- assumption of classical behavior for rotation
           may cause significant error
 Rotational temperatures (Kelvin)      0.07618     0.05188     0.03117
 Rotational constants (GHZ):           1.58728     1.08108     0.64949
 Zero-point vibrational energy     426398.9 (Joules/Mol)
                                  101.91179 (Kcal/Mol)
 Warning -- explicit consideration of  16 degrees of freedom as
           vibrations may cause significant error
 Vibrational temperatures:     71.81   196.24   238.34   286.25   318.45
          (Kelvin)            374.65   418.10   442.41   502.78   602.24
                              627.62   716.45   775.36   803.79   851.22
                              873.87   955.52  1024.92  1062.33  1118.04
                             1213.03  1227.20  1289.59  1358.30  1429.99
                             1553.63  1615.90  1655.76  1674.34  1719.62
                             1733.46  1838.03  1867.62  1897.51  2043.92
                             2128.78  2153.92  2187.68  2202.64  2210.53
                             2261.82  2352.58  2390.03  2435.35  3357.97
                             4369.55  4492.65  4553.29  4571.28  4617.49
                             4641.07  5005.83  5084.61  5172.66

 Zero-point correction=                           0.162407 (Hartree/Particle)
 Thermal correction to Energy=                    0.172507
 Thermal correction to Enthalpy=                  0.173451
 Thermal correction to Gibbs Free Energy=         0.127102
 Sum of electronic and zero-point Energies=           -474.381403
 Sum of electronic and thermal Energies=              -474.371302
 Sum of electronic and thermal Enthalpies=            -474.370358
 Sum of electronic and thermal Free Energies=         -474.416708

                     E (Thermal)             CV                S
                      KCal/Mol        Cal/Mol-Kelvin    Cal/Mol-Kelvin
 Total                  108.250             38.653             97.551
 Electronic               0.000              0.000              0.000
 Translational            0.889              2.981             40.868
 Rotational               0.889              2.981             30.046
 Vibrational            106.472             32.692             26.638
 Vibration     1          0.595              1.978              4.821
 Vibration     2          0.614              1.917              2.854
 Vibration     3          0.624              1.885              2.484
 Vibration     4          0.637              1.841              2.143
 Vibration     5          0.648              1.809              1.948
 Vibration     6          0.668              1.745              1.659
 Vibration     7          0.687              1.691              1.470
 Vibration     8          0.697              1.659              1.376
 Vibration     9          0.727              1.576              1.169
 Vibration    10          0.781              1.430              0.897
 Vibration    11          0.797              1.391              0.839
 Vibration    12          0.853              1.255              0.663
 Vibration    13          0.894              1.164              0.568
 Vibration    14          0.914              1.121              0.527
 Vibration    15          0.949              1.050              0.464
 Vibration    16          0.966              1.016              0.437

 Optimization completed.
    -- Stationary point found.
 Normal termination of Gaussian 16 at Tue Dec  8 20:39:58 2020.

 ----------------------------------------------------------------------
 # B3LYP/6-311++G(d,p) empiricaldispersion=gd3bj scf=xqc pop=npa geom=c
 heck
 ----------------------------------------------------------------------

 --------------------------------------
 CID_57475456_JID_1633_Energie_neutraal
 --------------------------------------
 Structure from the checkpoint file:  "JID_1633.chk"
 Charge =  0 Multiplicity = 1

 SCF Done:  E(RB3LYP) =  -474.680655809     A.U. after   16 cycles
 Normal termination of Gaussian 16 at Tue Dec  8 20:43:52 2020.

 ----------------------------------------------------------------------
 # B3LYP/6-311++G(d,p) empiricaldispersion=gd3bj scf=xqc pop=npa geom=c
 heck
 ----------------------------------------------------------------------

 ------------------------------------
 CID_57475456_JID_1633_Energie_kation
 ------------------------------------
 Structure from the checkpoint file:  "JID_1633.chk"
 Charge =  1 Multiplicity = 2

 SCF Done:  E(UB3LYP) =  -474.398359469     A.U. after   22 cycles
 Normal termination of Gaussian 16 at Tue Dec  8 20:50:05 2020.
 Gaussian 16:  ES64L-G16RevA.03 25-Dec-2016

 ----------------------------------------------------------------------
 # B3LYP/6-311++G(d,p) empiricaldispersion=gd3bj scf=xqc pop=npa geom=c
 heck
 ----------------------------------------------------------------------

 -----------------------------------
 CID_57475456_JID_1633_Energie_anion
 -----------------------------------
 Structure from the checkpoint file:  "JID_1633.chk"
 Charge = -1 Multiplicity = 2

                         Standard orientation:
 ---------------------------------------------------------------------
 Center     Atomic      Atomic             Coordinates (Angstroms)
 Number     Number       Type             X           Y           Z
 ---------------------------------------------------------------------
      1          6           0        1.934531    1.922097    0.201084
      2          7           0        0.520818    1.692907   -0.066606
      3          6           0       -0.091364    0.452555   -0.029627
      4          6           0        0.551026   -0.807377   -0.016933
      5          6           0       -0.209056   -1.997909    0.051014
      6          6           0       -1.588937   -1.954252    0.105714
      7          6           0       -2.237741   -0.714255    0.046777
      8          6           0       -1.516681    0.468214   -0.032145
      9          7           0       -2.137435    1.740311   -0.058811
     10          6           0        1.970001   -0.971444   -0.084133
     11          7           0        3.112908   -1.184402   -0.152635
     12          1           0        2.554681    1.500437   -0.591181
     13          1           0        2.266806    1.497467    1.158184
     14          1           0        2.094946    3.002993    0.221845
     15          1           0       -0.087679    2.394918    0.342682
     16          1           0        0.320677   -2.944139    0.063373
     17          1           0       -2.166943   -2.870326    0.165948
     18          1           0       -3.324429   -0.667054    0.050979
     19          1           0       -3.149919    1.672450   -0.044873
     20          1           0       -1.852850    2.285772   -0.871087
 ---------------------------------------------------------------------

 SCF Done:  E(UB3LYP) =  -474.674794971     A.U. after   29 cycles

 The electronic state is 2-A.
 Alpha  occ. eigenvalues --  -14.21635 -14.19878 -14.18002 -10.10454 -10.09111
 Alpha  occ. eigenvalues --  -10.08963 -10.08420 -10.07929 -10.05906 -10.05461
 Alpha  occ. eigenvalues --  -10.04971  -0.83903  -0.78711  -0.78091  -0.72629
 Alpha  occ. eigenvalues --   -0.64447  -0.62647  -0.57749  -0.51412  -0.49101
 Alpha  occ. eigenvalues --   -0.43407  -0.42482  -0.38272  -0.36250  -0.34683
 Alpha  occ. eigenvalues --   -0.33882  -0.33389  -0.31559  -0.29089  -0.28037
 Alpha  occ. eigenvalues --   -0.26385  -0.25591  -0.23820  -0.23539  -0.20664
 Alpha  occ. eigenvalues --   -0.19296  -0.18818  -0.12112  -0.08685   0.04675
 Alpha virt. eigenvalues --    0.07021   0.07659   0.08479   0.09915   0.10698
 Alpha virt. eigenvalues --    0.11398   0.11675   0.11984   0.12764   0.14125
 Alpha virt. eigenvalues --    0.14547   0.15107   0.15692   0.16964   0.17677

  Beta  occ. eigenvalues --  -14.21626 -14.19809 -14.17876 -10.10391 -10.09097
  Beta  occ. eigenvalues --  -10.08938 -10.08406 -10.07833 -10.05825 -10.05493
  Beta  occ. eigenvalues --  -10.04797  -0.83810  -0.78609  -0.77912  -0.72459
  Beta  occ. eigenvalues --   -0.64215  -0.62460  -0.57636  -0.51110  -0.49026
  Beta  occ. eigenvalues --   -0.43287  -0.42392  -0.38139  -0.36154  -0.34578
  Beta  occ. eigenvalues --   -0.33776  -0.33315  -0.31474  -0.29020  -0.27746
  Beta  occ. eigenvalues --   -0.26177  -0.25424  -0.23646  -0.23090  -0.20563
  Beta  occ. eigenvalues --   -0.19017  -0.18573  -0.11426  -0.08351
  Beta virt. eigenvalues --    0.07615   0.08234   0.08378   0.09109   0.10532
  Beta virt. eigenvalues --    0.10940   0.11518   0.11809   0.12431   0.13196
  Beta virt. eigenvalues --    0.14302   0.14754   0.15259   0.15562   0.16987

 Mulliken charges and spin densities:
               1          2
     1  C    0.139856  -0.473707
     2  N   -0.087944  -0.041037
     3  C   -2.689290   0.691565
     4  C    2.865136   0.429357
     5  C    0.184374   0.081987
     6  C    0.003809  -0.332716
     7  C    1.307214  -0.936582
     8  C   -0.272453  -0.511307
     9  N   -0.494533   0.091574
    10  C   -0.761139  -0.664029
    11  N   -0.285116   0.078223
    12  H    0.157088   0.037077
    13  H    0.089889   0.077106
    14  H   -0.286203   0.421586
    15  H    0.143495   0.116290
    16  H    0.106972   0.021922
    17  H    0.078928   0.054822
    18  H   -0.502236   0.628422
    19  H   -0.323529   0.593348
    20  H   -0.374319   0.636099
 Sum of Mulliken charges =  -1.00000   1.00000

 Dipole moment (field-independent basis, Debye):
    X=              2.0636    Y=             -2.8009    Z=              1.9223  Tot=              3.9748
 Quadrupole moment (field-independent basis, Debye-Ang):
   XX=           -124.9206   YY=            -99.9971   ZZ=            -83.7027
   XY=             16.2748   XZ=             -4.3850   YZ=              3.8906

 Summary of Natural Population Analysis:

                                       Natural Population
                Natural  -----------------------------------------------
    Atom  No    Charge         Core      Valence    Rydberg      Total
 -----------------------------------------------------------------------
      C    1   -0.18165      0.99965     2.17347    0.00853     3.18165
      N    2   -0.31253      0.99967     2.80185    0.01102     3.81253
      C    3    0.11169      0.99944     1.87638    0.01249     2.88831
      C    4   -0.10904      0.99940     2.10156    0.00809     3.10904
      C    5   -0.07049      0.99955     2.06250    0.00844     3.07049
      C    6   -0.12849      0.99956     2.11757    0.01136     3.12849
      C    7   -0.08084      0.99952     2.07102    0.01029     3.08084
      C    8    0.06921      0.99946     1.91951    0.01182     2.93079
      N    9   -0.41560      0.99973     2.90375    0.01213     3.91560
      C   10    0.15421      0.99964     1.82709    0.01907     2.84579
      N   11   -0.18908      0.99979     2.67884    0.01045     3.68908
      H   12    0.10137      0.00000     0.39747    0.00116     0.39863
      H   13    0.08932      0.00000     0.40947    0.00121     0.41068
      H   14    0.09582      0.00000     0.40331    0.00087     0.40418
      H   15    0.19411      0.00000     0.30283    0.00306     0.30589
      H   16    0.09903      0.00000     0.40018    0.00080     0.40097
      H   17    0.09724      0.00000     0.40201    0.00074     0.40276
      H   18    0.09795      0.00000     0.40090    0.00115     0.40205
      H   19    0.18835      0.00000     0.30575    0.00590     0.31165
      H   20    0.18943      0.00000     0.30083    0.00973     0.31057
 =======================================================================
   * Total *    0.00000     10.99540    27.85629    0.14832    39.00000

 Normal termination of Gaussian 16 at Tue Dec  8 20:56:57 2020.
