 Gaussian 16, Revision A.03,

 -----------------------------------------------------------
 # opt freq B3LYP/6-31G(d) empiricaldispersion=gd3bj scf=xqc
 -----------------------------------------------------------

 ------------------------------
 CID_91068790_JID_2337_neutraal
 ------------------------------
 Symbolic Z-matrix:
 Charge =  0 Multiplicity = 1

 SCF Done:  E(RB3LYP) =  -610.401434605     A.U. after   14 cycles
 SCF Done:  E(RB3LYP) =  -610.405970065     A.U. after   11 cycles
 SCF Done:  E(RB3LYP) =  -610.406712101     A.U. after   11 cycles
 SCF Done:  E(RB3LYP) =  -610.406956557     A.U. after   11 cycles
 SCF Done:  E(RB3LYP) =  -610.407160707     A.U. after   10 cycles
 SCF Done:  E(RB3LYP) =  -610.407244943     A.U. after   10 cycles
 SCF Done:  E(RB3LYP) =  -610.407254448     A.U. after   10 cycles
 SCF Done:  E(RB3LYP) =  -610.407280085     A.U. after    9 cycles
 SCF Done:  E(RB3LYP) =  -610.407282841     A.U. after    8 cycles
 SCF Done:  E(RB3LYP) =  -610.407284790     A.U. after    8 cycles
 SCF Done:  E(RB3LYP) =  -610.407286138     A.U. after    8 cycles
 SCF Done:  E(RB3LYP) =  -610.407287003     A.U. after    8 cycles
 SCF Done:  E(RB3LYP) =  -610.407287131     A.U. after    7 cycles
 Optimization completed.
    -- Stationary point found.
 Normal termination of Gaussian 16 at Wed Dec  9 17:08:07 2020.

 --------------------------------------------------------------------
 #N Geom=AllCheck Guess=TCheck SCRF=Check GenChk RB3LYP/6-31G(d) Freq
 --------------------------------------------------------------------

 Structure from the checkpoint file:  "JID_2337.chk"
 ------------------------------
 CID_91068790_JID_2337_neutraal
 ------------------------------
 Charge =  0 Multiplicity = 1

 SCF Done:  E(RB3LYP) =  -610.407287131     A.U. after    1 cycles

  Exact polarizability: 108.360  -4.206  94.080   1.551   1.417  75.127
 Approx polarizability: 141.101  -7.595 138.273   4.443   5.048 112.926

                      1                      2                      3
                      A                      A                      A
 Frequencies --     47.7347                93.0201               103.6088
 Red. masses --      4.3395                 6.6663                 4.3855
 Frc consts  --      0.0058                 0.0340                 0.0277
 IR Inten    --      0.3779                 0.1767                 0.6557

                      4                      5                      6
                      A                      A                      A
 Frequencies --    161.9313               203.3073               229.2374
 Red. masses --      2.3990                 3.1794                 1.2901
 Frc consts  --      0.0371                 0.0774                 0.0399
 IR Inten    --      1.1822                 1.1063                11.0236

                      7                      8                      9
                      A                      A                      A
 Frequencies --    259.0044               267.7969               277.4461
 Red. masses --      1.5836                 3.6213                 1.8492
 Frc consts  --      0.0626                 0.1530                 0.0839
 IR Inten    --      8.4857                 4.4226                 2.6832

                     10                     11                     12
                      A                      A                      A
 Frequencies --    312.7216               375.7528               384.1151
 Red. masses --      3.7043                 3.0275                 3.2633
 Frc consts  --      0.2134                 0.2518                 0.2837
 IR Inten    --      3.3367                 1.7208                13.0447

                     13                     14                     15
                      A                      A                      A
 Frequencies --    409.5782               427.6416               497.5065
 Red. masses --      2.8047                 3.3167                 3.4408
 Frc consts  --      0.2772                 0.3574                 0.5018
 IR Inten    --      0.6504                11.5559                 8.3946

                     16                     17                     18
                      A                      A                      A
 Frequencies --    552.2435               572.5421               580.7724
 Red. masses --      1.1524                 4.0168                 3.8572
 Frc consts  --      0.2071                 0.7758                 0.7665
 IR Inten    --     87.7685                 4.7070                37.6299

                     19                     20                     21
                      A                      A                      A
 Frequencies --    612.3453               649.7967               712.4105
 Red. masses --      1.5369                 1.7830                 2.8084
 Frc consts  --      0.3395                 0.4436                 0.8398
 IR Inten    --     97.4781                27.3625                11.0346

                     22                     23                     24
                      A                      A                      A
 Frequencies --    760.8977               794.9074               807.2405
 Red. masses --      9.7960                 2.7421                 3.1090
 Frc consts  --      3.3416                 1.0209                 1.1937
 IR Inten    --     39.5868                 3.3644                16.7708

                     25                     26                     27
                      A                      A                      A
 Frequencies --    839.4010               881.4387               930.0689
 Red. masses --      2.1676                 1.6654                 1.9514
 Frc consts  --      0.8999                 0.7623                 0.9946
 IR Inten    --      2.8155               119.7344                 1.3010

                     28                     29                     30
                      A                      A                      A
 Frequencies --    962.7722              1010.3957              1044.7600
 Red. masses --      1.8607                 1.8073                 1.9958
 Frc consts  --      1.0162                 1.0871                 1.2835
 IR Inten    --     26.2831                24.3323                13.2156

                     31                     32                     33
                      A                      A                      A
 Frequencies --   1065.2273              1091.8476              1098.1810
 Red. masses --      1.9200                 2.5973                 2.1259
 Frc consts  --      1.2836                 1.8243                 1.5106
 IR Inten    --     11.0379                53.2458                34.7554

                     34                     35                     36
                      A                      A                      A
 Frequencies --   1126.3505              1131.4747              1174.7858
 Red. masses --      2.4568                 1.9557                 1.5055
 Frc consts  --      1.8364                 1.4752                 1.2242
 IR Inten    --     60.7001                 3.4262               225.3190

                     37                     38                     39
                      A                      A                      A
 Frequencies --   1182.5757              1219.8667              1246.0062
 Red. masses --      2.4811                 1.9475                 1.6593
 Frc consts  --      2.0443                 1.7075                 1.5178
 IR Inten    --     11.4708                19.0805               127.3892

                     40                     41                     42
                      A                      A                      A
 Frequencies --   1283.4681              1299.9372              1315.5079
 Red. masses --      1.7797                 1.2893                 1.7734
 Frc consts  --      1.7273                 1.2837                 1.8081
 IR Inten    --     14.3630                 1.1983                60.3150

                     43                     44                     45
                      A                      A                      A
 Frequencies --   1333.2207              1360.1774              1385.8177
 Red. masses --      1.3027                 1.3180                 1.5461
 Frc consts  --      1.3642                 1.4367                 1.7495
 IR Inten    --      2.4974                 3.5373                 6.1590

                     46                     47                     48
                      A                      A                      A
 Frequencies --   1401.0901              1414.1362              1424.6263
 Red. masses --      1.2995                 1.3970                 1.4605
 Frc consts  --      1.5030                 1.6460                 1.7465
 IR Inten    --     10.2964                 1.0392                 3.9263

                     49                     50                     51
                      A                      A                      A
 Frequencies --   1435.8944              1450.3727              1477.9665
 Red. masses --      1.2669                 1.3188                 1.3016
 Frc consts  --      1.5389                 1.6346                 1.6751
 IR Inten    --     21.1428                23.2093               148.2357

                     52                     53                     54
                      A                      A                      A
 Frequencies --   1485.8697              1504.3232              1519.2447
 Red. masses --      3.0475                 1.1008                 1.0955
 Frc consts  --      3.9642                 1.4678                 1.4897
 IR Inten    --    169.7269                14.5676                 3.0362

                     55                     56                     57
                      A                      A                      A
 Frequencies --   1534.3504              1539.5977              1696.7894
 Red. masses --      1.0785                 1.0559                 1.0906
 Frc consts  --      1.4960                 1.4747                 1.8500
 IR Inten    --     11.8027                 9.6354                28.8268

                     58                     59                     60
                      A                      A                      A
 Frequencies --   1826.0582              3016.9921              3041.7678
 Red. masses --      8.6461                 1.0728                 1.0614
 Frc consts  --     16.9864                 5.7534                 5.7860
 IR Inten    --    501.9286                26.3717                19.7585

                     61                     62                     63
                      A                      A                      A
 Frequencies --   3056.7951              3059.8413              3073.5580
 Red. masses --      1.0393                 1.0831                 1.0860
 Frc consts  --      5.7218                 5.9745                 6.0443
 IR Inten    --      9.1580                35.2883                49.8729

                     64                     65                     66
                      A                      A                      A
 Frequencies --   3083.4701              3117.4689              3130.7418
 Red. masses --      1.1029                 1.0984                 1.1019
 Frc consts  --      6.1782                 6.2896                 6.3636
 IR Inten    --     42.6332                20.9098                22.5699

                     67                     68                     69
                      A                      A                      A
 Frequencies --   3142.2416              3179.7968              3510.8896
 Red. masses --      1.0895                 1.0907                 1.0499
 Frc consts  --      6.3379                 6.4978                 7.6252
 IR Inten    --     21.8801                 1.9914                 1.3597

                     70                     71                     72
                      A                      A                      A
 Frequencies --   3572.5488              3595.0580              3736.7485
 Red. masses --      1.0645                 1.0923                 1.0646
 Frc consts  --      8.0048                 8.3176                 8.7583
 IR Inten    --     89.1625                 4.8362                86.9525

 - Thermochemistry -
 -------------------
 Temperature   298.150 Kelvin.  Pressure   1.00000 Atm.
 Atom     1 has atomic number  6 and mass  12.00000

 Molecular mass:   174.10044 amu.
 Principal axes and moments of inertia in atomic units:
                           1         2         3
     Eigenvalues --  1225.677382548.716693278.87584
           X            1.00000  -0.00239  -0.00096
           Y            0.00237   0.99989  -0.01438
           Z            0.00100   0.01438   0.99990
 This molecule is an asymmetric top.
 Rotational symmetry number  1.
 Warning -- assumption of classical behavior for rotation
           may cause significant error
 Rotational temperatures (Kelvin)      0.07067     0.03398     0.02642
 Rotational constants (GHZ):           1.47244     0.70810     0.55041
 Zero-point vibrational energy     592780.0 (Joules/Mol)
                                  141.67782 (Kcal/Mol)
 Warning -- explicit consideration of  19 degrees of freedom as
           vibrations may cause significant error
 Vibrational temperatures:     68.68   133.84   149.07   232.98   292.51
          (Kelvin)            329.82   372.65   385.30   399.18   449.94
                              540.62   552.66   589.29   615.28   715.80
                              794.56   823.76   835.60   881.03   934.91
                             1025.00  1094.76  1143.69  1161.44  1207.71
                             1268.19  1338.16  1385.21  1453.73  1503.18
                             1532.62  1570.93  1580.04  1620.57  1627.94
                             1690.25  1701.46  1755.12  1792.72  1846.62
                             1870.32  1892.72  1918.21  1956.99  1993.88
                             2015.86  2034.63  2049.72  2065.93  2086.76
                             2126.46  2137.84  2164.39  2185.85  2207.59
                             2215.14  2441.30  2627.29  4340.78  4376.43
                             4398.05  4402.43  4422.16  4436.43  4485.34
                             4504.44  4520.98  4575.02  5051.39  5140.10
                             5172.49  5376.35

 Zero-point correction=                           0.225778 (Hartree/Particle)
 Thermal correction to Energy=                    0.237654
 Thermal correction to Enthalpy=                  0.238598
 Thermal correction to Gibbs Free Energy=         0.188249
 Sum of electronic and zero-point Energies=           -610.181509
 Sum of electronic and thermal Energies=              -610.169633
 Sum of electronic and thermal Enthalpies=            -610.168689
 Sum of electronic and thermal Free Energies=         -610.219038

                     E (Thermal)             CV                S
                      KCal/Mol        Cal/Mol-Kelvin    Cal/Mol-Kelvin
 Total                  149.130             46.082            105.968
 Electronic               0.000              0.000              0.000
 Translational            0.889              2.981             41.371
 Rotational               0.889              2.981             30.705
 Vibrational            147.353             40.121             33.892
 Vibration     1          0.595              1.978              4.909
 Vibration     2          0.602              1.954              3.596
 Vibration     3          0.605              1.946              3.385
 Vibration     4          0.622              1.889              2.527
 Vibration     5          0.639              1.835              2.103
 Vibration     6          0.652              1.796              1.885
 Vibration     7          0.668              1.748              1.668
 Vibration     8          0.673              1.732              1.610
 Vibration     9          0.678              1.715              1.549
 Vibration    10          0.701              1.649              1.348
 Vibration    11          0.747              1.522              1.056
 Vibration    12          0.753              1.504              1.023
 Vibration    13          0.774              1.449              0.928
 Vibration    14          0.789              1.410              0.866
 Vibration    15          0.853              1.256              0.664
 Vibration    16          0.908              1.135              0.540
 Vibration    17          0.929              1.091              0.499
 Vibration    18          0.937              1.073              0.484
 Vibration    19          0.972              1.006              0.429

 Optimization completed.
    -- Stationary point found.
 Normal termination of Gaussian 16 at Wed Dec  9 17:14:28 2020.

 ----------------------------------------------------------------------
 # B3LYP/6-311++G(d,p) empiricaldispersion=gd3bj scf=xqc pop=npa geom=c
 heck
 ----------------------------------------------------------------------

 --------------------------------------
 CID_91068790_JID_2337_Energie_neutraal
 --------------------------------------
 Structure from the checkpoint file:  "JID_2337.chk"
 Charge =  0 Multiplicity = 1

 SCF Done:  E(RB3LYP) =  -610.610182390     A.U. after   14 cycles
 Normal termination of Gaussian 16 at Wed Dec  9 17:16:38 2020.

 ----------------------------------------------------------------------
 # B3LYP/6-311++G(d,p) empiricaldispersion=gd3bj scf=xqc pop=npa geom=c
 heck
 ----------------------------------------------------------------------

 ------------------------------------
 CID_91068790_JID_2337_Energie_kation
 ------------------------------------
 Structure from the checkpoint file:  "JID_2337.chk"
 Charge =  1 Multiplicity = 2

 SCF Done:  E(UB3LYP) =  -610.289244222     A.U. after   21 cycles
 Normal termination of Gaussian 16 at Wed Dec  9 17:21:00 2020.
 Gaussian 16:  ES64L-G16RevA.03 25-Dec-2016

 ----------------------------------------------------------------------
 # B3LYP/6-311++G(d,p) empiricaldispersion=gd3bj scf=xqc pop=npa geom=c
 heck
 ----------------------------------------------------------------------

 -----------------------------------
 CID_91068790_JID_2337_Energie_anion
 -----------------------------------
 Structure from the checkpoint file:  "JID_2337.chk"
 Charge = -1 Multiplicity = 2

                         Standard orientation:
 ---------------------------------------------------------------------
 Center     Atomic      Atomic             Coordinates (Angstroms)
 Number     Number       Type             X           Y           Z
 ---------------------------------------------------------------------
      1          6           0        0.437102    2.035721   -1.062501
      2          6           0        0.486573    1.245181    0.255406
      3          6           0       -0.807408    1.266933    1.096361
      4          6           0       -1.920272    0.313453    0.631346
      5          6           0       -1.355750   -1.104801    0.411464
      6          6           0       -0.124745   -1.066058   -0.502980
      7          7           0        0.888067   -0.150514    0.021155
      8          6           0        2.189248   -0.555973    0.024420
      9          8           0        2.593653   -1.671068   -0.260425
     10          8           0        3.043741    0.444690    0.405094
     11          8           0       -2.347992   -1.949204   -0.128299
     12          7           0       -2.662300    0.697883   -0.584827
     13          1           0        0.044106    3.045132   -0.898999
     14          1           0       -0.177949    1.548133   -1.825926
     15          1           0        1.448275    2.123370   -1.471656
     16          1           0        1.266780    1.695393    0.868958
     17          1           0       -0.533738    0.977808    2.119101
     18          1           0       -1.188282    2.294574    1.148226
     19          1           0       -2.672791    0.242952    1.424813
     20          1           0       -1.049360   -1.515641    1.381298
     21          1           0       -0.433251   -0.765110   -1.515542
     22          1           0        0.321939   -2.055772   -0.579402
     23          1           0        3.919753    0.022594    0.393557
     24          1           0       -2.887305   -1.346037   -0.681220
     25          1           0       -3.340349    1.425107   -0.373620
     26          1           0       -2.041903    1.073824   -1.295943
 ---------------------------------------------------------------------

 SCF Done:  E(UB3LYP) =  -610.602946402     A.U. after   29 cycles

 The electronic state is 2-A.
 Alpha  occ. eigenvalues --  -19.06705 -19.01297 -18.99792 -14.24657 -14.20081
 Alpha  occ. eigenvalues --  -10.22189 -10.11895 -10.11449 -10.10242 -10.10110
 Alpha  occ. eigenvalues --  -10.06986 -10.06391  -1.01149  -0.92433  -0.91460
 Alpha  occ. eigenvalues --   -0.85176  -0.79083  -0.68775  -0.66678  -0.61463
 Alpha  occ. eigenvalues --   -0.56560  -0.52579  -0.51032  -0.46960  -0.43480
 Alpha  occ. eigenvalues --   -0.41538  -0.39365  -0.38779  -0.36647  -0.36004
 Alpha  occ. eigenvalues --   -0.34770  -0.34110  -0.33068  -0.32238  -0.31464
 Alpha  occ. eigenvalues --   -0.30539  -0.29077  -0.28266  -0.26903  -0.25602
 Alpha  occ. eigenvalues --   -0.23494  -0.22405  -0.21677  -0.18556  -0.18175
 Alpha  occ. eigenvalues --   -0.15886  -0.14694   0.04169
 Alpha virt. eigenvalues --    0.06432   0.07637   0.08599   0.09271   0.10491
 Alpha virt. eigenvalues --    0.10970   0.11347   0.11418   0.12257   0.13260
 Alpha virt. eigenvalues --    0.13754   0.14148   0.14850   0.15472   0.15628

  Beta  occ. eigenvalues --  -19.06674 -19.01291 -18.99785 -14.24651 -14.20020
  Beta  occ. eigenvalues --  -10.22186 -10.11891 -10.11440 -10.10227 -10.10100
  Beta  occ. eigenvalues --  -10.06953 -10.06344  -1.01111  -0.92420  -0.91428
  Beta  occ. eigenvalues --   -0.85157  -0.78987  -0.68721  -0.66634  -0.61398
  Beta  occ. eigenvalues --   -0.56495  -0.52527  -0.50970  -0.46903  -0.43436
  Beta  occ. eigenvalues --   -0.41479  -0.39329  -0.38756  -0.36604  -0.35967
  Beta  occ. eigenvalues --   -0.34725  -0.34071  -0.33017  -0.32211  -0.31416
  Beta  occ. eigenvalues --   -0.30483  -0.29022  -0.28235  -0.26871  -0.25550
  Beta  occ. eigenvalues --   -0.23450  -0.22377  -0.21652  -0.18536  -0.18159
  Beta  occ. eigenvalues --   -0.15832  -0.14677
  Beta virt. eigenvalues --    0.06759   0.07728   0.08290   0.09385   0.09966
  Beta virt. eigenvalues --    0.10894   0.11402   0.11592   0.11850   0.12967
  Beta virt. eigenvalues --    0.13478   0.13953   0.14496   0.14998   0.15705

 Mulliken charges and spin densities:
               1          2
     1  C    1.687815  -2.228156
     2  C   -2.335103   2.198745
     3  C    1.243939  -1.925055
     4  C    0.195240  -0.009712
     5  C   -0.187973  -0.487157
     6  C    0.515645  -0.772554
     7  N    0.015033  -0.055523
     8  C    0.531035  -0.180676
     9  O   -0.346411  -0.022580
    10  O   -0.262329   0.051847
    11  O   -0.233264   0.034258
    12  N   -0.390392  -0.049364
    13  H   -0.447073   0.609910
    14  H   -0.261406   0.382072
    15  H   -0.076589   0.244627
    16  H   -0.202158   0.455480
    17  H   -0.050551   0.205960
    18  H   -0.602688   0.807203
    19  H   -0.295446   0.547820
    20  H    0.105800   0.099661
    21  H    0.055924   0.150960
    22  H    0.301385  -0.103549
    23  H   -0.106030   0.420991
    24  H    0.250570   0.027146
    25  H   -0.308178   0.585744
    26  H    0.203208   0.011902
 Sum of Mulliken charges =  -1.00000   1.00000

 Dipole moment (field-independent basis, Debye):
    X=              2.2853    Y=             -3.5998    Z=             -0.4682  Tot=              4.2896
 Quadrupole moment (field-independent basis, Debye-Ang):
   XX=           -133.1826   YY=           -126.6041   ZZ=            -99.2699
   XY=              8.8410   XZ=              1.9377   YZ=             -1.5209

 Summary of Natural Population Analysis:

                                       Natural Population
                Natural  -----------------------------------------------
    Atom  No    Charge         Core      Valence    Rydberg      Total
 -----------------------------------------------------------------------
      C    1   -0.28985      0.99963     2.28447    0.00575     3.28985
      C    2   -0.00867      0.99958     1.99571    0.01338     3.00867
      C    3   -0.19949      0.99958     2.18907    0.01083     3.19949
      C    4   -0.02603      0.99957     2.01099    0.01546     3.02603
      C    5    0.06053      0.99952     1.92486    0.01510     2.93947
      C    6   -0.09710      0.99958     2.08659    0.01093     3.09710
      N    7   -0.26581      0.99962     2.75445    0.01174     3.76581
      C    8    0.46306      0.99967     1.51228    0.02499     2.53694
      O    9   -0.34199      0.99987     3.33668    0.00543     4.34199
      O   10   -0.35420      0.99988     3.34833    0.00599     4.35420
      O   11   -0.37978      0.99990     3.37304    0.00684     4.37978
      N   12   -0.44070      0.99975     2.92937    0.01158     3.94070
      H   13    0.10693      0.00000     0.39126    0.00181     0.39307
      H   14    0.09175      0.00000     0.40681    0.00144     0.40825
      H   15    0.10460      0.00000     0.39414    0.00126     0.39540
      H   16    0.11350      0.00000     0.38436    0.00214     0.38650
      H   17    0.10410      0.00000     0.39428    0.00162     0.39590
      H   18    0.10997      0.00000     0.38674    0.00329     0.39003
      H   19    0.09969      0.00000     0.39831    0.00200     0.40031
      H   20    0.08725      0.00000     0.41141    0.00135     0.41275
      H   21    0.09051      0.00000     0.40815    0.00133     0.40949
      H   22    0.11826      0.00000     0.38058    0.00117     0.38174
      H   23    0.24387      0.00000     0.25133    0.00480     0.25613
      H   24    0.24086      0.00000     0.25587    0.00328     0.25914
      H   25    0.18977      0.00000     0.30479    0.00545     0.31023
      H   26    0.17898      0.00000     0.31824    0.00278     0.32102
 =======================================================================
   * Total *    0.00000     11.99616    34.83212    0.17172    47.00000

 Normal termination of Gaussian 16 at Wed Dec  9 17:26:54 2020.
