 Gaussian 16, Revision A.03,

 -----------------------------------------------------------
 # opt freq B3LYP/6-31G(d) empiricaldispersion=gd3bj scf=xqc
 -----------------------------------------------------------

 ------------------------------
 CID_144959370_JID_967_neutraal
 ------------------------------
 Symbolic Z-matrix:
 Charge =  0 Multiplicity = 1

 SCF Done:  E(RB3LYP) =  -754.457001612     A.U. after   12 cycles
 SCF Done:  E(RB3LYP) =  -754.458370608     A.U. after   10 cycles
 SCF Done:  E(RB3LYP) =  -754.457963639     A.U. after   11 cycles
 SCF Done:  E(RB3LYP) =  -754.458564296     A.U. after   10 cycles
 SCF Done:  E(RB3LYP) =  -754.458633731     A.U. after    9 cycles
 SCF Done:  E(RB3LYP) =  -754.458714186     A.U. after    9 cycles
 SCF Done:  E(RB3LYP) =  -754.458691485     A.U. after    9 cycles
 SCF Done:  E(RB3LYP) =  -754.458732866     A.U. after    9 cycles
 SCF Done:  E(RB3LYP) =  -754.458689173     A.U. after    9 cycles
 SCF Done:  E(RB3LYP) =  -754.458759580     A.U. after    9 cycles
 SCF Done:  E(RB3LYP) =  -754.459692545     A.U. after    8 cycles
 SCF Done:  E(RB3LYP) =  -754.459692301     A.U. after    8 cycles
 SCF Done:  E(RB3LYP) =  -754.459692932     A.U. after    7 cycles
 SCF Done:  E(RB3LYP) =  -754.459693074     A.U. after    7 cycles
 SCF Done:  E(RB3LYP) =  -754.459693119     A.U. after    6 cycles
 SCF Done:  E(RB3LYP) =  -754.459693103     A.U. after    5 cycles
 Optimization completed.
    -- Stationary point found.

 1\1\GINC-NODE105\FOpt\RB3LYP\6-31G(d)\C9H22S1\VSC10255\08-Dec-2020\0\\
 # opt freq B3LYP/6-31G(d) empiricaldispersion=gd3bj scf=xqc\\CID_14495
 9370_JID_967_neutraal\\0,1\C,0.8872770556,0.0471232023,0.1590844256\C,
 -0.0917668252,0.8708855603,0.9971572251\C,1.3654405778,1.1519680331,-3
 .8978472665\C,0.1036150234,1.5209976753,-4.6887319157\C,0.1054673784,0
 .8321523967,-6.0593464315\C,-1.1834914302,1.1616250738,-3.924855799\C,
 -1.3397135424,1.7846603579,-2.5298872895\C,-1.3204110228,3.3193201599,
 -2.5737840966\C,-2.6348941857,1.3265929517,-1.8429690233\S,-2.74834491

 Normal termination of Gaussian 16 at Tue Dec  8 15:01:56 2020.

 --------------------------------------------------------------------
 #N Geom=AllCheck Guess=TCheck SCRF=Check GenChk RB3LYP/6-31G(d) Freq
 --------------------------------------------------------------------

 Structure from the checkpoint file:  "JID_967.chk"
 ------------------------------
 CID_144959370_JID_967_neutraal
 ------------------------------
 Charge =  0 Multiplicity = 1

 SCF Done:  E(RB3LYP) =  -754.459693103     A.U. after    1 cycles

  Exact polarizability: 123.156  -1.604 108.967  -1.096   1.962 109.675
 Approx polarizability: 155.349   1.420 148.232  -4.061   4.807 160.290

                      1                      2                      3
                      A                      A                      A
 Frequencies --     11.2147                33.6934                40.1162
 Red. masses --      3.0570                 2.7915                 1.9034
 Frc consts  --      0.0002                 0.0019                 0.0018
 IR Inten    --      0.0786                 0.1158                 0.0248

                      4                      5                      6
                      A                      A                      A
 Frequencies --     45.1967                58.6923                75.0249
 Red. masses --      1.6589                 2.8918                 3.8478
 Frc consts  --      0.0020                 0.0059                 0.0128
 IR Inten    --      0.0614                 0.6511                 0.0989

                      7                      8                      9
                      A                      A                      A
 Frequencies --     90.4928               105.3400               126.4560
 Red. masses --      3.3200                 2.2339                 1.7142
 Frc consts  --      0.0160                 0.0146                 0.0162
 IR Inten    --      1.0448                 0.5698                 0.2808

                     10                     11                     12
                      A                      A                      A
 Frequencies --    175.1408               195.9566               234.3598
 Red. masses --      2.1743                 1.9982                 1.0605
 Frc consts  --      0.0393                 0.0452                 0.0343
 IR Inten    --      0.7068                 0.9175                 4.3651

                     13                     14                     15
                      A                      A                      A
 Frequencies --    244.0947               249.2033               261.1905
 Red. masses --      1.1490                 1.2150                 1.2029
 Frc consts  --      0.0403                 0.0445                 0.0484
 IR Inten    --      8.2209                 6.1793                 2.9336

                     16                     17                     18
                      A                      A                      A
 Frequencies --    320.4478               321.8166               361.8661
 Red. masses --      1.1718                 1.7473                 2.3462
 Frc consts  --      0.0709                 0.1066                 0.1810
 IR Inten    --      0.0550                 0.1455                 0.0947

                     19                     20                     21
                      A                      A                      A
 Frequencies --    377.3419               420.0979               459.0012
 Red. masses --      2.8612                 2.3593                 1.7552
 Frc consts  --      0.2400                 0.2453                 0.2179
 IR Inten    --      0.1332                 0.2687                 0.3370

                     22                     23                     24
                      A                      A                      A
 Frequencies --    486.3000               712.7789               771.8251
 Red. masses --      2.9450                 2.5185                 1.5933
 Frc consts  --      0.4103                 0.7539                 0.5592
 IR Inten    --      0.4702                 9.0934                 0.3395

                     25                     26                     27
                      A                      A                      A
 Frequencies --    829.5527               834.8722               835.6294
 Red. masses --      2.2786                 1.0607                 1.0698
 Frc consts  --      0.9239                 0.4356                 0.4401
 IR Inten    --      1.3097                 4.3956                10.2923

                     28                     29                     30
                      A                      A                      A
 Frequencies --    841.6462               898.4786               942.3347
 Red. masses --      1.9258                 1.3984                 1.7683
 Frc consts  --      0.8037                 0.6651                 0.9252
 IR Inten    --      2.7309                 0.9580                 5.4876

                     31                     32                     33
                      A                      A                      A
 Frequencies --    943.3543               976.3223               980.0282
 Red. masses --      1.1797                 1.6155                 1.4613
 Frc consts  --      0.6185                 0.9073                 0.8269
 IR Inten    --      1.5941                 2.6362                 0.8903

                     34                     35                     36
                      A                      A                      A
 Frequencies --    995.3282              1012.5041              1047.2864
 Red. masses --      1.5766                 3.2533                 1.4489
 Frc consts  --      0.9203                 1.9650                 0.9363
 IR Inten    --      9.9600                 0.2568                 0.7288

                     37                     38                     39
                      A                      A                      A
 Frequencies --   1089.0202              1150.1098              1161.0952
 Red. masses --      2.3837                 1.6986                 1.9433
 Frc consts  --      1.6656                 1.3238                 1.5435
 IR Inten    --      0.8039                 1.7638                 5.7213

                     40                     41                     42
                      A                      A                      A
 Frequencies --   1200.4649              1208.9157              1235.8081
 Red. masses --      1.9113                 1.7743                 1.4639
 Frc consts  --      1.6228                 1.5278                 1.3173
 IR Inten    --      8.7159                 1.7642                 0.1827

                     43                     44                     45
                      A                      A                      A
 Frequencies --   1237.0553              1239.4933              1300.6296
 Red. masses --      1.4544                 1.3813                 1.3086
 Frc consts  --      1.3113                 1.2504                 1.3043
 IR Inten    --      0.7141                 2.5472                 6.1419

                     46                     47                     48
                      A                      A                      A
 Frequencies --   1316.3046              1337.3064              1377.9868
 Red. masses --      1.2345                 1.2244                 1.3846
 Frc consts  --      1.2602                 1.2902                 1.5491
 IR Inten    --      7.3402                 2.2296                 4.8144

                     49                     50                     51
                      A                      A                      A
 Frequencies --   1380.7576              1398.7823              1421.5674
 Red. masses --      1.3487                 1.2908                 1.4944
 Frc consts  --      1.5150                 1.4880                 1.7793
 IR Inten    --      2.4307                 2.0210                 3.1768

                     52                     53                     54
                      A                      A                      A
 Frequencies --   1430.3045              1431.2764              1439.5018
 Red. masses --      1.2314                 1.2420                 1.2367
 Frc consts  --      1.4842                 1.4991                 1.5099
 IR Inten    --      2.8257                 4.1727                 5.0555

                     55                     56                     57
                      A                      A                      A
 Frequencies --   1449.6781              1453.1847              1494.8845
 Red. masses --      1.2362                 1.2547                 1.0886
 Frc consts  --      1.5307                 1.5612                 1.4332
 IR Inten    --      3.6502                 2.8435                 6.1659

                     58                     59                     60
                      A                      A                      A
 Frequencies --   1510.9768              1517.7999              1524.3593
 Red. masses --      1.0773                 1.0510                 1.0518
 Frc consts  --      1.4491                 1.4265                 1.4400
 IR Inten    --      0.6660                 1.9329                 1.8946

                     61                     62                     63
                      A                      A                      A
 Frequencies --   1528.5342              1530.2539              1532.6192
 Red. masses --      1.0282                 1.0591                 1.0367
 Frc consts  --      1.4154                 1.4612                 1.4348
 IR Inten    --      2.6825                 2.1423                 3.4478

                     64                     65                     66
                      A                      A                      A
 Frequencies --   1533.6163              1535.6235              1536.7844
 Red. masses --      1.0481                 1.0495                 1.0493
 Frc consts  --      1.4524                 1.4581                 1.4600
 IR Inten    --      0.7864                 4.5707                 8.7487

                     67                     68                     69
                      A                      A                      A
 Frequencies --   1540.3116              1543.8265              2686.3102
 Red. masses --      1.0525                 1.0477                 1.0386
 Frc consts  --      1.4713                 1.4713                 4.4156
 IR Inten    --     18.0847                 3.8425                19.9918

                     70                     71                     72
                      A                      A                      A
 Frequencies --   3009.2326              3025.3867              3036.9384
 Red. masses --      1.0637                 1.0814                 1.0358
 Frc consts  --      5.6753                 5.8319                 5.6284
 IR Inten    --     28.7163                 5.4103                35.5035

                     73                     74                     75
                      A                      A                      A
 Frequencies --   3042.5537              3043.6770              3047.4074
 Red. masses --      1.0389                 1.0379                 1.0365
 Frc consts  --      5.6661                 5.6648                 5.6714
 IR Inten    --     23.5931                 8.5355                 4.0791

                     76                     77                     78
                      A                      A                      A
 Frequencies --   3048.6255              3060.1442              3067.3330
 Red. masses --      1.0356                 1.0942                 1.0614
 Frc consts  --      5.6708                 6.0373                 5.8838
 IR Inten    --     48.5095                27.5956                14.7201

                     79                     80                     81
                      A                      A                      A
 Frequencies --   3085.0949              3096.8905              3100.8126
 Red. masses --      1.0849                 1.1011                 1.1014
 Frc consts  --      6.0837                 6.2221                 6.2396
 IR Inten    --     21.1380                 3.0850                11.5573

                     82                     83                     84
                      A                      A                      A
 Frequencies --   3103.9567              3104.8838              3106.9089
 Red. masses --      1.1013                 1.1009                 1.1013
 Frc consts  --      6.2514                 6.2530                 6.2637
 IR Inten    --      4.3176                27.9373                59.9257

                     85                     86                     87
                      A                      A                      A
 Frequencies --   3111.0824              3118.0262              3120.9061
 Red. masses --      1.1018                 1.1013                 1.1035
 Frc consts  --      6.2831                 6.3084                 6.3327
 IR Inten    --     51.2574                41.3870                90.5916

                     88                     89                     90
                      A                      A                      A
 Frequencies --   3122.9551              3124.9118              3129.5070
 Red. masses --      1.1024                 1.0998                 1.1024
 Frc consts  --      6.3347                 6.3276                 6.3613
 IR Inten    --     26.4228                43.6390                50.1175

 - Thermochemistry -
 -------------------
 Temperature   298.150 Kelvin.  Pressure   1.00000 Atm.
 Atom     1 has atomic number  6 and mass  12.00000

 Molecular mass:   162.14422 amu.
 Principal axes and moments of inertia in atomic units:
                           1         2         3
     Eigenvalues --  1761.250983138.178743672.07423
           X            0.99903   0.04052   0.01742
           Y           -0.03970   0.99820  -0.04505
           Z           -0.01921   0.04432   0.99883
 This molecule is an asymmetric top.
 Rotational symmetry number  1.
 Warning -- assumption of classical behavior for rotation
           may cause significant error
 Rotational temperatures (Kelvin)      0.04918     0.02760     0.02359
 Rotational constants (GHZ):           1.02469     0.57509     0.49148
 Zero-point vibrational energy     773370.0 (Joules/Mol)
                                  184.83986 (Kcal/Mol)
 Warning -- explicit consideration of  22 degrees of freedom as
           vibrations may cause significant error
 Vibrational temperatures:     16.14    48.48    57.72    65.03    84.45
          (Kelvin)            107.94   130.20   151.56   181.94   251.99
                              281.94   337.19   351.20   358.55   375.79
                              461.05   463.02   520.64   542.91   604.43
                              660.40   699.68  1025.53  1110.48  1193.54
                             1201.19  1202.28  1210.94  1292.71  1355.81
                             1357.28  1404.71  1410.04  1432.06  1456.77
                             1506.81  1566.86  1654.75  1670.56  1727.20
                             1739.36  1778.05  1779.85  1783.35  1871.32
                             1893.87  1924.09  1982.62  1986.60  2012.54
                             2045.32  2057.89  2059.29  2071.12  2085.76
                             2090.81  2150.81  2173.96  2183.78  2193.21
                             2199.22  2201.69  2205.10  2206.53  2209.42
                             2211.09  2216.16  2221.22  3865.00  4329.61
                             4352.86  4369.48  4377.56  4379.17  4384.54
                             4386.29  4402.86  4413.21  4438.76  4455.73
                             4461.38  4465.90  4467.24  4470.15  4476.15
                             4486.14  4490.29  4493.24  4496.05  4502.66

 Zero-point correction=                           0.294561 (Hartree/Particle)
 Thermal correction to Energy=                    0.311113
 Thermal correction to Enthalpy=                  0.312057
 Thermal correction to Gibbs Free Energy=         0.247349
 Sum of electronic and zero-point Energies=           -754.165132
 Sum of electronic and thermal Energies=              -754.148580
 Sum of electronic and thermal Enthalpies=            -754.147636
 Sum of electronic and thermal Free Energies=         -754.212344

                     E (Thermal)             CV                S
                      KCal/Mol        Cal/Mol-Kelvin    Cal/Mol-Kelvin
 Total                  195.227             55.818            136.190
 Electronic               0.000              0.000              0.000
 Translational            0.889              2.981             41.159
 Rotational               0.889              2.981             31.385
 Vibrational            193.449             49.857             63.647
 Vibration     1          0.593              1.987              7.783
 Vibration     2          0.594              1.983              5.599
 Vibration     3          0.594              1.981              5.253
 Vibration     4          0.595              1.979              5.017
 Vibration     5          0.596              1.974              4.501
 Vibration     6          0.599              1.966              4.017
 Vibration     7          0.602              1.956              3.649
 Vibration     8          0.605              1.945              3.353
 Vibration     9          0.611              1.927              2.999
 Vibration    10          0.627              1.873              2.380
 Vibration    11          0.636              1.846              2.171
 Vibration    12          0.654              1.788              1.845
 Vibration    13          0.659              1.773              1.773
 Vibration    14          0.662              1.764              1.736
 Vibration    15          0.669              1.744              1.654
 Vibration    16          0.706              1.634              1.308
 Vibration    17          0.707              1.632              1.301
 Vibration    18          0.736              1.551              1.114
 Vibration    19          0.748              1.518              1.050
 Vibration    20          0.783              1.427              0.892
 Vibration    21          0.817              1.341              0.769
 Vibration    22          0.842              1.280              0.693

 Optimization completed.
    -- Stationary point found.

 1\1\GINC-NODE105\Freq\RB3LYP\6-31G(d)\C9H22S1\VSC10255\08-Dec-2020\0\\
 #N Geom=AllCheck Guess=TCheck SCRF=Check GenChk RB3LYP/6-31G(d) Freq\\
 CID_144959370_JID_967_neutraal\\0,1\C,0.8872770556,0.0471232023,0.1590
 844256\C,-0.0917668252,0.8708855603,0.9971572251\C,1.3654405778,1.1519
 680331,-3.8978472665\C,0.1036150234,1.5209976753,-4.6887319157\C,0.105
 4673784,0.8321523967,-6.0593464315\C,-1.1834914302,1.1616250738,-3.924
 855799\C,-1.3397135424,1.7846603579,-2.5298872895\C,-1.3204110228,3.31
 93201599,-2.5737840966\C,-2.6348941857,1.3265929517,-1.8429690233\S,-2

 Normal termination of Gaussian 16 at Tue Dec  8 15:10:05 2020.

 ----------------------------------------------------------------------
 # B3LYP/6-311++G(d,p) empiricaldispersion=gd3bj scf=xqc pop=npa geom=c
 heck
 ----------------------------------------------------------------------

 --------------------------------------
 CID_144959370_JID_967_Energie_neutraal
 --------------------------------------
 Structure from the checkpoint file:  "JID_967.chk"
 Charge =  0 Multiplicity = 1

 SCF Done:  E(RB3LYP) =  -754.594824912     A.U. after   13 cycles
 Normal termination of Gaussian 16 at Tue Dec  8 15:16:16 2020.

 ----------------------------------------------------------------------
 # B3LYP/6-311++G(d,p) empiricaldispersion=gd3bj scf=xqc pop=npa geom=c
 heck
 ----------------------------------------------------------------------

 ------------------------------------
 CID_144959370_JID_967_Energie_kation
 ------------------------------------
 Structure from the checkpoint file:  "JID_967.chk"
 Charge =  1 Multiplicity = 2

 SCF Done:  E(UB3LYP) =  -754.268123521     A.U. after   20 cycles
 Normal termination of Gaussian 16 at Tue Dec  8 15:24:00 2020.
 Gaussian 16:  ES64L-G16RevA.03 25-Dec-2016

 -----------------------------------
 CID_144959370_JID_967_Energie_anion
 -----------------------------------
 Structure from the checkpoint file:  "JID_967.chk"
 Charge = -1 Multiplicity = 2

                         Standard orientation:
 ---------------------------------------------------------------------
 Center     Atomic      Atomic             Coordinates (Angstroms)
 Number     Number       Type             X           Y           Z
 ---------------------------------------------------------------------
      1          6           0        2.296060    2.231556   -0.658676
      2          6           0        3.152957    1.529159    0.395764
      3          6           0       -1.902236    1.813552   -0.330650
      4          6           0       -2.454015    0.426954    0.025398
      5          6           0       -3.632664    0.064899   -0.887180
      6          6           0       -1.372588   -0.665116   -0.059441
      7          6           0       -0.124198   -0.451206    0.809053
      8          6           0       -0.466336   -0.347540    2.302262
      9          6           0        0.904411   -1.575263    0.615055
     10         16           0        1.656706   -1.703426   -1.062821
     11          1           0        1.663778    3.006826   -0.209767
     12          1           0        1.643818    1.517304   -1.171777
     13          1           0        2.921207    2.713540   -1.418982
     14          1           0        3.843360    2.227026    0.883349
     15          1           0        2.532010    1.081045    1.180384
     16          1           0        3.749012    0.726312   -0.052243
     17          1           0       -1.454382    1.807307   -1.332715
     18          1           0       -1.131653    2.144725    0.373247
     19          1           0       -2.700732    2.564318   -0.325809
     20          1           0       -2.833044    0.464368    1.056302
     21          1           0       -3.315182    0.029899   -1.937334
     22          1           0       -4.048643   -0.916845   -0.631615
     23          1           0       -4.438116    0.803988   -0.807434
     24          1           0       -1.824634   -1.633275    0.206542
     25          1           0       -1.060612   -0.744876   -1.109484
     26          1           0        0.358462    0.481880    0.499784
     27          1           0       -0.980695   -1.251742    2.652261
     28          1           0        0.439592   -0.221807    2.906632
     29          1           0       -1.119867    0.506464    2.505402
     30          1           0        1.763966   -1.407476    1.271419
     31          1           0        0.478410   -2.547481    0.886085
     32          1           0        0.598303   -2.258659   -1.688622
 ---------------------------------------------------------------------

 SCF Done:  E(UB3LYP) =  -754.579684580     A.U. after   27 cycles

 The electronic state is 2-A.
 Alpha  occ. eigenvalues --  -88.74017 -10.09864 -10.07459 -10.07009 -10.06102
 Alpha  occ. eigenvalues --  -10.05975 -10.05842 -10.05714 -10.05454 -10.05453
 Alpha  occ. eigenvalues --   -7.82705  -5.79072  -5.78734  -5.78095  -0.72969
 Alpha  occ. eigenvalues --   -0.69118  -0.65596  -0.64282  -0.58285  -0.57823
 Alpha  occ. eigenvalues --   -0.54668  -0.51915  -0.48114  -0.44699  -0.38607
 Alpha  occ. eigenvalues --   -0.35769  -0.34203  -0.33968  -0.33537  -0.33281
 Alpha  occ. eigenvalues --   -0.31998  -0.30368  -0.29836  -0.28396  -0.27281
 Alpha  occ. eigenvalues --   -0.27249  -0.26387  -0.25017  -0.24821  -0.24545
 Alpha  occ. eigenvalues --   -0.24249  -0.22476  -0.22008  -0.21371  -0.21090
 Alpha  occ. eigenvalues --   -0.14034   0.04535
 Alpha virt. eigenvalues --    0.06712   0.07164   0.07267   0.08753   0.08984
 Alpha virt. eigenvalues --    0.09550   0.09897   0.09907   0.11274   0.11506
 Alpha virt. eigenvalues --    0.11561   0.12208   0.12491   0.12911   0.13383

  Beta  occ. eigenvalues --  -88.74004 -10.09840 -10.07452 -10.06997 -10.06075
  Beta  occ. eigenvalues --  -10.05960 -10.05819 -10.05679 -10.05432 -10.05423
  Beta  occ. eigenvalues --   -7.82692  -5.79039  -5.78727  -5.78086  -0.72938
  Beta  occ. eigenvalues --   -0.69081  -0.65565  -0.64230  -0.58233  -0.57761
  Beta  occ. eigenvalues --   -0.54591  -0.51846  -0.48047  -0.44633  -0.38562
  Beta  occ. eigenvalues --   -0.35717  -0.34162  -0.33941  -0.33508  -0.33234
  Beta  occ. eigenvalues --   -0.31953  -0.30318  -0.29799  -0.28367  -0.27230
  Beta  occ. eigenvalues --   -0.27197  -0.26349  -0.24984  -0.24794  -0.24514
  Beta  occ. eigenvalues --   -0.24207  -0.22426  -0.21970  -0.21323  -0.21050
  Beta  occ. eigenvalues --   -0.14002
  Beta virt. eigenvalues --    0.06643   0.07424   0.07779   0.07872   0.09125
  Beta virt. eigenvalues --    0.09536   0.09999   0.10144   0.10312   0.11690
  Beta virt. eigenvalues --    0.11779   0.11820   0.12566   0.12837   0.13302

 Mulliken charges and spin densities:
               1          2
     1  C   -0.456646   0.022369
     2  C    0.261560  -0.662276
     3  C   -0.161946  -0.515233
     4  C   -1.764210   2.093839
     5  C    1.439849  -2.080408
     6  C    1.600356  -2.293484
     7  C   -1.017733   1.815331
     8  C   -0.037753  -0.617867
     9  C    0.032422  -0.558360
    10  S   -0.073019  -0.073113
    11  H    0.076488   0.046822
    12  H    0.019632   0.123777
    13  H   -0.177936   0.306959
    14  H   -0.196414   0.328830
    15  H   -0.232846   0.381734
    16  H    0.070706   0.050820
    17  H   -0.044616   0.181097
    18  H   -0.091294   0.241590
    19  H   -0.188986   0.329864
    20  H    0.076786   0.069707
    21  H   -0.066837   0.199564
    22  H   -0.339268   0.474723
    23  H   -0.273844   0.416486
    24  H   -0.092510   0.245709
    25  H    0.062236  -0.037923
    26  H    1.797385  -1.648858
    27  H   -0.223838   0.385601
    28  H   -0.330467   0.469288
    29  H   -0.407219   0.552886
    30  H    0.091880   0.124142
    31  H   -0.205319   0.419040
    32  H   -0.146598   0.207345
 Sum of Mulliken charges =  -1.00000   1.00000

 Dipole moment (field-independent basis, Debye):
    X=              2.3168    Y=             -0.1173    Z=             -2.0488  Tot=              3.0949
 Quadrupole moment (field-independent basis, Debye-Ang):
   XX=           -143.3211   YY=           -123.3140   ZZ=           -116.0033
   XY=             -3.2231   XZ=             -2.7154   YZ=             -0.8421

 Summary of Natural Population Analysis:

                                       Natural Population
                Natural  -----------------------------------------------
    Atom  No    Charge         Core      Valence    Rydberg      Total
 -----------------------------------------------------------------------
      C    1   -0.28858      0.99968     2.28469    0.00420     3.28858
      C    2   -0.28687      0.99968     2.28259    0.00459     3.28687
      C    3   -0.28612      0.99965     2.27978    0.00669     3.28612
      C    4   -0.11421      0.99961     2.10547    0.00912     3.11421
      C    5   -0.28155      0.99965     2.27583    0.00607     3.28155
      C    6   -0.18869      0.99959     2.17835    0.01075     3.18869
      C    7   -0.12926      0.99958     2.11775    0.01193     3.12926
      C    8   -0.28502      0.99964     2.27875    0.00663     3.28502
      C    9   -0.23658      0.99955     2.22607    0.01096     3.23658
      S   10   -0.02864      4.99966     3.01424    0.01474     8.02864
      H   11    0.09493      0.00000     0.40378    0.00129     0.40507
      H   12    0.10244      0.00000     0.39617    0.00139     0.39756
      H   13    0.09213      0.00000     0.40691    0.00096     0.40787
      H   14    0.09394      0.00000     0.40503    0.00104     0.40606
      H   15    0.09657      0.00000     0.40214    0.00129     0.40343
      H   16    0.09665      0.00000     0.40247    0.00088     0.40335
      H   17    0.09588      0.00000     0.40304    0.00108     0.40412
      H   18    0.10002      0.00000     0.39878    0.00120     0.39998
      H   19    0.09898      0.00000     0.40014    0.00089     0.40102
      H   20    0.09315      0.00000     0.40487    0.00197     0.40685
      H   21    0.09471      0.00000     0.40421    0.00108     0.40529
      H   22    0.09998      0.00000     0.39880    0.00122     0.40002
      H   23    0.09818      0.00000     0.40077    0.00104     0.40182
      H   24    0.09841      0.00000     0.40001    0.00158     0.40159
      H   25    0.09791      0.00000     0.40046    0.00163     0.40209
      H   26    0.10086      0.00000     0.39585    0.00329     0.39914
      H   27    0.09913      0.00000     0.39957    0.00130     0.40087
      H   28    0.09983      0.00000     0.39885    0.00132     0.40017
      H   29    0.10247      0.00000     0.39630    0.00123     0.39753
      H   30    0.10555      0.00000     0.39321    0.00123     0.39445
      H   31    0.10281      0.00000     0.39569    0.00150     0.39719
      H   32    0.06100      0.00000     0.43595    0.00306     0.43900
 =======================================================================
   * Total *    0.00000     13.99630    31.88654    0.11716    46.00000

 Normal termination of Gaussian 16 at Tue Dec  8 15:34:10 2020.
