 Gaussian 16, Revision A.03,

 -----------------------------------------------------------
 # opt freq B3LYP/6-31G(d) empiricaldispersion=gd3bj scf=xqc
 -----------------------------------------------------------

 ------------------------------
 CID_14713245_JID_4734_neutraal
 ------------------------------
 Symbolic Z-matrix:
 Charge =  0 Multiplicity = 1

 SCF Done:  E(RB3LYP) =  -543.093605363     A.U. after   15 cycles
 SCF Done:  E(RB3LYP) =  -543.114477445     A.U. after   13 cycles
 SCF Done:  E(RB3LYP) =  -543.116447241     A.U. after   13 cycles
 SCF Done:  E(RB3LYP) =  -543.108670082     A.U. after   15 cycles
 SCF Done:  E(RB3LYP) =  -543.117113389     A.U. after   12 cycles
 SCF Done:  E(RB3LYP) =  -543.117296679     A.U. after   12 cycles
 SCF Done:  E(RB3LYP) =  -543.116275316     A.U. after   15 cycles
 SCF Done:  E(RB3LYP) =  -543.117495152     A.U. after   12 cycles
 SCF Done:  E(RB3LYP) =  -543.117518790     A.U. after   11 cycles
 SCF Done:  E(RB3LYP) =  -543.117526417     A.U. after   10 cycles
 SCF Done:  E(RB3LYP) =  -543.117528465     A.U. after    7 cycles
 SCF Done:  E(RB3LYP) =  -543.117528512     A.U. after    7 cycles
 SCF Done:  E(RB3LYP) =  -543.117528569     A.U. after    7 cycles
 SCF Done:  E(RB3LYP) =  -543.117528608     A.U. after    7 cycles
 SCF Done:  E(RB3LYP) =  -543.117528627     A.U. after    7 cycles
 Optimization completed.
    -- Stationary point found.
 Normal termination of Gaussian 16 at Thu Dec 10 10:32:29 2020.

 --------------------------------------------------------------------
 #N Geom=AllCheck Guess=TCheck SCRF=Check GenChk RB3LYP/6-31G(d) Freq
 --------------------------------------------------------------------

 Structure from the checkpoint file:  "JID_4734.chk"
 ------------------------------
 CID_14713245_JID_4734_neutraal
 ------------------------------
 Charge =  0 Multiplicity = 1

 SCF Done:  E(RB3LYP) =  -543.117528627     A.U. after    1 cycles

  Exact polarizability: 300.937  -5.604 132.734  -0.343   0.028  75.320
 Approx polarizability: 417.859 -16.161 216.621  -0.436   0.033 106.805

                      1                      2                      3
                      A                      A                      A
 Frequencies --      8.4209                38.1890                44.7599
 Red. masses --      3.0368                 3.5385                 4.0135
 Frc consts  --      0.0001                 0.0030                 0.0047
 IR Inten    --      0.0005                 0.2780                 0.3758

                      4                      5                      6
                      A                      A                      A
 Frequencies --     50.3368               126.3031               128.5650
 Red. masses --      3.1569                 2.9368                 3.6049
 Frc consts  --      0.0047                 0.0276                 0.0351
 IR Inten    --      0.2491                 0.0803                 0.3532

                      7                      8                      9
                      A                      A                      A
 Frequencies --    184.8371               226.7417               242.8191
 Red. masses --      4.3864                 1.0137                 3.0186
 Frc consts  --      0.0883                 0.0307                 0.1049
 IR Inten    --      0.0044                 0.0003                 0.0053

                     10                     11                     12
                      A                      A                      A
 Frequencies --    281.1529               281.7815               298.7509
 Red. masses --      1.0528                 1.0549                 3.8927
 Frc consts  --      0.0490                 0.0493                 0.2047
 IR Inten    --      0.0024                 0.0204                 0.6170

                     13                     14                     15
                      A                      A                      A
 Frequencies --    344.5999               357.8367               400.6528
 Red. masses --      2.6447                 2.4079                 3.4098
 Frc consts  --      0.1850                 0.1817                 0.3225
 IR Inten    --      0.3545                 0.2055                 0.0388

                     16                     17                     18
                      A                      A                      A
 Frequencies --    414.2950               414.4054               469.8480
 Red. masses --      3.1915                 3.2516                 4.4382
 Frc consts  --      0.3228                 0.3290                 0.5773
 IR Inten    --      0.7383                 1.0055                 5.0565

                     19                     20                     21
                      A                      A                      A
 Frequencies --    521.3629               556.5298               565.2030
 Red. masses --      3.4492                 5.2472                 5.4122
 Frc consts  --      0.5524                 0.9575                 1.0187
 IR Inten    --      7.0710                 4.5527                 0.1213

                     22                     23                     24
                      A                      A                      A
 Frequencies --    600.2471               636.1404               700.2774
 Red. masses --      4.5386                 6.3953                 4.6658
 Frc consts  --      0.9635                 1.5248                 1.3481
 IR Inten    --      6.3864                 0.0061                 1.5266

                     25                     26                     27
                      A                      A                      A
 Frequencies --    703.2722               766.8656               847.7232
 Red. masses --      1.8712                 1.7513                 1.3205
 Frc consts  --      0.5453                 0.6068                 0.5591
 IR Inten    --     20.0596                34.5055                 0.0008

                     28                     29                     30
                      A                      A                      A
 Frequencies --    848.6289               870.2945               883.5709
 Red. masses --      3.1446                 1.8079                 3.1753
 Frc consts  --      1.3343                 0.8068                 1.4606
 IR Inten    --      5.8852                 0.0267                 4.5687

                     31                     32                     33
                      A                      A                      A
 Frequencies --    922.3310               941.7428               943.3197
 Red. masses --      1.4799                 1.8052                 1.7907
 Frc consts  --      0.7417                 0.9433                 0.9388
 IR Inten    --      0.3408                 0.4824                 0.6307

                     34                     35                     36
                      A                      A                      A
 Frequencies --    962.2975               979.9151               987.1337
 Red. masses --      1.3495                 1.1957                 1.2057
 Frc consts  --      0.7363                 0.6764                 0.6922
 IR Inten    --      0.0051                 0.0003                 9.3741

                     37                     38                     39
                      A                      A                      A
 Frequencies --   1002.1378              1018.7908              1060.7092
 Red. masses --      1.1625                 5.9813                 2.2203
 Frc consts  --      0.6879                 3.6577                 1.4718
 IR Inten    --     21.0410                 0.0173                 1.5144

                     40                     41                     42
                      A                      A                      A
 Frequencies --   1062.4080              1064.0980              1113.7218
 Red. masses --      1.3888                 1.3908                 1.7706
 Frc consts  --      0.9235                 0.9278                 1.2940
 IR Inten    --      0.2286                 0.8223                 3.0276

                     43                     44                     45
                      A                      A                      A
 Frequencies --   1136.3776              1194.4054              1218.2925
 Red. masses --      2.4712                 1.0961                 1.1503
 Frc consts  --      1.8802                 0.9213                 1.0059
 IR Inten    --      3.7053                 0.1056                 0.0715

                     46                     47                     48
                      A                      A                      A
 Frequencies --   1238.5247              1240.7066              1248.6138
 Red. masses --      2.5927                 2.6131                 2.0153
 Frc consts  --      2.3432                 2.3699                 1.8511
 IR Inten    --      5.0601                 6.4771                 3.4910

                     49                     50                     51
                      A                      A                      A
 Frequencies --   1305.9450              1326.6550              1347.3309
 Red. masses --      1.9834                 3.3886                 1.4226
 Frc consts  --      1.9930                 3.5139                 1.5216
 IR Inten    --     42.6496                44.3982                 2.3192

                     52                     53                     54
                      A                      A                      A
 Frequencies --   1374.1475              1378.6579              1421.7441
 Red. masses --      3.2062                 1.3504                 1.2127
 Frc consts  --      3.5670                 1.5122                 1.4443
 IR Inten    --      0.3167                 1.5619                 3.2831

                     55                     56                     57
                      A                      A                      A
 Frequencies --   1422.3985              1453.7410              1499.2632
 Red. masses --      1.2147                 1.2156                 2.2852
 Frc consts  --      1.4480                 1.5137                 3.0264
 IR Inten    --      4.1960                 0.0960                 5.0098

                     58                     59                     60
                      A                      A                      A
 Frequencies --   1506.1642              1516.4620              1516.6885
 Red. masses --      1.0490                 1.0450                 1.0449
 Frc consts  --      1.4021                 1.4160                 1.4161
 IR Inten    --      0.0012                 0.2699                 0.1120

                     61                     62                     63
                      A                      A                      A
 Frequencies --   1529.2946              1529.4939              1547.4689
 Red. masses --      1.0509                 1.0505                 1.3393
 Frc consts  --      1.4481                 1.4479                 1.8896
 IR Inten    --      6.1757                 5.6318                 1.3072

                     64                     65                     66
                      A                      A                      A
 Frequencies --   1549.2278              1635.1686              1662.3409
 Red. masses --      1.5501                 5.1098                 5.3984
 Frc consts  --      2.1920                 8.0497                 8.7894
 IR Inten    --     12.7357                 1.5438                 9.8343

                     67                     68                     69
                      A                      A                      A
 Frequencies --   1689.6580              2329.3017              3047.7011
 Red. masses --      5.3571                11.9361                 1.0348
 Frc consts  --      9.0110                38.1560                 5.6633
 IR Inten    --      2.5546                13.7822                22.1386

                     70                     71                     72
                      A                      A                      A
 Frequencies --   3048.0133              3054.7753              3118.2648
 Red. masses --      1.0347                 1.0356                 1.1018
 Frc consts  --      5.6635                 5.6937                 6.3123
 IR Inten    --     21.9226                59.5342                 5.6217

                     73                     74                     75
                      A                      A                      A
 Frequencies --   3118.4471              3124.9710              3129.3316
 Red. masses --      1.1020                 1.1012                 1.1042
 Frc consts  --      6.3142                 6.3361                 6.3711
 IR Inten    --      5.6977                91.8001                 0.7638

                     76                     77                     78
                      A                      A                      A
 Frequencies --   3133.0672              3133.6867              3158.1876
 Red. masses --      1.1031                 1.1031                 1.0883
 Frc consts  --      6.3796                 6.3824                 6.3954
 IR Inten    --     40.8832                38.3293                11.8747

                     79                     80                     81
                      A                      A                      A
 Frequencies --   3172.4928              3179.9725              3186.4119
 Red. masses --      1.0874                 1.0857                 1.0868
 Frc consts  --      6.4485                 6.4687                 6.5012
 IR Inten    --     14.0968                14.3347                 0.3222

                     82                     83                     84
                      A                      A                      A
 Frequencies --   3196.2372              3205.3651              3213.3497
 Red. masses --      1.0908                 1.0931                 1.0976
 Frc consts  --      6.5656                 6.6168                 6.6776
 IR Inten    --     17.1386                37.0969                25.5372

 - Thermochemistry -
 -------------------
 Temperature   298.150 Kelvin.  Pressure   1.00000 Atm.
 Atom     1 has atomic number  6 and mass  12.00000

 Molecular mass:   184.12520 amu.
 Principal axes and moments of inertia in atomic units:
                           1         2         3
     Eigenvalues --   760.381599041.505019402.67497
           X            1.00000   0.00162  -0.00001
           Y           -0.00162   1.00000  -0.00002
           Z            0.00001   0.00002   1.00000
 This molecule is an asymmetric top.
 Rotational symmetry number  1.
 Warning -- assumption of classical behavior for rotation
           may cause significant error
 Rotational temperatures (Kelvin)      0.11391     0.00958     0.00921
 Rotational constants (GHZ):           2.37347     0.19961     0.19194
 Zero-point vibrational energy     675359.9 (Joules/Mol)
                                  161.41490 (Kcal/Mol)
 Warning -- explicit consideration of  22 degrees of freedom as
           vibrations may cause significant error
 Vibrational temperatures:     12.12    54.95    64.40    72.42   181.72
          (Kelvin)            184.98   265.94   326.23   349.36   404.52
                              405.42   429.84   495.80   514.85   576.45
                              596.08   596.24   676.01   750.12   800.72
                              813.20   863.62   915.26  1007.54  1011.85
                             1103.35  1219.68  1220.99  1252.16  1271.26
                             1327.03  1354.96  1357.23  1384.53  1409.88
                             1420.27  1441.85  1465.81  1526.12  1528.57
                             1531.00  1602.40  1634.99  1718.48  1752.85
                             1781.96  1785.10  1796.48  1878.96  1908.76
                             1938.51  1977.09  1983.58  2045.57  2046.51
                             2091.61  2157.11  2167.03  2181.85  2182.18
                             2200.31  2200.60  2226.46  2228.99  2352.64
                             2391.74  2431.04  3351.35  4384.96  4385.41
                             4395.14  4486.49  4486.75  4496.14  4502.41
                             4507.78  4508.68  4543.93  4564.51  4575.27
                             4584.54  4598.67  4611.81  4623.29

 Zero-point correction=                           0.257231 (Hartree/Particle)
 Thermal correction to Energy=                    0.271760
 Thermal correction to Enthalpy=                  0.272705
 Thermal correction to Gibbs Free Energy=         0.213083
 Sum of electronic and zero-point Energies=           -542.860298
 Sum of electronic and thermal Energies=              -542.845768
 Sum of electronic and thermal Enthalpies=            -542.844824
 Sum of electronic and thermal Free Energies=         -542.904446

                     E (Thermal)             CV                S
                      KCal/Mol        Cal/Mol-Kelvin    Cal/Mol-Kelvin
 Total                  170.532             54.374            125.484
 Electronic               0.000              0.000              0.000
 Translational            0.889              2.981             41.538
 Rotational               0.889              2.981             32.536
 Vibrational            168.755             48.412             51.411
 Vibration     1          0.593              1.987              8.353
 Vibration     2          0.594              1.982              5.351
 Vibration     3          0.595              1.979              5.036
 Vibration     4          0.595              1.977              4.804
 Vibration     5          0.611              1.927              3.002
 Vibration     6          0.611              1.925              2.967
 Vibration     7          0.631              1.861              2.279
 Vibration     8          0.650              1.800              1.905
 Vibration     9          0.659              1.775              1.782
 Vibration    10          0.681              1.709              1.527
 Vibration    11          0.681              1.707              1.523
 Vibration    12          0.692              1.676              1.424
 Vibration    13          0.723              1.586              1.191
 Vibration    14          0.733              1.559              1.131
 Vibration    15          0.766              1.469              0.960
 Vibration    16          0.778              1.439              0.912
 Vibration    17          0.778              1.439              0.911
 Vibration    18          0.827              1.317              0.738
 Vibration    19          0.876              1.203              0.607
 Vibration    20          0.912              1.125              0.531
 Vibration    21          0.921              1.107              0.514
 Vibration    22          0.958              1.031              0.449

 Optimization completed.
    -- Stationary point found.
 Normal termination of Gaussian 16 at Thu Dec 10 10:39:57 2020.

 ----------------------------------------------------------------------
 # B3LYP/6-311++G(d,p) empiricaldispersion=gd3bj scf=xqc pop=npa geom=c
 heck
 ----------------------------------------------------------------------

 --------------------------------------
 CID_14713245_JID_4734_Energie_neutraal
 --------------------------------------
 Structure from the checkpoint file:  "JID_4734.chk"
 Charge =  0 Multiplicity = 1

 SCF Done:  E(RB3LYP) =  -543.261482524     A.U. after   14 cycles
 Normal termination of Gaussian 16 at Thu Dec 10 10:43:50 2020.

 ----------------------------------------------------------------------
 # B3LYP/6-311++G(d,p) empiricaldispersion=gd3bj scf=xqc pop=npa geom=c
 heck
 ----------------------------------------------------------------------

 ------------------------------------
 CID_14713245_JID_4734_Energie_kation
 ------------------------------------
 Structure from the checkpoint file:  "JID_4734.chk"
 Charge =  1 Multiplicity = 2

 SCF Done:  E(UB3LYP) =  -542.986457216     A.U. after   20 cycles
 Normal termination of Gaussian 16 at Thu Dec 10 10:51:28 2020.
 Gaussian 16:  ES64L-G16RevA.03 25-Dec-2016

 ----------------------------------------------------------------------
 # B3LYP/6-311++G(d,p) empiricaldispersion=gd3bj scf=xqc pop=npa geom=c
 heck
 ----------------------------------------------------------------------

 -----------------------------------
 CID_14713245_JID_4734_Energie_anion
 -----------------------------------
 Structure from the checkpoint file:  "JID_4734.chk"
 Charge = -1 Multiplicity = 2

                         Standard orientation:
 ---------------------------------------------------------------------
 Center     Atomic      Atomic             Coordinates (Angstroms)
 Number     Number       Type             X           Y           Z
 ---------------------------------------------------------------------
      1          6           0        4.387943    0.641227   -1.366034
      2          6           0        3.971411    0.052126    0.000360
      3          6           0        4.717839   -1.277847    0.241211
      4          6           0        4.319262    1.054244    1.123378
      5          6           0        2.522609   -0.194039    0.001128
      6          6           0        1.322744   -0.382479    0.000971
      7          6           0       -0.070834   -0.635767    0.001209
      8          6           0       -1.011050    0.335148   -0.000696
      9          6           0       -2.461436    0.153156   -0.000471
     10          6           0       -3.284583    1.293578    0.000031
     11          6           0       -4.672873    1.182680    0.000477
     12          6           0       -5.273213   -0.076293    0.000337
     13          6           0       -4.470225   -1.220939   -0.000313
     14          6           0       -3.084569   -1.109600   -0.000743
     15          1           0        5.467659    0.831690   -1.377904
     16          1           0        3.867352    1.584715   -1.558275
     17          1           0        4.149340   -0.052397   -2.178474
     18          1           0        5.800512   -1.105398    0.241951
     19          1           0        4.436175   -1.713794    1.205020
     20          1           0        4.483696   -2.003868   -0.543912
     21          1           0        3.797368    2.004558    0.972532
     22          1           0        4.031316    0.657900    2.102216
     23          1           0        5.398340    1.248277    1.131116
     24          1           0       -0.369254   -1.683229    0.003296
     25          1           0       -0.669402    1.368516   -0.002319
     26          1           0       -2.820879    2.276937    0.000169
     27          1           0       -5.285500    2.079919    0.000932
     28          1           0       -6.355510   -0.167844    0.000648
     29          1           0       -4.929192   -2.205779   -0.000563
     30          1           0       -2.480177   -2.011369   -0.001489
 ---------------------------------------------------------------------

 SCF Done:  E(UB3LYP) =  -543.266606526     A.U. after   33 cycles
 SCF Done:  E(UB3LYP) =  -543.266606526     a.u. after    1 cycles

 The electronic state is 2-A.
 Alpha  occ. eigenvalues --  -10.09644 -10.06494 -10.06218 -10.06066 -10.03191
 Alpha  occ. eigenvalues --  -10.02856 -10.02290 -10.02163 -10.01920 -10.01830
 Alpha  occ. eigenvalues --  -10.01729 -10.00835 -10.00544 -10.00434  -0.72196
 Alpha  occ. eigenvalues --   -0.70985  -0.64735  -0.60747  -0.60093  -0.59039
 Alpha  occ. eigenvalues --   -0.58832  -0.56510  -0.49386  -0.46887  -0.45784
 Alpha  occ. eigenvalues --   -0.41976  -0.37584  -0.36912  -0.34200  -0.34119
 Alpha  occ. eigenvalues --   -0.33690  -0.31580  -0.29901  -0.29626  -0.29550
 Alpha  occ. eigenvalues --   -0.27869  -0.27144  -0.27080  -0.25393  -0.24112
 Alpha  occ. eigenvalues --   -0.24096  -0.23178  -0.22819  -0.20169  -0.19360
 Alpha  occ. eigenvalues --   -0.18225  -0.13378  -0.11900  -0.11568  -0.06733
 Alpha  occ. eigenvalues --    0.04966
 Alpha virt. eigenvalues --    0.06670   0.08897   0.09035   0.09187   0.09915
 Alpha virt. eigenvalues --    0.10165   0.11276   0.11764   0.11872   0.12453
 Alpha virt. eigenvalues --    0.12644   0.13086   0.13321   0.13830   0.14714

  Beta  occ. eigenvalues --  -10.09665 -10.06491 -10.06200 -10.06035 -10.03276
  Beta  occ. eigenvalues --  -10.02860 -10.02207 -10.02046 -10.01984 -10.01544
  Beta  occ. eigenvalues --  -10.01536 -10.00513 -10.00299 -10.00193  -0.72092
  Beta  occ. eigenvalues --   -0.70662  -0.64139  -0.60361  -0.59832  -0.59022
  Beta  occ. eigenvalues --   -0.58777  -0.56051  -0.48903  -0.46595  -0.45614
  Beta  occ. eigenvalues --   -0.41594  -0.37517  -0.36711  -0.34134  -0.34090
  Beta  occ. eigenvalues --   -0.33461  -0.31351  -0.29783  -0.29542  -0.29476
  Beta  occ. eigenvalues --   -0.27809  -0.27062  -0.26928  -0.25236  -0.24083
  Beta  occ. eigenvalues --   -0.23979  -0.22635  -0.22246  -0.19970  -0.19227
  Beta  occ. eigenvalues --   -0.16843  -0.12037  -0.11794  -0.10857  -0.04948
  Beta virt. eigenvalues --    0.06608   0.08856   0.08932   0.09052   0.09827
  Beta virt. eigenvalues --    0.10105   0.10603   0.11233   0.11694   0.11836
  Beta virt. eigenvalues --    0.12361   0.12859   0.13094   0.13273   0.13734

 Mulliken charges and spin densities:
               1          2
     1  C   -0.507261  -0.143514
     2  C    0.939229   0.128274
     3  C   -0.653952  -0.005728
     4  C   -0.634353  -0.007530
     5  C   -0.361853   0.142732
     6  C    0.244235  -0.035203
     7  C   -0.465410   0.243633
     8  C   -0.392274   0.124218
     9  C    1.515511   0.056906
    10  C    0.216334   0.094429
    11  C   -0.356484   0.003000
    12  C   -0.439793   0.229469
    13  C   -0.465777  -0.052449
    14  C   -1.301093   0.163697
    15  H    0.039043   0.082110
    16  H    0.123541   0.014071
    17  H    0.124947   0.014865
    18  H    0.128425   0.001266
    19  H    0.136409  -0.000252
    20  H    0.134898   0.001904
    21  H    0.136329  -0.000291
    22  H    0.132989   0.003646
    23  H    0.115903   0.007079
    24  H    0.097052  -0.018289
    25  H    0.031165  -0.018752
    26  H    0.107273  -0.001724
    27  H    0.105688  -0.001265
    28  H    0.085984  -0.018178
    29  H    0.132032   0.004725
    30  H    0.031263  -0.012846
 Sum of Mulliken charges =  -1.00000   1.00000

 Dipole moment (field-independent basis, Debye):
    X=              5.4290    Y=              0.3054    Z=              0.2653  Tot=              5.4441
 Quadrupole moment (field-independent basis, Debye-Ang):
   XX=           -148.3159   YY=            -92.3911   ZZ=           -100.0153
   XY=              0.0790   XZ=              1.6332   YZ=              0.3170

 Summary of Natural Population Analysis:

                                       Natural Population
                Natural  -----------------------------------------------
    Atom  No    Charge         Core      Valence    Rydberg      Total
 -----------------------------------------------------------------------
      C    1   -0.28161      0.99967     2.27239    0.00955     3.28161
      C    2   -0.01425      0.99955     2.00283    0.01187     3.01425
      C    3   -0.28396      0.99967     2.27479    0.00950     3.28396
      C    4   -0.28246      0.99967     2.27319    0.00959     3.28246
      C    5   -0.04080      0.99938     2.02089    0.02053     3.04080
      C    6    0.02943      0.99928     1.96094    0.01034     2.97057
      C    7   -0.09953      0.99952     2.08647    0.01355     3.09953
      C    8   -0.03725      0.99952     2.02777    0.00996     3.03725
      C    9   -0.01826      0.99951     2.00959    0.00916     3.01826
      C   10   -0.07879      0.99954     2.07058    0.00867     3.07879
      C   11   -0.11744      0.99957     2.10822    0.00964     3.11744
      C   12   -0.06610      0.99957     2.05612    0.01041     3.06610
      C   13   -0.12753      0.99958     2.11844    0.00951     3.12753
      C   14   -0.05737      0.99953     2.04956    0.00828     3.05737
      H   15    0.08806      0.00000     0.41016    0.00178     0.41194
      H   16    0.10075      0.00000     0.39805    0.00121     0.39925
      H   17    0.10053      0.00000     0.39825    0.00122     0.39947
      H   18    0.08854      0.00000     0.40997    0.00148     0.41146
      H   19    0.09991      0.00000     0.39870    0.00139     0.40009
      H   20    0.10000      0.00000     0.39874    0.00126     0.40000
      H   21    0.10046      0.00000     0.39835    0.00119     0.39954
      H   22    0.10020      0.00000     0.39845    0.00136     0.39980
      H   23    0.08800      0.00000     0.41048    0.00152     0.41200
      H   24    0.09122      0.00000     0.40671    0.00207     0.40878
      H   25    0.08301      0.00000     0.41531    0.00168     0.41699
      H   26    0.08908      0.00000     0.40950    0.00143     0.41092
      H   27    0.08851      0.00000     0.41038    0.00111     0.41149
      H   28    0.08538      0.00000     0.41355    0.00108     0.41462
      H   29    0.08914      0.00000     0.40978    0.00108     0.41086
      H   30    0.09113      0.00000     0.40749    0.00138     0.40887
 =======================================================================
   * Total *    0.00798     13.99357    35.82564    0.17281    49.99202

 Normal termination of Gaussian 16 at Thu Dec 10 11:03:48 2020.
