 Gaussian 16, Revision A.03,

 -----------------------------------------------------------
 # opt freq B3LYP/6-31G(d) empiricaldispersion=gd3bj scf=xqc
 -----------------------------------------------------------

 ---------------------------
 CID_531176_JID_919_neutraal
 ---------------------------
 Symbolic Z-matrix:
 Charge =  0 Multiplicity = 1

 SCF Done:  E(RB3LYP) =  -461.224257827     A.U. after   15 cycles
 SCF Done:  E(RB3LYP) =  -461.243157899     A.U. after   13 cycles
 SCF Done:  E(RB3LYP) =  -461.244408478     A.U. after   13 cycles
 SCF Done:  E(RB3LYP) =  -461.244042191     A.U. after   12 cycles
 SCF Done:  E(RB3LYP) =  -461.243494718     A.U. after   13 cycles
 SCF Done:  E(RB3LYP) =  -461.242988222     A.U. after   12 cycles
 SCF Done:  E(RB3LYP) =  -461.244483849     A.U. after    9 cycles
 SCF Done:  E(RB3LYP) =  -461.244800242     A.U. after   12 cycles
 SCF Done:  E(RB3LYP) =  -461.244941997     A.U. after   11 cycles
 SCF Done:  E(RB3LYP) =  -461.245414215     A.U. after   12 cycles
 SCF Done:  E(RB3LYP) =  -461.253062798     A.U. after   12 cycles
 SCF Done:  E(RB3LYP) =  -461.253093942     A.U. after   10 cycles
 SCF Done:  E(RB3LYP) =  -461.253097931     A.U. after   10 cycles
 SCF Done:  E(RB3LYP) =  -461.253098825     A.U. after    8 cycles
 SCF Done:  E(RB3LYP) =  -461.253098886     A.U. after    7 cycles
 Optimization completed.
    -- Stationary point found.

 1\1\GINC-NODE202\FOpt\RB3LYP\6-31G(d)\C8H10O2\VSC10255\08-Dec-2020\0\\
 # opt freq B3LYP/6-31G(d) empiricaldispersion=gd3bj scf=xqc\\CID_53117
 6_JID_919_neutraal\\0,1\C,0.9747353126,0.380665285,0.3738285726\C,0.39
 44771107,-1.0355519549,0.3566660715\C,0.820368557,-1.8501518608,1.4964
 036076\C,1.2242319846,-2.5475544352,2.3937465411\O,-1.051217651,-1.030
 6036444,0.2008607854\C,-1.811838374,-0.5339172128,1.2154931204\O,-1.36
 14963821,-0.052718106,2.2320019406\C,-3.2613220975,-0.6582668616,0.918
 9917883\C,-3.7726014179,-0.5495273365,-0.5090283912\C,-3.7892312222,-1

 Normal termination of Gaussian 16 at Tue Dec  8 13:42:54 2020.

 --------------------------------------------------------------------
 #N Geom=AllCheck Guess=TCheck SCRF=Check GenChk RB3LYP/6-31G(d) Freq
 --------------------------------------------------------------------

 Structure from the checkpoint file:  "JID_919.chk"
 ---------------------------
 CID_531176_JID_919_neutraal
 ---------------------------
 Charge =  0 Multiplicity = 1

 SCF Done:  E(RB3LYP) =  -461.253098886     A.U. after    1 cycles

  Exact polarizability:  98.001  -8.984  81.298   3.109  -3.434  67.182
 Approx polarizability: 123.191 -21.012 120.624  11.393 -10.341 108.660

                      1                      2                      3
                      A                      A                      A
 Frequencies --     38.4461                84.1417               112.9714
 Red. masses --      4.2463                 2.9936                 5.6399
 Frc consts  --      0.0037                 0.0125                 0.0424
 IR Inten    --      0.8092                 0.4747                 1.8095

                      4                      5                      6
                      A                      A                      A
 Frequencies --    156.5765               162.6077               214.9271
 Red. masses --      3.9887                 3.6086                 1.8878
 Frc consts  --      0.0576                 0.0562                 0.0514
 IR Inten    --      2.1177                 1.2303                 0.6424

                      7                      8                      9
                      A                      A                      A
 Frequencies --    248.2848               260.3358               292.4529
 Red. masses --      2.2756                 1.9092                 3.8526
 Frc consts  --      0.0827                 0.0762                 0.1941
 IR Inten    --      2.7188                 0.5674                 1.5553

                     10                     11                     12
                      A                      A                      A
 Frequencies --    400.3672               471.1159               508.8378
 Red. masses --      3.7996                 6.0813                 5.2580
 Frc consts  --      0.3588                 0.7953                 0.8021
 IR Inten    --      4.3504                10.2202                 8.9194

                     13                     14                     15
                      A                      A                      A
 Frequencies --    542.3568               601.4451               657.3916
 Red. masses --      4.3308                 1.2168                 1.3264
 Frc consts  --      0.7506                 0.2593                 0.3377
 IR Inten    --      6.9305                47.4961                33.0124

                     16                     17                     18
                      A                      A                      A
 Frequencies --    681.1724               741.2339               791.3196
 Red. masses --      2.3790                 3.9276                 3.4077
 Frc consts  --      0.6504                 1.2714                 1.2572
 IR Inten    --      7.3892                 9.5135                 2.5362

                     19                     20                     21
                      A                      A                      A
 Frequencies --    802.6910               840.0867               862.6883
 Red. masses --      1.2090                 1.8776                 2.8563
 Frc consts  --      0.4590                 0.7807                 1.2524
 IR Inten    --      0.5162                 6.6317                 1.2588

                     22                     23                     24
                      A                      A                      A
 Frequencies --    925.8502               931.3795               966.3656
 Red. masses --      2.4415                 2.5360                 2.8826
 Frc consts  --      1.2331                 1.2961                 1.5860
 IR Inten    --     28.0280                 2.7463                22.7602

                     25                     26                     27
                      A                      A                      A
 Frequencies --   1055.8295              1070.6583              1094.4765
 Red. masses --      1.9519                 1.5603                 1.3824
 Frc consts  --      1.2821                 1.0538                 0.9757
 IR Inten    --     33.1802                67.6411                22.5483

                     28                     29                     30
                      A                      A                      A
 Frequencies --   1094.7977              1122.1052              1140.8051
 Red. masses --      1.7174                 2.0267                 1.1023
 Frc consts  --      1.2128                 1.5035                 0.8452
 IR Inten    --    104.1775                36.0897                 1.6049

                     31                     32                     33
                      A                      A                      A
 Frequencies --   1164.1564              1219.4739              1231.3367
 Red. masses --      2.1411                 1.3725                 2.1796
 Frc consts  --      1.7096                 1.2026                 1.9471
 IR Inten    --    102.3487                 0.5730                 3.0237

                     34                     35                     36
                      A                      A                      A
 Frequencies --   1286.9574              1368.0194              1394.6578
 Red. masses --      2.2496                 1.3578                 1.5224
 Frc consts  --      2.1952                 1.4972                 1.7447
 IR Inten    --    262.1413                18.1452                 6.6048

                     37                     38                     39
                      A                      A                      A
 Frequencies --   1405.1698              1426.5401              1487.8172
 Red. masses --      1.6813                 1.2439                 1.0880
 Frc consts  --      1.9560                 1.4914                 1.4190
 IR Inten    --     48.6639                17.8661                 2.3142

                     40                     41                     42
                      A                      A                      A
 Frequencies --   1512.1265              1525.6397              1536.7856
 Red. masses --      1.0458                 1.3097                 1.0522
 Frc consts  --      1.4088                 1.7961                 1.4641
 IR Inten    --      8.1116                 0.7133                 5.5841

                     43                     44                     45
                      A                      A                      A
 Frequencies --   1824.4038              2246.2675              3070.6972
 Red. masses --     11.4289                 5.9460                 1.0437
 Frc consts  --     22.4128                17.6767                 5.7985
 IR Inten    --    247.8141                 2.8830                12.7578

                     46                     47                     48
                      A                      A                      A
 Frequencies --   3076.8729              3137.5703              3162.8966
 Red. masses --      1.0779                 1.1031                 1.0510
 Frc consts  --      6.0122                 6.3981                 6.1948
 IR Inten    --     19.4348                22.3504                14.9612

                     49                     50                     51
                      A                      A                      A
 Frequencies --   3165.5002              3191.2583              3213.6606
 Red. masses --      1.0587                 1.1004                 1.0911
 Frc consts  --      6.2506                 6.6030                 6.6393
 IR Inten    --      8.9182                 3.9034                 2.7965

                     52                     53                     54
                      A                      A                      A
 Frequencies --   3245.2802              3258.3337              3497.1791
 Red. masses --      1.1194                 1.1159                 1.1613
 Frc consts  --      6.9460                 6.9804                 8.3680
 IR Inten    --      0.1020                11.4181                52.2176

 - Thermochemistry -
 -------------------
 Temperature   298.150 Kelvin.  Pressure   1.00000 Atm.
 Atom     1 has atomic number  6 and mass  12.00000

 Molecular mass:   138.06808 amu.
 Principal axes and moments of inertia in atomic units:
                           1         2         3
     Eigenvalues --   733.084372153.115102294.99750
           X            0.99985   0.01674   0.00521
           Y           -0.01674   0.99986   0.00019
           Z           -0.00520  -0.00028   0.99999
 This molecule is an asymmetric top.
 Rotational symmetry number  1.
 Warning -- assumption of classical behavior for rotation
           may cause significant error
 Rotational temperatures (Kelvin)      0.11815     0.04023     0.03774
 Rotational constants (GHZ):           2.46185     0.83820     0.78638
 Zero-point vibrational energy     427798.5 (Joules/Mol)
                                  102.24629 (Kcal/Mol)
 Warning -- explicit consideration of  14 degrees of freedom as
           vibrations may cause significant error
 Vibrational temperatures:     55.32   121.06   162.54   225.28   233.96
          (Kelvin)            309.23   357.23   374.57   420.77   576.04
                              677.83   732.10   780.33   865.35   945.84
                              980.06  1066.47  1138.53  1154.89  1208.70
                             1241.22  1332.09  1340.05  1390.38  1519.10
                             1540.44  1574.71  1575.17  1614.46  1641.36
                             1674.96  1754.55  1771.62  1851.64  1968.27
                             2006.60  2021.73  2052.47  2140.64  2175.61
                             2195.06  2211.09  2624.91  3231.88  4418.05
                             4426.93  4514.26  4550.70  4554.45  4591.51
                             4623.74  4669.23  4688.02  5031.66

 Zero-point correction=                           0.162940 (Hartree/Particle)
 Thermal correction to Energy=                    0.173456
 Thermal correction to Enthalpy=                  0.174400
 Thermal correction to Gibbs Free Energy=         0.126540
 Sum of electronic and zero-point Energies=           -461.090159
 Sum of electronic and thermal Energies=              -461.079643
 Sum of electronic and thermal Enthalpies=            -461.078699
 Sum of electronic and thermal Free Energies=         -461.126559

                     E (Thermal)             CV                S
                      KCal/Mol        Cal/Mol-Kelvin    Cal/Mol-Kelvin
 Total                  108.845             38.368            100.731
 Electronic               0.000              0.000              0.000
 Translational            0.889              2.981             40.680
 Rotational               0.889              2.981             29.672
 Vibrational            107.068             32.407             30.379
 Vibration     1          0.594              1.982              5.338
 Vibration     2          0.601              1.960              3.792
 Vibration     3          0.607              1.939              3.217
 Vibration     4          0.620              1.895              2.591
 Vibration     5          0.623              1.888              2.519
 Vibration     6          0.645              1.818              2.001
 Vibration     7          0.662              1.766              1.743
 Vibration     8          0.668              1.745              1.660
 Vibration     9          0.688              1.688              1.460
 Vibration    10          0.766              1.469              0.961
 Vibration    11          0.828              1.314              0.734
 Vibration    12          0.864              1.230              0.636
 Vibration    13          0.897              1.156              0.560
 Vibration    14          0.960              1.029              0.447

 Optimization completed.
    -- Stationary point found.

 1\1\GINC-NODE202\Freq\RB3LYP\6-31G(d)\C8H10O2\VSC10255\08-Dec-2020\0\\
 #N Geom=AllCheck Guess=TCheck SCRF=Check GenChk RB3LYP/6-31G(d) Freq\\
 CID_531176_JID_919_neutraal\\0,1\C,0.9747353126,0.380665285,0.37382857
 26\C,0.3944771107,-1.0355519549,0.3566660715\C,0.820368557,-1.85015186
 08,1.4964036076\C,1.2242319846,-2.5475544352,2.3937465411\O,-1.0512176
 51,-1.0306036444,0.2008607854\C,-1.811838374,-0.5339172128,1.215493120
 4\O,-1.3614963821,-0.052718106,2.2320019406\C,-3.2613220975,-0.6582668
 616,0.9189917883\C,-3.7726014179,-0.5495273365,-0.5090283912\C,-3.7892

 Normal termination of Gaussian 16 at Tue Dec  8 13:46:29 2020.

 ----------------------------------------------------------------------
 # B3LYP/6-311++G(d,p) empiricaldispersion=gd3bj scf=xqc pop=npa geom=c
 heck
 ----------------------------------------------------------------------

 -----------------------------------
 CID_531176_JID_919_Energie_neutraal
 -----------------------------------
 Structure from the checkpoint file:  "JID_919.chk"
 Charge =  0 Multiplicity = 1

 SCF Done:  E(RB3LYP) =  -461.389394621     A.U. after   14 cycles
 Normal termination of Gaussian 16 at Tue Dec  8 13:49:23 2020.

 ----------------------------------------------------------------------
 # B3LYP/6-311++G(d,p) empiricaldispersion=gd3bj scf=xqc pop=npa geom=c
 heck
 ----------------------------------------------------------------------

 ---------------------------------
 CID_531176_JID_919_Energie_kation
 ---------------------------------
 Structure from the checkpoint file:  "JID_919.chk"
 Charge =  1 Multiplicity = 2

 SCF Done:  E(UB3LYP) =  -461.050053716     A.U. after   24 cycles
 Normal termination of Gaussian 16 at Tue Dec  8 13:56:45 2020.
 Gaussian 16:  ES64L-G16RevA.03 25-Dec-2016

 --------------------------------
 CID_531176_JID_919_Energie_anion
 --------------------------------
 Structure from the checkpoint file:  "JID_919.chk"
 Charge = -1 Multiplicity = 2

                         Standard orientation:
 ---------------------------------------------------------------------
 Center     Atomic      Atomic             Coordinates (Angstroms)
 Number     Number       Type             X           Y           Z
 ---------------------------------------------------------------------
      1          6           0        1.900843    1.736246    0.091781
      2          6           0        1.422817    0.512253   -0.693074
      3          6           0        2.168531   -0.707204   -0.375596
      4          6           0        2.825349   -1.697858   -0.170909
      5          8           0       -0.013579    0.317654   -0.578046
      6          6           0       -0.526426   -0.031177    0.634399
      7          8           0        0.132545   -0.151300    1.643844
      8          6           0       -1.993594   -0.246941    0.561989
      9          6           0       -2.850274    0.565557   -0.396353
     10          6           0       -2.614060   -0.882804   -0.672944
     11          1           0        1.827378    1.557254    1.164015
     12          1           0        1.288710    2.602384   -0.178891
     13          1           0        2.942934    1.947659   -0.167514
     14          1           0        1.533686    0.712376   -1.763968
     15          1           0        3.391222   -2.575223    0.045463
     16          1           0       -2.415314   -0.501728    1.527736
     17          1           0       -3.824430    0.877237   -0.031898
     18          1           0       -2.336173    1.292438   -1.015618
     19          1           0       -1.936836   -1.143854   -1.478823
     20          1           0       -3.422033   -1.587804   -0.502644
 ---------------------------------------------------------------------

 SCF Done:  E(UB3LYP) =  -461.372327921     A.U. after   33 cycles
 SCF Done:  E(UB3LYP) =  -461.372327921     a.u. after    1 cycles

 The electronic state is 2-A.
 Alpha  occ. eigenvalues --  -19.06618 -19.00798 -10.20160 -10.15955 -10.09219
 Alpha  occ. eigenvalues --  -10.08214 -10.08113 -10.08029 -10.07165 -10.06699
 Alpha  occ. eigenvalues --   -1.00429  -0.92053  -0.77212  -0.70577  -0.64053
 Alpha  occ. eigenvalues --   -0.58570  -0.54328  -0.50875  -0.48653  -0.43195
 Alpha  occ. eigenvalues --   -0.41996  -0.39658  -0.37815  -0.37592  -0.35876
 Alpha  occ. eigenvalues --   -0.31972  -0.30531  -0.29992  -0.27849  -0.27239
 Alpha  occ. eigenvalues --   -0.26633  -0.22536  -0.21387  -0.20256  -0.19133
 Alpha  occ. eigenvalues --   -0.18474  -0.16484   0.04703
 Alpha virt. eigenvalues --    0.06437   0.07346   0.08463   0.08693   0.09558
 Alpha virt. eigenvalues --    0.10110   0.10322   0.10787   0.11484   0.12170
 Alpha virt. eigenvalues --    0.13196   0.13603   0.14490   0.15596   0.16294

  Beta  occ. eigenvalues --  -19.06611 -19.00790 -10.20159 -10.15931 -10.09209
  Beta  occ. eigenvalues --  -10.08188 -10.08082 -10.08020 -10.07148 -10.06666
  Beta  occ. eigenvalues --   -1.00416  -0.92040  -0.77188  -0.70524  -0.64020
  Beta  occ. eigenvalues --   -0.58529  -0.54268  -0.50788  -0.48610  -0.43147
  Beta  occ. eigenvalues --   -0.41960  -0.39586  -0.37779  -0.37534  -0.35839
  Beta  occ. eigenvalues --   -0.31940  -0.30486  -0.29958  -0.27806  -0.27204
  Beta  occ. eigenvalues --   -0.26606  -0.22500  -0.21366  -0.20227  -0.19090
  Beta  occ. eigenvalues --   -0.18445  -0.16440
  Beta virt. eigenvalues --    0.07105   0.07736   0.08196   0.09033   0.09176
  Beta virt. eigenvalues --    0.10019   0.10582   0.10678   0.11338   0.11739
  Beta virt. eigenvalues --    0.12491   0.13712   0.13818   0.14610   0.15731

 Mulliken charges and spin densities:
               1          2
     1  C    1.240613  -1.836937
     2  C   -1.943533   1.792997
     3  C    2.874318  -2.590952
     4  C   -0.964789   0.728852
     5  O   -0.001590   0.014238
     6  C    1.028298  -1.205793
     7  O   -0.240602   0.008038
     8  C   -2.178120   2.315465
     9  C    1.541257  -1.986444
    10  C    1.047399  -1.459156
    11  H    0.183607   0.008442
    12  H   -0.318633   0.454288
    13  H   -0.439153   0.609913
    14  H   -0.876954   1.109604
    15  H   -0.448966   0.619238
    16  H   -0.484764   0.747946
    17  H   -0.444024   0.609145
    18  H   -0.141145   0.304539
    19  H   -0.028262   0.188963
    20  H   -0.404957   0.567614
 Sum of Mulliken charges =  -1.00000   1.00000

 Dipole moment (field-independent basis, Debye):
    X=              1.3209    Y=             -1.3841    Z=              1.9589  Tot=              2.7383
 Quadrupole moment (field-independent basis, Debye-Ang):
   XX=           -130.1981   YY=            -92.9314   ZZ=            -95.6545
   XY=             -5.5123   XZ=              6.3106   YZ=              4.5906

 Summary of Natural Population Analysis:

                                       Natural Population
                Natural  -----------------------------------------------
    Atom  No    Charge         Core      Valence    Rydberg      Total
 -----------------------------------------------------------------------
      C    1   -0.29016      0.99964     2.28429    0.00623     3.29016
      C    2    0.02516      0.99946     1.95872    0.01666     2.97484
      C    3   -0.00754      0.99934     1.99811    0.01009     3.00754
      C    4   -0.10648      0.99927     2.10386    0.00335     3.10648
      O    5   -0.28591      0.99987     3.27604    0.01001     4.28591
      C    6    0.40840      0.99963     1.56686    0.02511     2.59160
      O    7   -0.30219      0.99987     3.29693    0.00539     4.30219
      C    8   -0.16358      0.99955     2.15191    0.01212     3.16358
      C    9   -0.18624      0.99963     2.17723    0.00939     3.18624
      C   10   -0.18552      0.99963     2.17661    0.00928     3.18552
      H   11    0.11124      0.00000     0.38760    0.00116     0.38876
      H   12    0.10464      0.00000     0.39394    0.00143     0.39536
      H   13    0.10620      0.00000     0.39213    0.00167     0.39380
      H   14    0.11331      0.00000     0.38163    0.00506     0.38669
      H   15    0.10993      0.00000     0.38883    0.00124     0.39007
      H   16    0.11481      0.00000     0.38420    0.00099     0.38519
      H   17    0.10688      0.00000     0.39090    0.00222     0.39312
      H   18    0.11089      0.00000     0.38753    0.00158     0.38911
      H   19    0.10990      0.00000     0.38876    0.00134     0.39010
      H   20    0.10628      0.00000     0.39199    0.00173     0.39372
 =======================================================================
   * Total *   -0.00000      9.99589    26.87807    0.12604    37.00000

 Normal termination of Gaussian 16 at Tue Dec  8 14:05:40 2020.
