 Gaussian 16, Revision A.03,

 -----------------------------------------------------------
 # opt freq B3LYP/6-31G(d) empiricaldispersion=gd3bj scf=xqc
 -----------------------------------------------------------

 ----------------------------
 CID_592305_JID_3461_neutraal
 ----------------------------
 Symbolic Z-matrix:
 Charge =  0 Multiplicity = 1

 SCF Done:  E(RB3LYP) =  -626.219623403     A.U. after   15 cycles
 SCF Done:  E(RB3LYP) =  -626.232228394     A.U. after   13 cycles
 SCF Done:  E(RB3LYP) =  -626.233442495     A.U. after   12 cycles
 SCF Done:  E(RB3LYP) =  -626.233521093     A.U. after   11 cycles
 SCF Done:  E(RB3LYP) =  -626.233577928     A.U. after   11 cycles
 SCF Done:  E(RB3LYP) =  -626.233611369     A.U. after   11 cycles
 SCF Done:  E(RB3LYP) =  -626.233617851     A.U. after   11 cycles
 SCF Done:  E(RB3LYP) =  -626.233628335     A.U. after    9 cycles
 SCF Done:  E(RB3LYP) =  -626.233645305     A.U. after   10 cycles
 SCF Done:  E(RB3LYP) =  -626.233656594     A.U. after   10 cycles
 SCF Done:  E(RB3LYP) =  -626.233670189     A.U. after   11 cycles
 SCF Done:  E(RB3LYP) =  -626.233673912     A.U. after    9 cycles
 SCF Done:  E(RB3LYP) =  -626.233674042     A.U. after    9 cycles
 SCF Done:  E(RB3LYP) =  -626.233674216     A.U. after    8 cycles
 Optimization completed.
    -- Stationary point found.
 Normal termination of Gaussian 16 at Wed Dec  9 23:19:38 2020.

 --------------------------------------------------------------------
 #N Geom=AllCheck Guess=TCheck SCRF=Check GenChk RB3LYP/6-31G(d) Freq
 --------------------------------------------------------------------

 Structure from the checkpoint file:  "JID_3461.chk"
 ----------------------------
 CID_592305_JID_3461_neutraal
 ----------------------------
 Charge =  0 Multiplicity = 1

 SCF Done:  E(RB3LYP) =  -626.233674216     A.U. after    1 cycles

  Exact polarizability: 133.418   1.517  96.932   0.230   4.498  75.041
 Approx polarizability: 188.973   0.447 152.627  -0.846  16.319 109.378

                      1                      2                      3
                      A                      A                      A
 Frequencies --     44.8592                80.7637               105.0355
 Red. masses --      6.0781                 6.2803                 2.4132
 Frc consts  --      0.0072                 0.0241                 0.0157
 IR Inten    --      0.1387                 1.3081                 0.5636

                      4                      5                      6
                      A                      A                      A
 Frequencies --    116.5319               143.7870               152.6974
 Red. masses --      3.0629                 3.6740                 7.2664
 Frc consts  --      0.0245                 0.0448                 0.0998
 IR Inten    --      1.1697                 0.6277                 3.1961

                      7                      8                      9
                      A                      A                      A
 Frequencies --    183.5754               205.8491               234.9248
 Red. masses --      4.9268                 1.8393                 1.0694
 Frc consts  --      0.0978                 0.0459                 0.0348
 IR Inten    --      0.5554                 0.8664                 0.3089

                     10                     11                     12
                      A                      A                      A
 Frequencies --    287.9445               294.5144               324.6701
 Red. masses --      2.4412                 1.9019                 3.1132
 Frc consts  --      0.1193                 0.0972                 0.1933
 IR Inten    --      7.2954                 2.2717                 4.5716

                     13                     14                     15
                      A                      A                      A
 Frequencies --    362.7615               377.0818               419.3570
 Red. masses --      7.2222                 3.6346                 1.4102
 Frc consts  --      0.5600                 0.3045                 0.1461
 IR Inten    --      7.7854                 2.4175               115.2057

                     16                     17                     18
                      A                      A                      A
 Frequencies --    436.5550               458.5462               510.4069
 Red. masses --      2.8381                 7.6158                11.7779
 Frc consts  --      0.3187                 0.9435                 1.8078
 IR Inten    --      2.9256                 1.5428                 5.5676

                     19                     20                     21
                      A                      A                      A
 Frequencies --    564.5224               627.9213               690.6480
 Red. masses --      6.2701                 3.6445                 8.0446
 Frc consts  --      1.1773                 0.8466                 2.2608
 IR Inten    --      3.9841                 7.8268                24.3328

                     22                     23                     24
                      A                      A                      A
 Frequencies --    695.5988               720.1255               752.1305
 Red. masses --      2.9952                 8.7526                 6.4111
 Frc consts  --      0.8539                 2.6743                 2.1368
 IR Inten    --      8.2103                 5.3319                22.5781

                     25                     26                     27
                      A                      A                      A
 Frequencies --    800.7337               806.5622               883.3659
 Red. masses --      1.3302                 1.3961                 3.0848
 Frc consts  --      0.5025                 0.5351                 1.4183
 IR Inten    --      1.1674                 1.3552                46.7997

                     28                     29                     30
                      A                      A                      A
 Frequencies --    954.3751              1015.1400              1026.0850
 Red. masses --      1.7567                 2.0386                 2.1222
 Frc consts  --      0.9427                 1.2378                 1.3164
 IR Inten    --      6.9245                 3.4715                 6.3469

                     31                     32                     33
                      A                      A                      A
 Frequencies --   1053.4717              1068.3545              1100.3451
 Red. masses --      2.3593                 2.5063                 1.8836
 Frc consts  --      1.5427                 1.6855                 1.3437
 IR Inten    --     19.3846                 3.0010                 3.6071

                     34                     35                     36
                      A                      A                      A
 Frequencies --   1111.2104              1188.7676              1204.1527
 Red. masses --      6.2772                 2.2822                 3.1365
 Frc consts  --      4.5668                 1.9002                 2.6795
 IR Inten    --     91.1852                13.7995                 7.7053

                     37                     38                     39
                      A                      A                      A
 Frequencies --   1212.5501              1272.4623              1321.8047
 Red. masses --      2.9377                 3.7804                 1.1899
 Frc consts  --      2.5448                 3.6064                 1.2249
 IR Inten    --     10.6505                50.1996                 2.1859

                     40                     41                     42
                      A                      A                      A
 Frequencies --   1331.2595              1381.5245              1394.7344
 Red. masses --      1.2296                 1.5655                 2.3463
 Frc consts  --      1.2839                 1.7604                 2.6891
 IR Inten    --      6.8183                38.2288               225.5069

                     43                     44                     45
                      A                      A                      A
 Frequencies --   1404.9445              1429.8709              1446.6605
 Red. masses --      2.5931                 1.5867                 1.2511
 Frc consts  --      3.0157                 1.9114                 1.5427
 IR Inten    --    175.4521                 9.4862                 2.3760

                     46                     47                     48
                      A                      A                      A
 Frequencies --   1451.6844              1511.8007              1521.5972
 Red. masses --      1.3859                 1.0630                 1.0732
 Frc consts  --      1.7208                 1.4314                 1.4640
 IR Inten    --     11.9776                 2.0045                 9.0363

                     49                     50                     51
                      A                      A                      A
 Frequencies --   1531.1566              1532.8572              1537.9628
 Red. masses --      1.0551                 1.0405                 1.0429
 Frc consts  --      1.4574                 1.4404                 1.4534
 IR Inten    --     11.1039                 1.5217                 4.1838

                     52                     53                     54
                      A                      A                      A
 Frequencies --   1545.4639              1856.4551              1912.9270
 Red. masses --      1.0645                12.6532                11.6843
 Frc consts  --      1.4980                25.6933                25.1913
 IR Inten    --      1.9672               521.0564               285.7673

                     55                     56                     57
                      A                      A                      A
 Frequencies --   2383.2442              3048.1195              3055.8842
 Red. masses --     12.6563                 1.0587                 1.0397
 Frc consts  --     42.3539                 5.7954                 5.7205
 IR Inten    --     94.9992                13.2508                23.8974

                     58                     59                     60
                      A                      A                      A
 Frequencies --   3066.1963              3068.6609              3083.3106
 Red. masses --      1.0442                 1.0580                 1.1029
 Frc consts  --      5.7839                 5.8697                 6.1774
 IR Inten    --     20.5229                 9.6704                19.2602

                     61                     62                     63
                      A                      A                      A
 Frequencies --   3108.8809              3126.2619              3130.6820
 Red. masses --      1.0985                 1.1014                 1.1009
 Frc consts  --      6.2556                 6.3424                 6.3573
 IR Inten    --      2.4292                34.4591                45.4337

                     64                     65                     66
                      A                      A                      A
 Frequencies --   3134.0437              3153.7285              3652.9886
 Red. masses --      1.1029                 1.1021                 1.0785
 Frc consts  --      6.3825                 6.4583                 8.4798
 IR Inten    --     12.6472                11.1702                50.6568

 - Thermochemistry -
 -------------------
 Temperature   298.150 Kelvin.  Pressure   1.00000 Atm.
 Atom     1 has atomic number  6 and mass  12.00000

 Molecular mass:   181.08513 amu.
 Principal axes and moments of inertia in atomic units:
                           1         2         3
     Eigenvalues --  1401.933842974.603373594.95063
           X            1.00000   0.00011  -0.00103
           Y           -0.00017   0.99841  -0.05644
           Z            0.00102   0.05644   0.99841
 This molecule is an asymmetric top.
 Rotational symmetry number  1.
 Warning -- assumption of classical behavior for rotation
           may cause significant error
 Rotational temperatures (Kelvin)      0.06178     0.02912     0.02409
 Rotational constants (GHZ):           1.28732     0.60672     0.50202
 Zero-point vibrational energy     506098.7 (Joules/Mol)
                                  120.96048 (Kcal/Mol)
 Warning -- explicit consideration of  19 degrees of freedom as
           vibrations may cause significant error
 Vibrational temperatures:     64.54   116.20   151.12   167.66   206.88
          (Kelvin)            219.70   264.12   296.17   338.00   414.29
                              423.74   467.13   521.93   542.54   603.36
                              628.11   659.75   734.36   812.22   903.44
                              993.69  1000.81  1036.10  1082.15  1152.08
                             1160.46  1270.97  1373.13  1460.56  1476.31
                             1515.71  1537.12  1583.15  1598.78  1710.37
                             1732.51  1744.59  1830.79  1901.78  1915.39
                             1987.71  2006.71  2021.40  2057.27  2081.42
                             2088.65  2175.14  2189.24  2202.99  2205.44
                             2212.79  2223.58  2671.02  2752.28  3428.96
                             4385.56  4396.74  4411.57  4415.12  4436.20
                             4472.99  4497.99  4504.35  4509.19  4537.51
                             5255.84

 Zero-point correction=                           0.192763 (Hartree/Particle)
 Thermal correction to Energy=                    0.205891
 Thermal correction to Enthalpy=                  0.206836
 Thermal correction to Gibbs Free Energy=         0.153301
 Sum of electronic and zero-point Energies=           -626.040911
 Sum of electronic and thermal Energies=              -626.027783
 Sum of electronic and thermal Enthalpies=            -626.026839
 Sum of electronic and thermal Free Energies=         -626.080373

                     E (Thermal)             CV                S
                      KCal/Mol        Cal/Mol-Kelvin    Cal/Mol-Kelvin
 Total                  129.199             48.049            112.673
 Electronic               0.000              0.000              0.000
 Translational            0.889              2.981             41.488
 Rotational               0.889              2.981             31.084
 Vibrational            127.421             42.087             40.102
 Vibration     1          0.595              1.979              5.032
 Vibration     2          0.600              1.962              3.872
 Vibration     3          0.605              1.945              3.359
 Vibration     4          0.608              1.936              3.157
 Vibration     5          0.616              1.909              2.753
 Vibration     6          0.619              1.900              2.638
 Vibration     7          0.631              1.862              2.292
 Vibration     8          0.640              1.832              2.080
 Vibration     9          0.655              1.787              1.841
 Vibration    10          0.685              1.696              1.486
 Vibration    11          0.689              1.684              1.448
 Vibration    12          0.709              1.626              1.286
 Vibration    13          0.737              1.549              1.110
 Vibration    14          0.748              1.519              1.051
 Vibration    15          0.782              1.428              0.894
 Vibration    16          0.797              1.391              0.838
 Vibration    17          0.817              1.342              0.770
 Vibration    18          0.866              1.227              0.633
 Vibration    19          0.920              1.108              0.515

 Optimization completed.
    -- Stationary point found.
 Normal termination of Gaussian 16 at Wed Dec  9 23:25:52 2020.

 ----------------------------------------------------------------------
 # B3LYP/6-311++G(d,p) empiricaldispersion=gd3bj scf=xqc pop=npa geom=c
 heck
 ----------------------------------------------------------------------

 ------------------------------------
 CID_592305_JID_3461_Energie_neutraal
 ------------------------------------
 Structure from the checkpoint file:  "JID_3461.chk"
 Charge =  0 Multiplicity = 1

 SCF Done:  E(RB3LYP) =  -626.415668580     A.U. after   16 cycles
 Normal termination of Gaussian 16 at Wed Dec  9 23:28:41 2020.

 ----------------------------------------------------------------------
 # B3LYP/6-311++G(d,p) empiricaldispersion=gd3bj scf=xqc pop=npa geom=c
 heck
 ----------------------------------------------------------------------

 ----------------------------------
 CID_592305_JID_3461_Energie_kation
 ----------------------------------
 Structure from the checkpoint file:  "JID_3461.chk"
 Charge =  1 Multiplicity = 2

 SCF Done:  E(UB3LYP) =  -626.046357405     A.U. after   30 cycles
 Normal termination of Gaussian 16 at Wed Dec  9 23:36:05 2020.
 Gaussian 16:  ES64L-G16RevA.03 25-Dec-2016

 ----------------------------------------------------------------------
 # B3LYP/6-311++G(d,p) empiricaldispersion=gd3bj scf=xqc pop=npa geom=c
 heck
 ----------------------------------------------------------------------

 ---------------------------------
 CID_592305_JID_3461_Energie_anion
 ---------------------------------
 Structure from the checkpoint file:  "JID_3461.chk"
 Charge = -1 Multiplicity = 2

                         Standard orientation:
 ---------------------------------------------------------------------
 Center     Atomic      Atomic             Coordinates (Angstroms)
 Number     Number       Type             X           Y           Z
 ---------------------------------------------------------------------
      1          6           0        2.403209   -1.650385    1.088811
      2          6           0        1.587052   -0.371580    1.286269
      3          6           0        0.836332    0.132389    0.027887
      4          6           0       -0.315574   -0.820694   -0.312665
      5          8           0       -0.245752   -1.956152   -0.709733
      6          7           0       -1.507188   -0.103534   -0.072373
      7          6           0       -1.248470    1.251837    0.368427
      8          8           0       -2.094486    2.053409    0.673391
      9          7           0        0.107087    1.365221    0.337705
     10          6           0       -2.744969   -0.601128   -0.235787
     11          7           0       -3.809095   -1.045806   -0.380202
     12          6           0        1.733006    0.298604   -1.216067
     13          6           0        2.900713    1.265345   -1.014338
     14          1           0        1.782202   -2.460654    0.698709
     15          1           0        2.827228   -1.970945    2.045594
     16          1           0        3.234210   -1.495714    0.393196
     17          1           0        0.843873   -0.516948    2.079725
     18          1           0        2.240129    0.442400    1.625161
     19          1           0        0.541022    2.173882    0.758246
     20          1           0        2.097150   -0.692486   -1.503254
     21          1           0        1.099576    0.652339   -2.037658
     22          1           0        3.598974    0.912689   -0.248419
     23          1           0        3.462321    1.376343   -1.946892
     24          1           0        2.551802    2.263544   -0.724813
 ---------------------------------------------------------------------

 SCF Done:  E(UB3LYP) =  -626.418060060     A.U. after   28 cycles

 The electronic state is 2-A.
 Alpha  occ. eigenvalues --  -19.01459 -18.99889 -14.29493 -14.25293 -14.21424
 Alpha  occ. eigenvalues --  -10.22489 -10.16758 -10.14380 -10.13679 -10.07811
 Alpha  occ. eigenvalues --  -10.07774 -10.06347 -10.06199  -0.98969  -0.95371
 Alpha  occ. eigenvalues --   -0.89211  -0.84709  -0.79648  -0.71348  -0.65902
 Alpha  occ. eigenvalues --   -0.62325  -0.59194  -0.54263  -0.53545  -0.48226
 Alpha  occ. eigenvalues --   -0.44539  -0.41811  -0.39650  -0.38687  -0.36227
 Alpha  occ. eigenvalues --   -0.34785  -0.34112  -0.32985  -0.31649  -0.30933
 Alpha  occ. eigenvalues --   -0.29151  -0.28017  -0.27723  -0.27207  -0.26248
 Alpha  occ. eigenvalues --   -0.25948  -0.24915  -0.24487  -0.24050  -0.20582
 Alpha  occ. eigenvalues --   -0.18956  -0.17360  -0.16506   0.04001
 Alpha virt. eigenvalues --    0.06511   0.07731   0.08009   0.09053   0.10466
 Alpha virt. eigenvalues --    0.10617   0.11151   0.11308   0.11514   0.11812
 Alpha virt. eigenvalues --    0.13026   0.13417   0.14508   0.15145   0.15611

  Beta  occ. eigenvalues --  -19.01442 -18.99581 -14.29515 -14.25268 -14.21374
  Beta  occ. eigenvalues --  -10.22466 -10.16394 -10.14358 -10.13714 -10.07748
  Beta  occ. eigenvalues --  -10.07730 -10.06334 -10.06131  -0.98855  -0.94923
  Beta  occ. eigenvalues --   -0.89047  -0.84648  -0.79575  -0.71236  -0.65821
  Beta  occ. eigenvalues --   -0.62021  -0.59129  -0.54006  -0.53383  -0.48152
  Beta  occ. eigenvalues --   -0.44434  -0.41617  -0.39325  -0.38549  -0.36160
  Beta  occ. eigenvalues --   -0.34555  -0.34000  -0.32623  -0.31594  -0.30459
  Beta  occ. eigenvalues --   -0.28932  -0.27954  -0.27615  -0.27028  -0.25901
  Beta  occ. eigenvalues --   -0.25461  -0.24840  -0.24426  -0.23865  -0.20528
  Beta  occ. eigenvalues --   -0.18670  -0.17081  -0.16302
  Beta virt. eigenvalues --    0.06982   0.08219   0.08670   0.09217   0.09689
  Beta virt. eigenvalues --    0.10806   0.10884   0.11414   0.11534   0.11971
  Beta virt. eigenvalues --    0.12080   0.13152   0.13709   0.14676   0.15285

 Mulliken charges and spin densities:
               1          2
     1  C    0.016717  -0.647894
     2  C    0.569015  -0.803358
     3  C    1.173917  -0.534479
     4  C   -0.704959   0.374288
     5  O   -0.322711   0.102607
     6  N   -0.063406  -0.025600
     7  C    0.261178   0.000120
     8  O   -0.353819   0.006471
     9  N   -0.219684   0.019572
    10  C    0.286559   0.000625
    11  N   -0.299713   0.022704
    12  C   -2.059710   1.844325
    13  C    1.799012  -2.392283
    14  H    0.155301   0.024840
    15  H    0.022497   0.111610
    16  H    0.062384   0.077973
    17  H    0.076100   0.086330
    18  H   -0.658720   0.860455
    19  H    0.032326   0.306629
    20  H    0.105034   0.069545
    21  H    0.147062   0.022166
    22  H   -0.292583   0.449611
    23  H   -0.391973   0.543750
    24  H   -0.339825   0.479994
 Sum of Mulliken charges =  -1.00000   1.00000

 Dipole moment (field-independent basis, Debye):
    X=             -0.2333    Y=             -1.8851    Z=             -0.4417  Tot=              1.9501
 Quadrupole moment (field-independent basis, Debye-Ang):
   XX=           -150.2233   YY=           -114.8895   ZZ=            -99.3398
   XY=            -14.1515   XZ=             -2.9406   YZ=             -5.9538

 Summary of Natural Population Analysis:

                                       Natural Population
                Natural  -----------------------------------------------
    Atom  No    Charge         Core      Valence    Rydberg      Total
 -----------------------------------------------------------------------
      C    1   -0.29170      0.99965     2.28596    0.00609     3.29170
      C    2   -0.18856      0.99959     2.17841    0.01056     3.18856
      C    3    0.02999      0.99952     1.95646    0.01403     2.97001
      C    4    0.40531      0.99961     1.57062    0.02446     2.59469
      O    5   -0.26204      0.99987     3.25713    0.00504     4.26204
      N    6   -0.29695      0.99955     2.78913    0.00827     3.79695
      C    7    0.42025      0.99970     1.55594    0.02411     2.57975
      O    8   -0.30512      0.99987     3.30007    0.00518     4.30512
      N    9   -0.32425      0.99964     2.81440    0.01021     3.82425
      C   10    0.24302      0.99964     1.73945    0.01788     2.75698
      N   11   -0.18156      0.99978     2.67436    0.00741     3.68156
      C   12   -0.18726      0.99959     2.17833    0.00934     3.18726
      C   13   -0.28977      0.99966     2.28428    0.00582     3.28977
      H   14    0.10904      0.00000     0.39001    0.00095     0.39096
      H   15    0.09882      0.00000     0.40051    0.00067     0.40118
      H   16    0.09754      0.00000     0.40158    0.00088     0.40246
      H   17    0.09952      0.00000     0.39928    0.00121     0.40048
      H   18    0.10715      0.00000     0.38874    0.00412     0.39285
      H   19    0.20715      0.00000     0.29023    0.00262     0.29285
      H   20    0.10653      0.00000     0.39239    0.00108     0.39347
      H   21    0.09983      0.00000     0.39898    0.00120     0.40017
      H   22    0.10215      0.00000     0.39582    0.00203     0.39785
      H   23    0.10324      0.00000     0.39557    0.00119     0.39676
      H   24    0.09766      0.00000     0.40072    0.00162     0.40234
 =======================================================================
   * Total *    0.00000     12.99568    34.83836    0.16597    48.00000

 Normal termination of Gaussian 16 at Wed Dec  9 23:43:04 2020.
