 Gaussian 16, Revision A.03,

 -----------------------------------------------------------
 # opt freq B3LYP/6-31G(d) empiricaldispersion=gd3bj scf=xqc
 -----------------------------------------------------------

 ------------------------------
 CID_63379713_JID_4748_neutraal
 ------------------------------
 Symbolic Z-matrix:
 Charge =  0 Multiplicity = 1

 SCF Done:  E(RB3LYP) =  -991.081787375     A.U. after   15 cycles
 SCF Done:  E(RB3LYP) =  -991.088242601     A.U. after   12 cycles
 SCF Done:  E(RB3LYP) =  -991.089153035     A.U. after   12 cycles
 SCF Done:  E(RB3LYP) =  -991.089556024     A.U. after   12 cycles
 SCF Done:  E(RB3LYP) =  -991.090036393     A.U. after   12 cycles
 SCF Done:  E(RB3LYP) =  -991.090258142     A.U. after   13 cycles
 SCF Done:  E(RB3LYP) =  -991.090831529     A.U. after   12 cycles
 SCF Done:  E(RB3LYP) =  -991.091868077     A.U. after   12 cycles
 SCF Done:  E(RB3LYP) =  -991.092351648     A.U. after   13 cycles
 SCF Done:  E(RB3LYP) =  -991.092892430     A.U. after   12 cycles
 SCF Done:  E(RB3LYP) =  -991.094057453     A.U. after   11 cycles
 SCF Done:  E(RB3LYP) =  -991.094072930     A.U. after   11 cycles
 SCF Done:  E(RB3LYP) =  -991.094075084     A.U. after    9 cycles
 SCF Done:  E(RB3LYP) =  -991.094075283     A.U. after    8 cycles
 SCF Done:  E(RB3LYP) =  -991.094075304     A.U. after    7 cycles
 Optimization completed.
    -- Stationary point found.
 Normal termination of Gaussian 16 at Thu Dec 10 10:46:13 2020.

 --------------------------------------------------------------------
 #N Geom=AllCheck Guess=TCheck SCRF=Check GenChk RB3LYP/6-31G(d) Freq
 --------------------------------------------------------------------

 Structure from the checkpoint file:  "JID_4748.chk"
 ------------------------------
 CID_63379713_JID_4748_neutraal
 ------------------------------
 Charge =  0 Multiplicity = 1

 SCF Done:  E(RB3LYP) =  -991.094075304     A.U. after    1 cycles

  Exact polarizability: 187.253  -9.830 144.151   5.160   7.979  73.339
 Approx polarizability: 268.683 -25.834 246.371  12.352  19.895 118.196

                      1                      2                      3
                      A                      A                      A
 Frequencies --     34.7011                40.4523                89.3768
 Red. masses --      3.5485                 3.7102                 4.5924
 Frc consts  --      0.0025                 0.0036                 0.0216
 IR Inten    --      0.6457                 1.5070                 2.0917

                      4                      5                      6
                      A                      A                      A
 Frequencies --    100.7194               123.3568               167.5849
 Red. masses --      4.4726                 4.7159                 2.1137
 Frc consts  --      0.0267                 0.0423                 0.0350
 IR Inten    --      0.7286                 1.4851                 2.5224

                      7                      8                      9
                      A                      A                      A
 Frequencies --    197.0519               223.6062               255.3509
 Red. masses --      1.8563                 2.2624                 1.3018
 Frc consts  --      0.0425                 0.0666                 0.0500
 IR Inten    --      1.0720                 1.0963                 0.6513

                     10                     11                     12
                      A                      A                      A
 Frequencies --    276.2234               304.7022               332.6490
 Red. masses --      3.0251                 4.4329                 5.6063
 Frc consts  --      0.1360                 0.2425                 0.3655
 IR Inten    --      2.3196                 1.0186                 1.7413

                     13                     14                     15
                      A                      A                      A
 Frequencies --    356.3516               378.4088               402.2216
 Red. masses --      3.1208                 1.6348                 3.6561
 Frc consts  --      0.2335                 0.1379                 0.3485
 IR Inten    --     27.2846                72.9546                40.4879

                     16                     17                     18
                      A                      A                      A
 Frequencies --    457.6849               484.2284               523.7964
 Red. masses --      3.1079                 6.6106                 4.8601
 Frc consts  --      0.3836                 0.9133                 0.7856
 IR Inten    --     29.5826                 6.8631                19.0538

                     19                     20                     21
                      A                      A                      A
 Frequencies --    609.4974               645.5497               654.8932
 Red. masses --      3.3577                 5.2724                 5.7316
 Frc consts  --      0.7349                 1.2945                 1.4483
 IR Inten    --      5.5378                 9.6158                 0.7472

                     22                     23                     24
                      A                      A                      A
 Frequencies --    699.9015               713.5232               725.5702
 Red. masses --      7.7981                 4.9360                 2.8278
 Frc consts  --      2.2507                 1.4806                 0.8771
 IR Inten    --      2.8926                 3.4140                 6.0106

                     25                     26                     27
                      A                      A                      A
 Frequencies --    745.2374               806.6536               811.8733
 Red. masses --      1.6374                 1.4712                 3.7918
 Frc consts  --      0.5358                 0.5640                 1.4726
 IR Inten    --     35.3827                17.6249                17.0412

                     28                     29                     30
                      A                      A                      A
 Frequencies --    862.1401               904.8326               909.5412
 Red. masses --      1.2957                 2.6027                 6.0568
 Frc consts  --      0.5674                 1.2555                 2.9521
 IR Inten    --      0.2158                 4.1299                 7.9906

                     31                     32                     33
                      A                      A                      A
 Frequencies --    939.6597              1035.6960              1042.1456
 Red. masses --      3.6155                 1.8788                 1.5810
 Frc consts  --      1.8809                 1.1874                 1.0116
 IR Inten    --     15.3539                16.3997                34.1996

                     34                     35                     36
                      A                      A                      A
 Frequencies --   1057.3197              1065.3949              1071.0337
 Red. masses --      1.4541                 1.4490                 1.6842
 Frc consts  --      0.9578                 0.9690                 1.1383
 IR Inten    --     40.6269                 8.0738                 9.2206

                     37                     38                     39
                      A                      A                      A
 Frequencies --   1124.2334              1141.1465              1182.0436
 Red. masses --      2.5557                 3.1598                 2.9390
 Frc consts  --      1.9031                 2.4243                 2.4195
 IR Inten    --     12.0791                39.8469                14.9601

                     40                     41                     42
                      A                      A                      A
 Frequencies --   1193.5886              1201.4135              1223.8125
 Red. masses --      2.7030                 3.4683                 3.0752
 Frc consts  --      2.2689                 2.9496                 2.7137
 IR Inten    --     20.8560                40.1689                 4.4515

                     43                     44                     45
                      A                      A                      A
 Frequencies --   1263.0610              1301.7210              1351.1484
 Red. masses --      2.2063                 1.4655                 1.9764
 Frc consts  --      2.0738                 1.4631                 2.1259
 IR Inten    --      3.2604                 8.2873                 4.3508

                     46                     47                     48
                      A                      A                      A
 Frequencies --   1361.9875              1427.1308              1428.2374
 Red. masses --      2.8654                 1.4343                 1.8763
 Frc consts  --      3.1317                 1.7211                 2.2550
 IR Inten    --     41.5877                23.9499                 4.4022

                     49                     50                     51
                      A                      A                      A
 Frequencies --   1431.8163              1443.8985              1509.4674
 Red. masses --      1.2596                 1.2698                 1.1369
 Frc consts  --      1.5214                 1.5598                 1.5263
 IR Inten    --     51.0155                 1.8998                 7.7656

                     52                     53                     54
                      A                      A                      A
 Frequencies --   1516.4204              1518.8940              1521.8076
 Red. masses --      1.1471                 1.2397                 1.0739
 Frc consts  --      1.5541                 1.6851                 1.4654
 IR Inten    --      3.4034                27.8043                 1.7655

                     55                     56                     57
                      A                      A                      A
 Frequencies --   1531.8295              1567.9672              1588.2186
 Red. masses --      2.3268                 5.3503                 9.2816
 Frc consts  --      3.2168                 7.7500                13.7941
 IR Inten    --      9.0146                 1.7481                25.1909

                     58                     59                     60
                      A                      A                      A
 Frequencies --   1643.4534              3038.1845              3054.3251
 Red. masses --      6.9154                 1.0418                 1.0461
 Frc consts  --     11.0049                 5.6658                 5.7497
 IR Inten    --      1.5506                26.3672                12.6213

                     61                     62                     63
                      A                      A                      A
 Frequencies --   3064.2855              3097.6937              3128.6437
 Red. masses --      1.0767                 1.0946                 1.0981
 Frc consts  --      5.9566                 6.1885                 6.3331
 IR Inten    --     18.8719                13.1176                29.5217

                     64                     65                     66
                      A                      A                      A
 Frequencies --   3132.0015              3158.4514              3268.6270
 Red. masses --      1.1020                 1.1033                 1.0909
 Frc consts  --      6.3691                 6.4846                 6.8667
 IR Inten    --      9.2875                12.1800                 6.4785

                     67                     68                     69
                      A                      A                      A
 Frequencies --   3288.9083              3304.0428              3716.5936
 Red. masses --      1.0964                 1.1050                 1.0659
 Frc consts  --      6.9878                 7.1074                 8.6744
 IR Inten    --      2.0635                 0.9983                13.1381

 - Thermochemistry -
 -------------------
 Temperature   298.150 Kelvin.  Pressure   1.00000 Atm.
 Atom     1 has atomic number  6 and mass  12.00000

 Molecular mass:   209.05105 amu.
 Principal axes and moments of inertia in atomic units:
                           1         2         3
     Eigenvalues --  1553.012864729.181526133.38936
           X            0.99952   0.03097  -0.00185
           Y           -0.03097   0.99952  -0.00084
           Z            0.00182   0.00090   1.00000
 This molecule is an asymmetric top.
 Rotational symmetry number  1.
 Warning -- assumption of classical behavior for rotation
           may cause significant error
 Rotational temperatures (Kelvin)      0.05577     0.01831     0.01412
 Rotational constants (GHZ):           1.16209     0.38162     0.29425
 Zero-point vibrational energy     513042.4 (Joules/Mol)
                                  122.62007 (Kcal/Mol)
 Warning -- explicit consideration of  19 degrees of freedom as
           vibrations may cause significant error
 Vibrational temperatures:     49.93    58.20   128.59   144.91   177.48
          (Kelvin)            241.12   283.51   321.72   367.39   397.42
                              438.40   478.61   512.71   544.45   578.71
                              658.51   696.70   753.63   876.93   928.80
                              942.25  1007.00  1026.60  1043.93  1072.23
                             1160.59  1168.10  1240.43  1301.85  1308.63
                             1351.96  1490.14  1499.42  1521.25  1532.87
                             1540.98  1617.52  1641.86  1700.70  1717.31
                             1728.57  1760.79  1817.26  1872.89  1944.00
                             1959.60  2053.32  2054.92  2060.06  2077.45
                             2171.79  2181.79  2185.35  2189.54  2203.96
                             2255.96  2285.09  2364.56  4371.27  4394.49
                             4408.82  4456.89  4501.42  4506.25  4544.31
                             4702.83  4732.01  4753.78  5347.35

 Zero-point correction=                           0.195408 (Hartree/Particle)
 Thermal correction to Energy=                    0.208831
 Thermal correction to Enthalpy=                  0.209775
 Thermal correction to Gibbs Free Energy=         0.154263
 Sum of electronic and zero-point Energies=           -990.898668
 Sum of electronic and thermal Energies=              -990.885244
 Sum of electronic and thermal Enthalpies=            -990.884300
 Sum of electronic and thermal Free Energies=         -990.939812

                     E (Thermal)             CV                S
                      KCal/Mol        Cal/Mol-Kelvin    Cal/Mol-Kelvin
 Total                  131.043             50.069            116.835
 Electronic               0.000              0.000              0.000
 Translational            0.889              2.981             41.916
 Rotational               0.889              2.981             32.177
 Vibrational            129.266             44.107             42.742
 Vibration     1          0.594              1.983              5.541
 Vibration     2          0.594              1.981              5.237
 Vibration     3          0.602              1.957              3.674
 Vibration     4          0.604              1.949              3.440
 Vibration     5          0.610              1.930              3.047
 Vibration     6          0.624              1.882              2.462
 Vibration     7          0.636              1.844              2.160
 Vibration     8          0.649              1.805              1.930
 Vibration     9          0.666              1.754              1.693
 Vibration    10          0.678              1.717              1.557
 Vibration    11          0.696              1.665              1.391
 Vibration    12          0.715              1.610              1.247
 Vibration    13          0.732              1.562              1.138
 Vibration    14          0.749              1.516              1.046
 Vibration    15          0.768              1.465              0.955
 Vibration    16          0.816              1.344              0.773
 Vibration    17          0.840              1.285              0.699
 Vibration    18          0.879              1.197              0.601
 Vibration    19          0.968              1.012              0.434

 Optimization completed.
    -- Stationary point found.
 Normal termination of Gaussian 16 at Thu Dec 10 10:52:49 2020.

 ----------------------------------------------------------------------
 # B3LYP/6-311++G(d,p) empiricaldispersion=gd3bj scf=xqc pop=npa geom=c
 heck
 ----------------------------------------------------------------------

 --------------------------------------
 CID_63379713_JID_4748_Energie_neutraal
 --------------------------------------
 Structure from the checkpoint file:  "JID_4748.chk"
 Charge =  0 Multiplicity = 1

 SCF Done:  E(RB3LYP) =  -991.288923323     A.U. after   16 cycles
 Normal termination of Gaussian 16 at Thu Dec 10 10:56:14 2020.

 ----------------------------------------------------------------------
 # B3LYP/6-311++G(d,p) empiricaldispersion=gd3bj scf=xqc pop=npa geom=c
 heck
 ----------------------------------------------------------------------

 ------------------------------------
 CID_63379713_JID_4748_Energie_kation
 ------------------------------------
 Structure from the checkpoint file:  "JID_4748.chk"
 Charge =  1 Multiplicity = 2

 SCF Done:  E(UB3LYP) =  -991.012845227     A.U. after   21 cycles
 Normal termination of Gaussian 16 at Thu Dec 10 11:02:31 2020.
 Gaussian 16:  ES64L-G16RevA.03 25-Dec-2016

 ----------------------------------------------------------------------
 # B3LYP/6-311++G(d,p) empiricaldispersion=gd3bj scf=xqc pop=npa geom=c
 heck
 ----------------------------------------------------------------------

 -----------------------------------
 CID_63379713_JID_4748_Energie_anion
 -----------------------------------
 Structure from the checkpoint file:  "JID_4748.chk"
 Charge = -1 Multiplicity = 2

                         Standard orientation:
 ---------------------------------------------------------------------
 Center     Atomic      Atomic             Coordinates (Angstroms)
 Number     Number       Type             X           Y           Z
 ---------------------------------------------------------------------
      1          6           0        0.928801    2.789644    0.017784
      2          6           0        0.127424    1.526809   -0.040266
      3          6           0        0.569799    0.219708   -0.047245
      4          7           0       -0.423078   -0.745147   -0.127639
      5          6           0       -1.602423   -0.210989   -0.177522
      6         16           0       -1.614053    1.548245   -0.122653
      7          6           0       -2.904247   -0.971383   -0.293156
      8          6           0       -2.858962   -2.281619    0.489121
      9          8           0       -4.000746   -0.141097    0.081080
     10          6           0        1.958144   -0.199030    0.031655
     11          6           0        3.111064    0.404316    0.471393
     12          6           0        4.168679   -0.539877    0.278913
     13          6           0        3.589689   -1.649427   -0.258684
     14          8           0        2.250930   -1.461283   -0.416038
     15          1           0        0.376243    3.635564   -0.401163
     16          1           0        1.204386    3.051905    1.047916
     17          1           0        1.856610    2.670891   -0.552278
     18          1           0       -3.081117   -1.187402   -1.353782
     19          1           0       -2.727055   -2.081267    1.559469
     20          1           0       -3.792008   -2.833514    0.343350
     21          1           0       -2.013458   -2.891029    0.160355
     22          1           0       -3.939226    0.002458    1.040216
     23          1           0        3.193287    1.386421    0.911504
     24          1           0        5.214339   -0.407982    0.518322
     25          1           0        3.965121   -2.611800   -0.570285
 ---------------------------------------------------------------------

 SCF Done:  E(UB3LYP) =  -991.278941952     A.U. after   33 cycles
 SCF Done:  E(UB3LYP) =  -991.278941953     a.u. after    2 cycles

 The electronic state is 2-A.
 Alpha  occ. eigenvalues --  -88.74019 -19.06682 -19.02111 -14.17928 -10.12124
 Alpha  occ. eigenvalues --  -10.11078 -10.10641 -10.09309 -10.07652 -10.06442
 Alpha  occ. eigenvalues --  -10.06414 -10.06286 -10.05404 -10.05339  -7.82676
 Alpha  occ. eigenvalues --   -5.78948  -5.78601  -5.78305  -0.99448  -0.92478
 Alpha  occ. eigenvalues --   -0.83136  -0.69317  -0.68204  -0.66833  -0.64365
 Alpha  occ. eigenvalues --   -0.60976  -0.57208  -0.52874  -0.49251  -0.46439
 Alpha  occ. eigenvalues --   -0.44547  -0.43590  -0.39421  -0.37648  -0.35821
 Alpha  occ. eigenvalues --   -0.34380  -0.33979  -0.33125  -0.31619  -0.31017
 Alpha  occ. eigenvalues --   -0.29829  -0.29203  -0.28519  -0.27540  -0.26082
 Alpha  occ. eigenvalues --   -0.25898  -0.25254  -0.23055  -0.22713  -0.18492
 Alpha  occ. eigenvalues --   -0.17244  -0.16023  -0.14399  -0.14065  -0.08943
 Alpha  occ. eigenvalues --    0.05038
 Alpha virt. eigenvalues --    0.06769   0.07457   0.07849   0.08953   0.09253
 Alpha virt. eigenvalues --    0.09776   0.10467   0.10913   0.11472   0.11823
 Alpha virt. eigenvalues --    0.13130   0.13564   0.13754   0.14485   0.14968

  Beta  occ. eigenvalues --  -88.73969 -19.06606 -19.02093 -14.17917 -10.12131
  Beta  occ. eigenvalues --  -10.11039 -10.10595 -10.09112 -10.07679 -10.06448
  Beta  occ. eigenvalues --  -10.06297 -10.06031 -10.05373 -10.05302  -7.82630
  Beta  occ. eigenvalues --   -5.78927  -5.78582  -5.78141  -0.99327  -0.92428
  Beta  occ. eigenvalues --   -0.82966  -0.69129  -0.67950  -0.66619  -0.64293
  Beta  occ. eigenvalues --   -0.60808  -0.57074  -0.52790  -0.49192  -0.46215
  Beta  occ. eigenvalues --   -0.44232  -0.43510  -0.39266  -0.37542  -0.35656
  Beta  occ. eigenvalues --   -0.34283  -0.33690  -0.33016  -0.31205  -0.30926
  Beta  occ. eigenvalues --   -0.29716  -0.29129  -0.28450  -0.27333  -0.25927
  Beta  occ. eigenvalues --   -0.25731  -0.25097  -0.22909  -0.22494  -0.18411
  Beta  occ. eigenvalues --   -0.17000  -0.15442  -0.14280  -0.13363  -0.07920
  Beta virt. eigenvalues --    0.07033   0.07684   0.08057   0.08973   0.09215
  Beta virt. eigenvalues --    0.09762   0.10160   0.10717   0.11390   0.11604
  Beta virt. eigenvalues --    0.12122   0.13131   0.13618   0.13908   0.14693

 Mulliken charges and spin densities:
               1          2
     1  C    0.340190  -0.537331
     2  C    1.799064   0.323435
     3  C   -1.140369  -0.714667
     4  N    0.117798   0.046004
     5  C    0.780620  -0.959321
     6  S   -0.359504  -0.058439
     7  C   -1.568714   1.628534
     8  C    0.342692  -0.913855
     9  O   -0.219008  -0.006794
    10  C   -0.318615  -0.504166
    11  C   -0.629826   1.131687
    12  C    0.364825  -0.967107
    13  C    0.114295   0.105415
    14  O   -0.003161   0.025043
    15  H   -0.198633   0.339343
    16  H    0.163523  -0.001209
    17  H    0.064600   0.078651
    18  H   -0.228121   0.449534
    19  H   -0.040160   0.183236
    20  H   -0.323366   0.470230
    21  H    0.119925   0.039769
    22  H    0.185999   0.029963
    23  H    0.015828   0.130483
    24  H   -0.340343   0.489386
    25  H   -0.039540   0.192177
 Sum of Mulliken charges =  -1.00000   1.00000

 Dipole moment (field-independent basis, Debye):
    X=              1.3944    Y=              1.4677    Z=              2.1960  Tot=              2.9867
 Quadrupole moment (field-independent basis, Debye-Ang):
   XX=           -154.9861   YY=           -120.6408   ZZ=           -106.5003
   XY=             -3.9626   XZ=             -5.2810   YZ=              2.9777

 Summary of Natural Population Analysis:

                                       Natural Population
                Natural  -----------------------------------------------
    Atom  No    Charge         Core      Valence    Rydberg      Total
 -----------------------------------------------------------------------
      C    1   -0.30314      0.99963     2.29783    0.00569     3.30314
      C    2   -0.02832      0.99949     2.01820    0.01064     3.02832
      C    3    0.01113      0.99939     1.97632    0.01316     2.98887
      N    4   -0.23812      0.99962     2.72824    0.01026     3.73812
      C    5    0.05561      0.99959     1.92778    0.01702     2.94439
      S    6    0.19912      4.99940     2.78159    0.01990     7.80088
      C    7    0.04087      0.99951     1.94340    0.01622     2.95913
      C    8   -0.29268      0.99965     2.28741    0.00562     3.29268
      O    9   -0.36744      0.99990     3.36034    0.00720     4.36744
      C   10    0.15823      0.99943     1.82786    0.01448     2.84177
      C   11   -0.15365      0.99953     2.14595    0.00817     3.15365
      C   12   -0.16014      0.99957     2.15122    0.00935     3.16014
      C   13    0.05678      0.99952     1.92887    0.01484     2.94322
      O   14   -0.21980      0.99986     3.21183    0.00811     4.21980
      H   15    0.10368      0.00000     0.39489    0.00144     0.39632
      H   16    0.10123      0.00000     0.39725    0.00153     0.39877
      H   17    0.10898      0.00000     0.38902    0.00199     0.39102
      H   18    0.09640      0.00000     0.40112    0.00248     0.40360
      H   19    0.09506      0.00000     0.40347    0.00148     0.40494
      H   20    0.09815      0.00000     0.40011    0.00174     0.40185
      H   21    0.11226      0.00000     0.38615    0.00159     0.38774
      H   22    0.22493      0.00000     0.27207    0.00300     0.27507
      H   23    0.10610      0.00000     0.39288    0.00101     0.39390
      H   24    0.10416      0.00000     0.39485    0.00099     0.39584
      H   25    0.09059      0.00000     0.40839    0.00102     0.40941
 =======================================================================
   * Total *   -0.00000     17.99409    36.82702    0.17889    55.00000

 Normal termination of Gaussian 16 at Thu Dec 10 11:21:00 2020.
