 Gaussian 16, Revision A.03,

 -----------------------------------------------------------
 # opt freq B3LYP/6-31G(d) empiricaldispersion=gd3bj scf=xqc
 -----------------------------------------------------------

 ------------------------------
 CID_82284061_JID_5427_neutraal
 ------------------------------
 Symbolic Z-matrix:
 Charge =  0 Multiplicity = 1

 SCF Done:  E(RB3LYP) =  -690.025706667     A.U. after   15 cycles
 SCF Done:  E(RB3LYP) =  -690.029537207     A.U. after   12 cycles
 SCF Done:  E(RB3LYP) =  -690.029194197     A.U. after   12 cycles
 SCF Done:  E(RB3LYP) =  -690.029414669     A.U. after   12 cycles
 SCF Done:  E(RB3LYP) =  -690.030192633     A.U. after    8 cycles
 SCF Done:  E(RB3LYP) =  -690.030381575     A.U. after   11 cycles
 SCF Done:  E(RB3LYP) =  -690.030365424     A.U. after   10 cycles
 SCF Done:  E(RB3LYP) =  -690.030406172     A.U. after   10 cycles
 SCF Done:  E(RB3LYP) =  -690.030427112     A.U. after   10 cycles
 SCF Done:  E(RB3LYP) =  -690.030433704     A.U. after   10 cycles
 SCF Done:  E(RB3LYP) =  -690.030436072     A.U. after    8 cycles
 SCF Done:  E(RB3LYP) =  -690.030437297     A.U. after    8 cycles
 SCF Done:  E(RB3LYP) =  -690.030437631     A.U. after    8 cycles
 SCF Done:  E(RB3LYP) =  -690.030437681     A.U. after    7 cycles
 Optimization completed.
    -- Stationary point found.
 Normal termination of Gaussian 16 at Thu Dec 10 16:04:03 2020.

 --------------------------------------------------------------------
 #N Geom=AllCheck Guess=TCheck SCRF=Check GenChk RB3LYP/6-31G(d) Freq
 --------------------------------------------------------------------

 Structure from the checkpoint file:  "JID_5427.chk"
 ------------------------------
 CID_82284061_JID_5427_neutraal
 ------------------------------
 Charge =  0 Multiplicity = 1

 SCF Done:  E(RB3LYP) =  -690.030437681     A.U. after    1 cycles

  Exact polarizability: 162.218   0.335 138.650  -2.888  -8.810  96.583
 Approx polarizability: 228.381  -3.102 205.137  -4.462 -23.300 143.147

                      1                      2                      3
                      A                      A                      A
 Frequencies --     39.2628                50.4689                66.0243
 Red. masses --      3.2777                 5.7671                 3.6077
 Frc consts  --      0.0030                 0.0087                 0.0093
 IR Inten    --      0.6585                 1.2190                 0.0551

                      4                      5                      6
                      A                      A                      A
 Frequencies --     78.9282               122.6687               127.4663
 Red. masses --      3.4214                 3.7816                 3.5062
 Frc consts  --      0.0126                 0.0335                 0.0336
 IR Inten    --      0.1954                 0.7860                 0.0400

                      7                      8                      9
                      A                      A                      A
 Frequencies --    152.3561               195.9363               210.1151
 Red. masses --      2.3729                 2.8145                 1.2151
 Frc consts  --      0.0325                 0.0637                 0.0316
 IR Inten    --      1.0077                 1.8434                 0.9259

                     10                     11                     12
                      A                      A                      A
 Frequencies --    220.3033               244.1201               263.7638
 Red. masses --      1.5196                 1.1651                 3.0632
 Frc consts  --      0.0435                 0.0409                 0.1256
 IR Inten    --      0.4572                 0.5229                 0.6070

                     13                     14                     15
                      A                      A                      A
 Frequencies --    270.1016               292.7313               318.3260
 Red. masses --      2.1172                 2.8557                 1.4415
 Frc consts  --      0.0910                 0.1442                 0.0861
 IR Inten    --      1.0111                 1.1167                 0.0274

                     16                     17                     18
                      A                      A                      A
 Frequencies --    325.7132               362.5385               381.4562
 Red. masses --      1.4979                 2.6717                 2.4376
 Frc consts  --      0.0936                 0.2069                 0.2090
 IR Inten    --      0.0298                 1.3580                 0.3738

                     19                     20                     21
                      A                      A                      A
 Frequencies --    418.8028               439.5348               454.3684
 Red. masses --      2.9718                 3.3363                 3.4291
 Frc consts  --      0.3071                 0.3798                 0.4171
 IR Inten    --      4.1343                 4.3464                 0.4478

                     22                     23                     24
                      A                      A                      A
 Frequencies --    505.0090               584.7494               592.0601
 Red. masses --      3.4435                 2.2360                 2.0132
 Frc consts  --      0.5174                 0.4505                 0.4158
 IR Inten    --      0.2828                24.8812                37.7303

                     25                     26                     27
                      A                      A                      A
 Frequencies --    606.3638               671.1655               683.5828
 Red. masses --      3.4048                 3.2148                 3.3864
 Frc consts  --      0.7376                 0.8532                 0.9323
 IR Inten    --      9.7249                41.1839                44.8347

                     28                     29                     30
                      A                      A                      A
 Frequencies --    714.0313               738.0290               784.6906
 Red. masses --      4.0069                 2.6732                 4.3428
 Frc consts  --      1.2036                 0.8579                 1.5755
 IR Inten    --      1.3399                20.8169                32.3978

                     31                     32                     33
                      A                      A                      A
 Frequencies --    817.7177               840.2207               850.1175
 Red. masses --      1.6483                 1.6247                 2.3814
 Frc consts  --      0.6494                 0.6758                 1.0140
 IR Inten    --     11.6123                 7.4132                 0.6030

                     34                     35                     36
                      A                      A                      A
 Frequencies --    884.6541               925.4073               943.5346
 Red. masses --      2.4294                 1.3583                 1.7647
 Frc consts  --      1.1202                 0.6854                 0.9256
 IR Inten    --      3.0684                 5.5682                 0.3785

                     37                     38                     39
                      A                      A                      A
 Frequencies --    949.1181               978.3709              1026.3813
 Red. masses --      1.7378                 1.1943                 9.0785
 Frc consts  --      0.9223                 0.6735                 5.6348
 IR Inten    --      0.3520                 0.0568                16.0362

                     40                     41                     42
                      A                      A                      A
 Frequencies --   1053.6220              1059.2934              1064.0830
 Red. masses --      1.8407                 1.4262                 1.3932
 Frc consts  --      1.2039                 0.9429                 0.9294
 IR Inten    --      1.0913                 4.6365                 0.1709

                     43                     44                     45
                      A                      A                      A
 Frequencies --   1100.7313              1117.1163              1129.5164
 Red. masses --      2.9147                 2.0455                 1.7223
 Frc consts  --      2.0807                 1.5040                 1.2946
 IR Inten    --     61.5066                15.3223                 1.7650

                     46                     47                     48
                      A                      A                      A
 Frequencies --   1170.2929              1186.2988              1241.8743
 Red. masses --      1.9905                 2.0395                 2.4461
 Frc consts  --      1.6062                 1.6911                 2.2227
 IR Inten    --     70.9750               327.6962                17.3897

                     49                     50                     51
                      A                      A                      A
 Frequencies --   1243.8288              1255.5786              1287.7793
 Red. masses --      2.6753                 2.1235                 3.0292
 Frc consts  --      2.4386                 1.9724                 2.9598
 IR Inten    --      4.3469                 7.5682                13.1996

                     52                     53                     54
                      A                      A                      A
 Frequencies --   1317.4401              1332.5807              1352.6223
 Red. masses --      1.3872                 1.7567                 2.2034
 Frc consts  --      1.4185                 1.8379                 2.3752
 IR Inten    --     14.1974                41.1236                13.0920

                     55                     56                     57
                      A                      A                      A
 Frequencies --   1397.7417              1407.7039              1423.6379
 Red. masses --      1.5106                 1.5791                 1.6501
 Frc consts  --      1.7388                 1.8437                 1.9704
 IR Inten    --     18.7905                 1.1838                21.6104

                     58                     59                     60
                      A                      A                      A
 Frequencies --   1429.5295              1433.4824              1445.8941
 Red. masses --      1.2922                 1.6077                 1.2702
 Frc consts  --      1.5558                 1.9465                 1.5646
 IR Inten    --      5.6948                 6.4927                 8.8918

                     61                     62                     63
                      A                      A                      A
 Frequencies --   1459.3764              1476.7960              1491.5728
 Red. masses --      1.2995                 7.2960                 4.9491
 Frc consts  --      1.6306                 9.3751                 6.4874
 IR Inten    --      5.1211                32.6708                58.1319

                     64                     65                     66
                      A                      A                      A
 Frequencies --   1507.8073              1511.7831              1516.3448
 Red. masses --      1.0636                 1.0837                 1.0626
 Frc consts  --      1.4247                 1.4593                 1.4395
 IR Inten    --      1.6957                 0.9377                 6.1573

                     67                     68                     69
                      A                      A                      A
 Frequencies --   1520.7439              1523.9174              1530.6176
 Red. masses --      1.0507                 1.0674                 1.0489
 Frc consts  --      1.4316                 1.4605                 1.4478
 IR Inten    --      0.5536                 0.8931                 1.6518

                     70                     71                     72
                      A                      A                      A
 Frequencies --   1534.8754              1536.8039              1542.9720
 Red. masses --      1.0544                 1.0563                 1.0690
 Frc consts  --      1.4636                 1.4699                 1.4994
 IR Inten    --      8.3756                 4.3279                10.6519

                     73                     74                     75
                      A                      A                      A
 Frequencies --   1551.9510              1584.3925              1842.6040
 Red. masses --      1.1311                 5.1096                 9.8629
 Frc consts  --      1.6052                 7.5572                19.7296
 IR Inten    --     13.3219                 7.0294               326.5098

                     76                     77                     78
                      A                      A                      A
 Frequencies --   3051.9765              3053.7938              3055.2931
 Red. masses --      1.0370                 1.0353                 1.0620
 Frc consts  --      5.6913                 5.6886                 5.8412
 IR Inten    --     13.2564                19.8386                23.9953

                     79                     80                     81
                      A                      A                      A
 Frequencies --   3055.5165              3061.9271              3080.6443
 Red. masses --      1.0426                 1.0374                 1.0719
 Frc consts  --      5.7348                 5.7304                 5.9937
 IR Inten    --     27.5122                25.1919                38.7023

                     82                     83                     84
                      A                      A                      A
 Frequencies --   3108.0963              3120.5087              3120.9651
 Red. masses --      1.0970                 1.1020                 1.1023
 Frc consts  --      6.2440                 6.3226                 6.3261
 IR Inten    --     11.2430                 7.0253                 7.3560

                     85                     86                     87
                      A                      A                      A
 Frequencies --   3126.2306              3128.7175              3131.0528
 Red. masses --      1.0988                 1.1020                 1.1029
 Frc consts  --      6.3271                 6.3556                 6.3705
 IR Inten    --     27.1265                59.0712                21.0334

                     88                     89                     90
                      A                      A                      A
 Frequencies --   3131.2518              3138.8811              3143.6319
 Red. masses --      1.1028                 1.1007                 1.0999
 Frc consts  --      6.3705                 6.3896                 6.4042
 IR Inten    --     47.3697                27.7583                31.8649

                     91                     92                     93
                      A                      A                      A
 Frequencies --   3186.6271              3309.0312              3700.9676
 Red. masses --      1.0912                 1.0969                 1.0641
 Frc consts  --      6.5285                 7.0766                 8.5871
 IR Inten    --     19.1431                 0.3754                69.4237

 - Thermochemistry -
 -------------------
 Temperature   298.150 Kelvin.  Pressure   1.00000 Atm.
 Atom     1 has atomic number  6 and mass  12.00000

 Molecular mass:   210.13683 amu.
 Principal axes and moments of inertia in atomic units:
                           1         2         3
     Eigenvalues --  2423.521894021.185135612.31508
           X            0.99998  -0.00583  -0.00055
           Y            0.00583   0.99994   0.00911
           Z            0.00050  -0.00911   0.99996
 This molecule is an asymmetric top.
 Rotational symmetry number  1.
 Warning -- assumption of classical behavior for rotation
           may cause significant error
 Rotational temperatures (Kelvin)      0.03574     0.02154     0.01543
 Rotational constants (GHZ):           0.74468     0.44881     0.32157
 Zero-point vibrational energy     750169.3 (Joules/Mol)
                                  179.29476 (Kcal/Mol)
 Warning -- explicit consideration of  25 degrees of freedom as
           vibrations may cause significant error
 Vibrational temperatures:     56.49    72.61    94.99   113.56   176.49
          (Kelvin)            183.40   219.21   281.91   302.31   316.97
                              351.23   379.50   388.62   421.18   458.00
                              468.63   521.61   548.83   602.56   632.39
                              653.73   726.60   841.32   851.84   872.42
                              965.66   983.52  1027.33  1061.86  1128.99
                             1176.51  1208.89  1223.13  1272.82  1331.45
                             1357.54  1365.57  1407.66  1476.73  1515.93
                             1524.09  1530.98  1583.71  1607.28  1625.12
                             1683.79  1706.82  1786.78  1789.59  1806.50
                             1852.83  1895.50  1917.29  1946.12  2011.04
                             2025.37  2048.30  2056.77  2062.46  2080.32
                             2099.72  2124.78  2146.04  2169.40  2175.12
                             2181.68  2188.01  2192.58  2202.22  2208.34
                             2211.12  2219.99  2232.91  2279.59  2651.10
                             4391.11  4393.73  4395.89  4396.21  4405.43
                             4432.36  4471.86  4489.72  4490.37  4497.95
                             4501.53  4504.89  4505.17  4516.15  4522.99
                             4584.85  4760.96  5324.87

 Zero-point correction=                           0.285724 (Hartree/Particle)
 Thermal correction to Energy=                    0.301721
 Thermal correction to Enthalpy=                  0.302665
 Thermal correction to Gibbs Free Energy=         0.242422
 Sum of electronic and zero-point Energies=           -689.744713
 Sum of electronic and thermal Energies=              -689.728717
 Sum of electronic and thermal Enthalpies=            -689.727772
 Sum of electronic and thermal Free Energies=         -689.788016

                     E (Thermal)             CV                S
                      KCal/Mol        Cal/Mol-Kelvin    Cal/Mol-Kelvin
 Total                  189.333             60.119            126.794
 Electronic               0.000              0.000              0.000
 Translational            0.889              2.981             41.932
 Rotational               0.889              2.981             32.370
 Vibrational            187.555             54.157             52.492
 Vibration     1          0.594              1.981              5.296
 Vibration     2          0.595              1.977              4.799
 Vibration     3          0.597              1.970              4.269
 Vibration     4          0.600              1.963              3.917
 Vibration     5          0.610              1.930              3.058
 Vibration     6          0.611              1.926              2.984
 Vibration     7          0.619              1.900              2.643
 Vibration     8          0.636              1.846              2.171
 Vibration     9          0.642              1.825              2.043
 Vibration    10          0.647              1.810              1.957
 Vibration    11          0.659              1.772              1.773
 Vibration    12          0.670              1.739              1.637
 Vibration    13          0.674              1.728              1.596
 Vibration    14          0.688              1.687              1.458
 Vibration    15          0.705              1.639              1.319
 Vibration    16          0.710              1.624              1.281
 Vibration    17          0.736              1.549              1.111
 Vibration    18          0.751              1.510              1.033
 Vibration    19          0.782              1.429              0.896
 Vibration    20          0.800              1.384              0.828
 Vibration    21          0.813              1.351              0.783
 Vibration    22          0.860              1.239              0.646
 Vibration    23          0.942              1.064              0.477
 Vibration    24          0.950              1.049              0.464
 Vibration    25          0.965              1.018              0.439

 Optimization completed.
    -- Stationary point found.
 Normal termination of Gaussian 16 at Thu Dec 10 16:15:23 2020.

 ----------------------------------------------------------------------
 # B3LYP/6-311++G(d,p) empiricaldispersion=gd3bj scf=xqc pop=npa geom=c
 heck
 ----------------------------------------------------------------------

 --------------------------------------
 CID_82284061_JID_5427_Energie_neutraal
 --------------------------------------
 Structure from the checkpoint file:  "JID_5427.chk"
 Charge =  0 Multiplicity = 1

 SCF Done:  E(RB3LYP) =  -690.230067066     A.U. after   14 cycles
 Normal termination of Gaussian 16 at Thu Dec 10 16:20:39 2020.

 ----------------------------------------------------------------------
 # B3LYP/6-311++G(d,p) empiricaldispersion=gd3bj scf=xqc pop=npa geom=c
 heck
 ----------------------------------------------------------------------

 ------------------------------------
 CID_82284061_JID_5427_Energie_kation
 ------------------------------------
 Structure from the checkpoint file:  "JID_5427.chk"
 Charge =  1 Multiplicity = 2

 SCF Done:  E(UB3LYP) =  -689.906721128     A.U. after   31 cycles
 Normal termination of Gaussian 16 at Thu Dec 10 16:37:07 2020.
 Gaussian 16:  ES64L-G16RevA.03 25-Dec-2016

 ----------------------------------------------------------------------
 # B3LYP/6-311++G(d,p) empiricaldispersion=gd3bj scf=xqc pop=npa geom=c
 heck
 ----------------------------------------------------------------------

 -----------------------------------
 CID_82284061_JID_5427_Energie_anion
 -----------------------------------
 Structure from the checkpoint file:  "JID_5427.chk"
 Charge = -1 Multiplicity = 2

                         Standard orientation:
 ---------------------------------------------------------------------
 Center     Atomic      Atomic             Coordinates (Angstroms)
 Number     Number       Type             X           Y           Z
 ---------------------------------------------------------------------
      1          6           0        1.047671    2.868501    1.337335
      2          6           0        0.824420    3.011183   -0.168870
      3          6           0        1.095853    1.721605   -0.948601
      4          7           0        0.218283    0.630284   -0.518375
      5          6           0        0.508068   -0.650667   -0.089970
      6          6           0       -0.722189   -1.224517    0.186051
      7          6           0       -1.681292   -0.230137   -0.104936
      8          7           0       -1.098789    0.892833   -0.535306
      9          6           0       -3.147500   -0.302593    0.010224
     10          8           0       -3.936585    0.580046   -0.247528
     11          8           0       -3.542726   -1.527642    0.460793
     12          6           0        1.889778   -1.273844    0.016187
     13          6           0        2.587280   -1.307648   -1.362337
     14          6           0        2.766963   -0.535128    1.051677
     15          6           0        1.730919   -2.730340    0.496455
     16          1           0        0.392903    2.097744    1.756894
     17          1           0        0.827852    3.809364    1.852164
     18          1           0        2.084158    2.595241    1.568349
     19          1           0       -0.206123    3.320007   -0.365871
     20          1           0        1.481978    3.787579   -0.580653
     21          1           0        0.934688    1.881402   -2.020070
     22          1           0        2.125483    1.399150   -0.809054
     23          1           0       -0.916001   -2.221285    0.546262
     24          1           0       -4.515414   -1.482343    0.505383
     25          1           0        2.773951   -0.309539   -1.767462
     26          1           0        3.554308   -1.816337   -1.277084
     27          1           0        1.976059   -1.854428   -2.087832
     28          1           0        2.265591   -0.498156    2.024273
     29          1           0        3.718228   -1.065031    1.175768
     30          1           0        2.998676    0.491352    0.757676
     31          1           0        1.257818   -2.775677    1.482650
     32          1           0        1.127466   -3.317354   -0.203125
     33          1           0        2.716577   -3.201232    0.572090
 ---------------------------------------------------------------------

 SCF Done:  E(UB3LYP) =  -690.221792812     A.U. after   32 cycles

 The electronic state is 2-A.
 Alpha  occ. eigenvalues --  -19.05866 -18.99016 -14.27869 -14.21083 -10.17996
 Alpha  occ. eigenvalues --  -10.10644 -10.10388 -10.10259 -10.08159 -10.06931
 Alpha  occ. eigenvalues --  -10.06565 -10.06499 -10.06210 -10.06208 -10.05707
 Alpha  occ. eigenvalues --   -0.99448  -0.94168  -0.90146  -0.74650  -0.73389
 Alpha  occ. eigenvalues --   -0.67442  -0.65907  -0.60400  -0.59474  -0.59263
 Alpha  occ. eigenvalues --   -0.55090  -0.50926  -0.49455  -0.47875  -0.42976
 Alpha  occ. eigenvalues --   -0.40219  -0.38199  -0.37433  -0.36010  -0.35473
 Alpha  occ. eigenvalues --   -0.35046  -0.34182  -0.34069  -0.33596  -0.31241
 Alpha  occ. eigenvalues --   -0.30798  -0.30529  -0.29355  -0.29032  -0.28787
 Alpha  occ. eigenvalues --   -0.27382  -0.25584  -0.25313  -0.25015  -0.24411
 Alpha  occ. eigenvalues --   -0.24197  -0.22977  -0.21577  -0.18097  -0.16758
 Alpha  occ. eigenvalues --   -0.14735  -0.13957   0.04350
 Alpha virt. eigenvalues --    0.06216   0.07008   0.07538   0.08016   0.08736
 Alpha virt. eigenvalues --    0.09388   0.09494   0.10233   0.10954   0.11766
 Alpha virt. eigenvalues --    0.11904   0.12767   0.12789   0.13102   0.13466

  Beta  occ. eigenvalues --  -19.05828 -18.98897 -14.27793 -14.20844 -10.17841
  Beta  occ. eigenvalues --  -10.10626 -10.10401 -10.10256 -10.08144 -10.06915
  Beta  occ. eigenvalues --  -10.06543 -10.06473 -10.06197 -10.06175 -10.05705
  Beta  occ. eigenvalues --   -0.99291  -0.93949  -0.89964  -0.74505  -0.73345
  Beta  occ. eigenvalues --   -0.67342  -0.65808  -0.60243  -0.59423  -0.59211
  Beta  occ. eigenvalues --   -0.54909  -0.50871  -0.49378  -0.47800  -0.42868
  Beta  occ. eigenvalues --   -0.40153  -0.37972  -0.37296  -0.35948  -0.35385
  Beta  occ. eigenvalues --   -0.34995  -0.34102  -0.33699  -0.33364  -0.31174
  Beta  occ. eigenvalues --   -0.30643  -0.30470  -0.29259  -0.28928  -0.28680
  Beta  occ. eigenvalues --   -0.27352  -0.25550  -0.25236  -0.24973  -0.24352
  Beta  occ. eigenvalues --   -0.24143  -0.22936  -0.21064  -0.17820  -0.16648
  Beta  occ. eigenvalues --   -0.14368  -0.13349
  Beta virt. eigenvalues --    0.06691   0.07493   0.07726   0.07950   0.08787
  Beta virt. eigenvalues --    0.09142   0.09764   0.09933   0.10552   0.11259
  Beta virt. eigenvalues --    0.11967   0.12269   0.12861   0.13104   0.13359

 Mulliken charges and spin densities:
               1          2
     1  C   -0.039741  -0.418030
     2  C   -0.120348  -0.396289
     3  C    0.066493  -0.067695
     4  N    0.281047   0.235063
     5  C    0.625585  -0.601699
     6  C   -0.074780  -0.395104
     7  C    0.058783  -0.054790
     8  N   -0.128254  -0.082923
     9  C   -0.395982   0.543030
    10  O   -0.340795   0.039383
    11  O   -0.209679   0.004803
    12  C   -0.857140   1.216336
    13  C    0.783630  -1.337002
    14  C    0.442766  -1.069673
    15  C   -0.226321  -0.347550
    16  H    0.119969   0.036418
    17  H    0.037661   0.103446
    18  H    0.073091   0.053921
    19  H    0.248684  -0.068791
    20  H   -0.443680   0.599166
    21  H   -0.278247   0.496488
    22  H    0.415243  -0.310453
    23  H    0.184707   0.012800
    24  H    0.260825   0.015442
    25  H   -0.623051   0.755632
    26  H   -0.353078   0.514742
    27  H    0.082024   0.076449
    28  H    0.127194   0.030257
    29  H   -0.245179   0.407436
    30  H   -0.289898   0.398480
    31  H    0.055784   0.074549
    32  H   -0.053892   0.189162
    33  H   -0.183420   0.346994
 Sum of Mulliken charges =  -1.00000   1.00000

 Dipole moment (field-independent basis, Debye):
    X=             -3.3242    Y=             -2.0235    Z=              3.1831  Tot=              5.0276
 Quadrupole moment (field-independent basis, Debye-Ang):
   XX=           -160.0908   YY=           -135.3226   ZZ=           -120.2059
   XY=             11.0550   XZ=              1.5549   YZ=              3.6399

 Summary of Natural Population Analysis:

                                       Natural Population
                Natural  -----------------------------------------------
    Atom  No    Charge         Core      Valence    Rydberg      Total
 -----------------------------------------------------------------------
      C    1   -0.28825      0.99966     2.28340    0.00519     3.28825
      C    2   -0.19598      0.99963     2.18837    0.00797     3.19598
      C    3   -0.08024      0.99959     2.06904    0.01160     3.08024
      N    4   -0.09817      0.99962     2.58501    0.01353     3.59817
      C    5    0.08617      0.99948     1.89962    0.01472     2.91383
      C    6   -0.14488      0.99946     2.13858    0.00684     3.14488
      C    7    0.00532      0.99952     1.98093    0.01423     2.99468
      N    8   -0.09588      0.99970     2.58548    0.01070     3.59588
      C    9    0.40603      0.99966     1.56976    0.02456     2.59397
      O   10   -0.29914      0.99987     3.29352    0.00575     4.29914
      O   11   -0.35142      0.99988     3.34522    0.00632     4.35142
      C   12   -0.06330      0.99956     2.05254    0.01120     3.06330
      C   13   -0.27944      0.99963     2.27274    0.00708     3.27944
      C   14   -0.27792      0.99963     2.27142    0.00688     3.27792
      C   15   -0.28056      0.99964     2.27362    0.00730     3.28056
      H   16    0.10226      0.00000     0.39681    0.00093     0.39774
      H   17    0.09707      0.00000     0.40228    0.00064     0.40293
      H   18    0.09512      0.00000     0.40394    0.00094     0.40488
      H   19    0.10749      0.00000     0.39120    0.00131     0.39251
      H   20    0.09739      0.00000     0.40129    0.00132     0.40261
      H   21    0.10463      0.00000     0.39374    0.00163     0.39537
      H   22    0.09907      0.00000     0.39894    0.00199     0.40093
      H   23    0.11270      0.00000     0.38612    0.00119     0.38730
      H   24    0.23258      0.00000     0.26345    0.00397     0.26742
      H   25    0.10152      0.00000     0.39703    0.00145     0.39848
      H   26    0.10102      0.00000     0.39753    0.00145     0.39898
      H   27    0.10214      0.00000     0.39676    0.00110     0.39786
      H   28    0.10046      0.00000     0.39858    0.00096     0.39954
      H   29    0.10054      0.00000     0.39838    0.00108     0.39946
      H   30    0.09957      0.00000     0.39915    0.00127     0.40043
      H   31    0.10010      0.00000     0.39906    0.00085     0.39990
      H   32    0.10221      0.00000     0.39693    0.00086     0.39779
      H   33    0.10180      0.00000     0.39731    0.00089     0.39820
 =======================================================================
   * Total *   -0.00000     14.99455    41.82775    0.17770    57.00000

 Normal termination of Gaussian 16 at Thu Dec 10 16:56:35 2020.
