 Gaussian 16, Revision A.03,

 -----------------------------------------------------------
 # opt freq B3LYP/6-31G(d) empiricaldispersion=gd3bj scf=xqc
 -----------------------------------------------------------

 -------------------------------
 CID_141228646_JID_7306_neutraal
 -------------------------------
 Symbolic Z-matrix:
 Charge =  0 Multiplicity = 1

 SCF Done:  E(RB3LYP) =  -1157.11095751     A.U. after   15 cycles
 SCF Done:  E(RB3LYP) =  -1157.12024552     A.U. after   13 cycles
 SCF Done:  E(RB3LYP) =  -1157.12070001     A.U. after   12 cycles
 SCF Done:  E(RB3LYP) =  -1157.12151250     A.U. after   12 cycles
 SCF Done:  E(RB3LYP) =  -1157.12165327     A.U. after   11 cycles
 SCF Done:  E(RB3LYP) =  -1157.12171250     A.U. after   11 cycles
 SCF Done:  E(RB3LYP) =  -1157.12173711     A.U. after   11 cycles
 SCF Done:  E(RB3LYP) =  -1157.12175310     A.U. after   11 cycles
 SCF Done:  E(RB3LYP) =  -1157.12176198     A.U. after   10 cycles
 SCF Done:  E(RB3LYP) =  -1157.12176418     A.U. after    9 cycles
 SCF Done:  E(RB3LYP) =  -1157.12176542     A.U. after    8 cycles
 SCF Done:  E(RB3LYP) =  -1157.12176552     A.U. after    8 cycles
 SCF Done:  E(RB3LYP) =  -1157.12176563     A.U. after    8 cycles
 SCF Done:  E(RB3LYP) =  -1157.12176571     A.U. after    8 cycles
 SCF Done:  E(RB3LYP) =  -1157.12176577     A.U. after    7 cycles
 Optimization completed.
    -- Stationary point found.
 Normal termination of Gaussian 16 at Fri Dec 11 12:06:41 2020.

 --------------------------------------------------------------------
 #N Geom=AllCheck Guess=TCheck SCRF=Check GenChk RB3LYP/6-31G(d) Freq
 --------------------------------------------------------------------

 Structure from the checkpoint file:  "JID_7306.chk"
 -------------------------------
 CID_141228646_JID_7306_neutraal
 -------------------------------
 Charge =  0 Multiplicity = 1

 SCF Done:  E(RB3LYP) =  -1157.12176577     A.U. after    1 cycles

  Exact polarizability: 205.373  -5.393 170.187   8.042   3.743  90.514
 Approx polarizability: 273.273  -6.037 303.389  18.104  14.287 143.190

                      1                      2                      3
                      A                      A                      A
 Frequencies --     16.4718                26.8691                53.9425
 Red. masses --      4.4081                 4.7111                 5.1227
 Frc consts  --      0.0007                 0.0020                 0.0088
 IR Inten    --      0.8527                 2.4286                 1.8160

                      4                      5                      6
                      A                      A                      A
 Frequencies --     62.8674                84.6189               120.6245
 Red. masses --      3.5504                 5.2551                 6.8735
 Frc consts  --      0.0083                 0.0222                 0.0589
 IR Inten    --      1.6740                 1.1331                 1.6962

                      7                      8                      9
                      A                      A                      A
 Frequencies --    141.3205               147.4208               197.2178
 Red. masses --      4.4699                 9.2308                 2.2332
 Frc consts  --      0.0526                 0.1182                 0.0512
 IR Inten    --      0.0184                 9.9385                12.8110

                     10                     11                     12
                      A                      A                      A
 Frequencies --    213.2467               232.8936               241.5310
 Red. masses --      3.8871                 1.0683                 2.5486
 Frc consts  --      0.1041                 0.0341                 0.0876
 IR Inten    --      7.6422                 0.5658                 9.1279

                     13                     14                     15
                      A                      A                      A
 Frequencies --    257.6019               277.1312               297.4122
 Red. masses --      1.2265                 5.1330                 3.6642
 Frc consts  --      0.0480                 0.2323                 0.1910
 IR Inten    --      0.9370                 2.5048                 2.2225

                     16                     17                     18
                      A                      A                      A
 Frequencies --    318.7607               362.3648               393.3464
 Red. masses --      2.7420                 4.0428                 3.0774
 Frc consts  --      0.1642                 0.3128                 0.2805
 IR Inten    --      1.4682                10.1445                10.7730

                     19                     20                     21
                      A                      A                      A
 Frequencies --    410.7976               426.7206               429.2371
 Red. masses --      2.6790                 3.8556                 2.9432
 Frc consts  --      0.2664                 0.4136                 0.3195
 IR Inten    --      2.2003                13.8519                12.2737

                     22                     23                     24
                      A                      A                      A
 Frequencies --    459.5388               496.8943               510.9181
 Red. masses --      4.7213                 7.2770                 4.3349
 Frc consts  --      0.5874                 1.0586                 0.6667
 IR Inten    --      2.0113                42.4159                34.4893

                     25                     26                     27
                      A                      A                      A
 Frequencies --    526.9958               560.9431               567.9870
 Red. masses --      4.0039                 1.8926                 4.9513
 Frc consts  --      0.6552                 0.3509                 0.9411
 IR Inten    --     52.1005                65.4191                20.6301

                     28                     29                     30
                      A                      A                      A
 Frequencies --    591.4888               603.8993               628.0833
 Red. masses --      2.4555                 3.8467                 4.4250
 Frc consts  --      0.5062                 0.8266                 1.0285
 IR Inten    --     27.6248                 9.9890                12.1593

                     31                     32                     33
                      A                      A                      A
 Frequencies --    655.8399               712.2680               732.2580
 Red. masses --      2.4856                 3.7837                 2.4384
 Frc consts  --      0.6299                 1.1310                 0.7703
 IR Inten    --     39.4801               159.9648                 3.3136

                     34                     35                     36
                      A                      A                      A
 Frequencies --    755.2147               790.9276               823.7326
 Red. masses --      4.6894                 2.0281                 3.2700
 Frc consts  --      1.5758                 0.7475                 1.3073
 IR Inten    --     25.6190                86.6687                13.0767

                     37                     38                     39
                      A                      A                      A
 Frequencies --    849.1131               856.4550               873.2524
 Red. masses --      2.7882                 1.4521                 2.3707
 Frc consts  --      1.1844                 0.6276                 1.0652
 IR Inten    --     14.0953                 1.5250                 1.8388

                     40                     41                     42
                      A                      A                      A
 Frequencies --    913.0287               944.3984               959.9919
 Red. masses --      2.4369                 1.2454                 1.3999
 Frc consts  --      1.1969                 0.6544                 0.7601
 IR Inten    --    251.8477                 0.9849                 0.2085

                     43                     44                     45
                      A                      A                      A
 Frequencies --    969.9839               977.3699              1082.4991
 Red. masses --      1.2793                 2.3457                 3.2030
 Frc consts  --      0.7092                 1.3202                 2.2114
 IR Inten    --      0.3906                49.8091               147.0044

                     46                     47                     48
                      A                      A                      A
 Frequencies --   1113.5617              1120.4775              1159.3946
 Red. masses --      2.3221                 2.0746                 2.5147
 Frc consts  --      1.6965                 1.5346                 1.9916
 IR Inten    --      7.6600                57.2999               167.9934

                     49                     50                     51
                      A                      A                      A
 Frequencies --   1161.2684              1183.4017              1204.7873
 Red. masses --      2.1211                 2.0944                 1.8906
 Frc consts  --      1.6853                 1.7281                 1.6169
 IR Inten    --     26.4805                39.1939                38.5073

                     52                     53                     54
                      A                      A                      A
 Frequencies --   1220.6294              1226.6972              1291.0822
 Red. masses --      1.3958                 2.2027                 2.3712
 Frc consts  --      1.2253                 1.9529                 2.3288
 IR Inten    --      0.7840                 3.8894               162.0457

                     55                     56                     57
                      A                      A                      A
 Frequencies --   1317.8293              1354.3732              1362.6955
 Red. masses --      3.3172                 3.6297                 1.4782
 Frc consts  --      3.3942                 3.9228                 1.6173
 IR Inten    --      1.8572                83.7092                24.0760

                     58                     59                     60
                      A                      A                      A
 Frequencies --   1390.2335              1393.3794              1429.1564
 Red. masses --      3.2296                 1.5650                 1.2608
 Frc consts  --      3.6777                 1.7902                 1.5172
 IR Inten    --     99.4120                 0.5297                 9.9633

                     61                     62                     63
                      A                      A                      A
 Frequencies --   1440.6758              1449.8692              1499.7751
 Red. masses --      1.8383                 1.2705                 1.6152
 Frc consts  --      2.2480                 1.5735                 2.1406
 IR Inten    --     72.5259                23.5082                81.0313

                     64                     65                     66
                      A                      A                      A
 Frequencies --   1513.6881              1517.1716              1528.0885
 Red. masses --      1.0688                 1.0703                 1.1774
 Frc consts  --      1.4428                 1.4516                 1.6198
 IR Inten    --      9.1053                18.8614                89.4695

                     67                     68                     69
                      A                      A                      A
 Frequencies --   1535.7946              1538.8040              1561.8839
 Red. masses --      1.0622                 2.4860                 1.6406
 Frc consts  --      1.4762                 3.4683                 2.3580
 IR Inten    --     14.8442                86.4674               193.7828

                     70                     71                     72
                      A                      A                      A
 Frequencies --   1628.2795              1638.9615              1661.7694
 Red. masses --      1.1086                 4.4560                 5.1192
 Frc consts  --      1.7317                 7.0523                 8.3290
 IR Inten    --     56.4155               124.2251               130.4751

                     73                     74                     75
                      A                      A                      A
 Frequencies --   2318.1173              3039.8180              3052.0362
 Red. masses --     12.6576                 1.0387                 1.0390
 Frc consts  --     40.0749                 5.6552                 5.7022
 IR Inten    --     57.9498                19.7753                30.1645

                     76                     77                     78
                      A                      A                      A
 Frequencies --   3102.3841              3111.0713              3128.4458
 Red. masses --      1.0931                 1.0982                 1.1022
 Frc consts  --      6.1985                 6.2623                 6.3555
 IR Inten    --     12.9744                 5.5636                26.9769

                     79                     80                     81
                      A                      A                      A
 Frequencies --   3131.8105              3152.4199              3186.9797
 Red. masses --      1.0930                 1.1010                 1.0877
 Frc consts  --      6.3162                 6.4464                 6.5089
 IR Inten    --     37.3635                17.9195                 8.8142

                     82                     83                     84
                      A                      A                      A
 Frequencies --   3206.4738              3262.8851              3486.7194
 Red. masses --      1.0939                 1.0925                 1.0469
 Frc consts  --      6.6263                 6.8531                 7.4989
 IR Inten    --     18.0511                 0.2672                37.6097

                     85                     86                     87
                      A                      A                      A
 Frequencies --   3530.7578              3563.7682              3597.0713
 Red. masses --      1.0760                 1.0749                 1.0977
 Frc consts  --      7.9033                 8.0433                 8.3685
 IR Inten    --     58.7088                13.6015                31.7093

 - Thermochemistry -
 -------------------
 Temperature   298.150 Kelvin.  Pressure   1.00000 Atm.
 Atom     1 has atomic number  6 and mass  12.00000

 Molecular mass:   254.08375 amu.
 Principal axes and moments of inertia in atomic units:
                           1         2         3
     Eigenvalues --  2013.298217858.048609180.24229
           X            0.99994  -0.01061   0.00207
           Y            0.01062   0.99993  -0.00419
           Z           -0.00203   0.00421   0.99999
 This molecule is an asymmetric top.
 Rotational symmetry number  1.
 Warning -- assumption of classical behavior for rotation
           may cause significant error
 Rotational temperatures (Kelvin)      0.04302     0.01102     0.00943
 Rotational constants (GHZ):           0.89641     0.22967     0.19659
 Zero-point vibrational energy     645205.7 (Joules/Mol)
                                  154.20786 (Kcal/Mol)
 Warning -- explicit consideration of  29 degrees of freedom as
           vibrations may cause significant error
 Vibrational temperatures:     23.70    38.66    77.61    90.45   121.75
          (Kelvin)            173.55   203.33   212.11   283.75   306.81
                              335.08   347.51   370.63   398.73   427.91
                              458.63   521.36   565.94   591.05   613.96
                              617.58   661.17   714.92   735.10   758.23
                              807.07   817.21   851.02   868.88   903.67
                              943.61  1024.79  1053.56  1086.59  1137.97
                             1185.17  1221.68  1232.25  1256.42  1313.64
                             1358.78  1381.21  1395.59  1406.22  1557.47
                             1602.17  1612.12  1668.11  1670.81  1702.65
                             1733.42  1756.21  1764.94  1857.58  1896.06
                             1948.64  1960.61  2000.24  2004.76  2056.24
                             2072.81  2086.04  2157.84  2177.86  2182.87
                             2198.58  2209.67  2214.00  2247.20  2342.73
                             2358.10  2390.92  3335.25  4373.62  4391.20
                             4463.64  4476.14  4501.14  4505.98  4535.63
                             4585.35  4613.40  4694.56  5016.61  5079.97
                             5127.47  5175.38

 Zero-point correction=                           0.245746 (Hartree/Particle)
 Thermal correction to Energy=                    0.263179
 Thermal correction to Enthalpy=                  0.264123
 Thermal correction to Gibbs Free Energy=         0.198934
 Sum of electronic and zero-point Energies=          -1156.876020
 Sum of electronic and thermal Energies=             -1156.858587
 Sum of electronic and thermal Enthalpies=           -1156.857642
 Sum of electronic and thermal Free Energies=        -1156.922831

                     E (Thermal)             CV                S
                      KCal/Mol        Cal/Mol-Kelvin    Cal/Mol-Kelvin
 Total                  165.147             65.245            137.202
 Electronic               0.000              0.000              0.000
 Translational            0.889              2.981             42.498
 Rotational               0.889              2.981             33.340
 Vibrational            163.370             59.283             61.364
 Vibration     1          0.593              1.986              7.020
 Vibration     2          0.593              1.984              6.048
 Vibration     3          0.596              1.976              4.667
 Vibration     4          0.597              1.972              4.365
 Vibration     5          0.601              1.960              3.781
 Vibration     6          0.609              1.932              3.090
 Vibration     7          0.615              1.912              2.786
 Vibration     8          0.617              1.905              2.705
 Vibration     9          0.637              1.844              2.159
 Vibration    10          0.644              1.821              2.016
 Vibration    11          0.654              1.791              1.857
 Vibration    12          0.658              1.777              1.792
 Vibration    13          0.667              1.750              1.678
 Vibration    14          0.678              1.716              1.551
 Vibration    15          0.691              1.679              1.431
 Vibration    16          0.705              1.638              1.316
 Vibration    17          0.736              1.550              1.112
 Vibration    18          0.761              1.484              0.987
 Vibration    19          0.775              1.447              0.924
 Vibration    20          0.788              1.412              0.869
 Vibration    21          0.791              1.407              0.861
 Vibration    22          0.817              1.340              0.767
 Vibration    23          0.852              1.257              0.666
 Vibration    24          0.866              1.226              0.631
 Vibration    25          0.882              1.190              0.594
 Vibration    26          0.917              1.116              0.522
 Vibration    27          0.924              1.101              0.508
 Vibration    28          0.949              1.050              0.465
 Vibration    29          0.962              1.024              0.443

                           ! Non-Optimized Parameters !
 Normal termination of Gaussian 16 at Fri Dec 11 12:18:34 2020.

 ----------------------------------------------------------------------
 # B3LYP/6-311++G(d,p) empiricaldispersion=gd3bj scf=xqc pop=npa geom=c
 heck
 ----------------------------------------------------------------------

 ---------------------------------------
 CID_141228646_JID_7306_Energie_neutraal
 ---------------------------------------
 Structure from the checkpoint file:  "JID_7306.chk"
 Charge =  0 Multiplicity = 1

 SCF Done:  E(RB3LYP) =  -1157.37107401     A.U. after   16 cycles
 Normal termination of Gaussian 16 at Fri Dec 11 12:24:51 2020.

 ----------------------------------------------------------------------
 # B3LYP/6-311++G(d,p) empiricaldispersion=gd3bj scf=xqc pop=npa geom=c
 heck
 ----------------------------------------------------------------------

 -------------------------------------
 CID_141228646_JID_7306_Energie_kation
 -------------------------------------
 Structure from the checkpoint file:  "JID_7306.chk"
 Charge =  1 Multiplicity = 2

 SCF Done:  E(UB3LYP) =  -1157.08373486     A.U. after   24 cycles
 Normal termination of Gaussian 16 at Fri Dec 11 12:38:43 2020.
 Gaussian 16:  ES64L-G16RevA.03 25-Dec-2016

 ----------------------------------------------------------------------
 # B3LYP/6-311++G(d,p) empiricaldispersion=gd3bj scf=xqc pop=npa geom=c
 heck
 ----------------------------------------------------------------------

 ------------------------------------
 CID_141228646_JID_7306_Energie_anion
 ------------------------------------
 Structure from the checkpoint file:  "JID_7306.chk"
 Charge = -1 Multiplicity = 2

                         Standard orientation:
 ---------------------------------------------------------------------
 Center     Atomic      Atomic             Coordinates (Angstroms)
 Number     Number       Type             X           Y           Z
 ---------------------------------------------------------------------
      1          6           0        4.736825    0.208862   -1.207213
      2          6           0        3.727583   -0.483464   -0.284569
      3          6           0        4.389240   -1.514749    0.630094
      4          7           0        3.007852    0.529327    0.512624
      5          6           0        1.700440    0.918263    0.301948
      6          6           0        0.657377   -0.018745    0.068794
      7          6           0       -0.675769    0.424158   -0.139681
      8          6           0       -0.982720    1.780305   -0.080608
      9          6           0        0.038664    2.686199    0.208367
     10          6           0        1.352115    2.278530    0.387758
     11          7           0       -1.652000   -0.550900   -0.428020
     12         16           0       -3.261064   -0.451029    0.062093
     13          8           0       -3.742664   -1.821180   -0.087326
     14          8           0       -3.436888    0.291973    1.302156
     15          7           0       -3.848705    0.574620   -1.141959
     16          6           0        0.885366   -1.422146    0.121965
     17          7           0        0.989527   -2.582942    0.166690
     18          1           0        5.491545    0.750770   -0.621725
     19          1           0        4.236661    0.922987   -1.870119
     20          1           0        5.264405   -0.525413   -1.825028
     21          1           0        2.988612   -0.990835   -0.907925
     22          1           0        5.111494   -1.029881    1.298187
     23          1           0        3.637708   -2.021200    1.240485
     24          1           0        4.923324   -2.267496    0.039927
     25          1           0        3.603992    1.307066    0.771153
     26          1           0       -1.994866    2.118247   -0.252632
     27          1           0       -0.199262    3.744306    0.267103
     28          1           0        2.133100    3.010082    0.575348
     29          1           0       -1.347525   -1.520402   -0.366123
     30          1           0       -3.937247    0.074251   -2.025273
     31          1           0       -4.749938    0.943626   -0.841980
 ---------------------------------------------------------------------

 SCF Done:  E(UB3LYP) =  -1157.37522021     A.U. after   33 cycles
 SCF Done:  E(UB3LYP) =  -1157.37522021     a.u. after    1 cycles

 The electronic state is 2-A.
 Alpha  occ. eigenvalues --  -88.98502 -19.02353 -19.02262 -14.24909 -14.24777
 Alpha  occ. eigenvalues --  -14.21610 -14.17778 -10.11374 -10.10590 -10.10588
 Alpha  occ. eigenvalues --  -10.08060 -10.07743 -10.07291 -10.06385 -10.04845
 Alpha  occ. eigenvalues --  -10.04749 -10.04558  -8.04422  -6.00685  -6.00658
 Alpha  occ. eigenvalues --   -6.00611  -1.03643  -0.92032  -0.84570  -0.83429
 Alpha  occ. eigenvalues --   -0.81562  -0.77937  -0.73067  -0.68331  -0.65013
 Alpha  occ. eigenvalues --   -0.61583  -0.60029  -0.56396  -0.53437  -0.49932
 Alpha  occ. eigenvalues --   -0.49436  -0.45675  -0.44557  -0.42567  -0.41232
 Alpha  occ. eigenvalues --   -0.40964  -0.37899  -0.37226  -0.35684  -0.34622
 Alpha  occ. eigenvalues --   -0.34169  -0.32998  -0.32689  -0.30441  -0.29966
 Alpha  occ. eigenvalues --   -0.29060  -0.27540  -0.26710  -0.26437  -0.25732
 Alpha  occ. eigenvalues --   -0.25513  -0.24561  -0.24352  -0.23762  -0.22671
 Alpha  occ. eigenvalues --   -0.22435  -0.21827  -0.20842  -0.19390  -0.17764
 Alpha  occ. eigenvalues --   -0.12381  -0.09529   0.03929
 Alpha virt. eigenvalues --    0.05580   0.06153   0.07983   0.08565   0.09185
 Alpha virt. eigenvalues --    0.09449   0.10589   0.10706   0.11147   0.11644
 Alpha virt. eigenvalues --    0.12392   0.12688   0.13076   0.13436   0.14341

  Beta  occ. eigenvalues --  -88.98487 -19.02341 -19.02240 -14.24857 -14.24736
  Beta  occ. eigenvalues --  -14.21584 -14.17535 -10.11367 -10.10479 -10.10375
  Beta  occ. eigenvalues --  -10.08038 -10.07731 -10.07160 -10.06375 -10.04857
  Beta  occ. eigenvalues --  -10.04644 -10.04431  -8.04403  -6.00670  -6.00643
  Beta  occ. eigenvalues --   -6.00593  -1.03577  -0.91976  -0.84412  -0.83318
  Beta  occ. eigenvalues --   -0.81447  -0.77586  -0.72826  -0.68223  -0.64599
  Beta  occ. eigenvalues --   -0.61387  -0.60003  -0.56302  -0.53002  -0.49853
  Beta  occ. eigenvalues --   -0.49285  -0.45570  -0.44454  -0.42450  -0.41055
  Beta  occ. eigenvalues --   -0.40909  -0.37827  -0.37131  -0.35630  -0.34551
  Beta  occ. eigenvalues --   -0.34037  -0.32930  -0.32558  -0.30389  -0.29449
  Beta  occ. eigenvalues --   -0.28918  -0.27458  -0.26635  -0.26364  -0.25535
  Beta  occ. eigenvalues --   -0.25313  -0.24465  -0.24106  -0.23481  -0.22442
  Beta  occ. eigenvalues --   -0.21741  -0.21664  -0.20687  -0.19256  -0.17153
  Beta  occ. eigenvalues --   -0.11271  -0.09112
  Beta virt. eigenvalues --    0.06093   0.06587   0.07928   0.08419   0.08758
  Beta virt. eigenvalues --    0.09160   0.09951   0.10744   0.10909   0.11116
  Beta virt. eigenvalues --    0.11717   0.12380   0.12656   0.13018   0.13423

 Mulliken charges and spin densities:
               1          2
     1  C   -0.244630  -0.325298
     2  C   -0.134723   0.128841
     3  C   -0.355793  -0.177698
     4  N    0.111461   0.015227
     5  C   -0.227519   0.246236
     6  C    1.110503   0.085943
     7  C    0.297044  -0.009564
     8  C   -0.202249  -0.133162
     9  C   -0.404913   0.258396
    10  C   -0.261049  -0.018849
    11  N   -0.415914   0.113223
    12  S    0.946520  -0.617118
    13  O   -0.168162   0.016248
    14  O   -0.239955  -0.007689
    15  N   -0.450813  -0.012358
    16  C   -1.319651  -0.025435
    17  N   -0.273336   0.125284
    18  H   -0.016766   0.149222
    19  H    0.105991   0.057827
    20  H    0.102727   0.021456
    21  H    0.192026   0.007322
    22  H    0.045236   0.074694
    23  H    0.193260  -0.003247
    24  H    0.073146   0.035719
    25  H    0.221853   0.012536
    26  H    0.173112   0.031059
    27  H    0.084164   0.036056
    28  H   -0.057247   0.135484
    29  H    0.258587   0.069135
    30  H   -0.067454   0.347485
    31  H   -0.075455   0.363023
 Sum of Mulliken charges =  -1.00000   1.00000

 Dipole moment (field-independent basis, Debye):
    X=              4.0729    Y=              2.3826    Z=             -1.5730  Tot=              4.9739
 Quadrupole moment (field-independent basis, Debye-Ang):
   XX=           -164.6228   YY=           -143.5234   ZZ=           -128.0575
   XY=              0.2288   XZ=              0.0383   YZ=              2.4067

 Summary of Natural Population Analysis:

                                       Natural Population
                Natural  -----------------------------------------------
    Atom  No    Charge         Core      Valence    Rydberg      Total
 -----------------------------------------------------------------------
      C    1   -0.28765      0.99965     2.28356    0.00444     3.28765
      C    2   -0.01696      0.99961     2.00589    0.01146     3.01696
      C    3   -0.28527      0.99964     2.28041    0.00522     3.28527
      N    4   -0.31129      0.99967     2.80082    0.01081     3.81129
      C    5    0.13690      0.99948     1.85171    0.01191     2.86310
      C    6   -0.11506      0.99935     2.10791    0.00780     3.11506
      C    7    0.14155      0.99947     1.84634    0.01264     2.85845
      C    8   -0.15593      0.99952     2.14846    0.00796     3.15593
      C    9   -0.02008      0.99958     2.01091    0.00959     3.02008
      C   10   -0.14773      0.99953     2.13959    0.00861     3.14773
      N   11   -0.41895      0.99967     2.90733    0.01195     3.91895
      S   12    1.15992      4.99941     1.73472    0.10595     6.84008
      O   13   -0.46095      0.99990     3.45562    0.00542     4.46095
      O   14   -0.45019      0.99990     3.44488    0.00542     4.45019
      N   15   -0.50799      0.99979     2.99737    0.01084     4.00799
      C   16    0.13701      0.99964     1.84328    0.02006     2.86299
      N   17   -0.16977      0.99979     2.65939    0.01059     3.66977
      H   18    0.09268      0.00000     0.40613    0.00118     0.40732
      H   19    0.10301      0.00000     0.39615    0.00084     0.39699
      H   20    0.09769      0.00000     0.40146    0.00085     0.40231
      H   21    0.10472      0.00000     0.39332    0.00196     0.39528
      H   22    0.09215      0.00000     0.40667    0.00118     0.40785
      H   23    0.11237      0.00000     0.38650    0.00112     0.38763
      H   24    0.09401      0.00000     0.40515    0.00084     0.40599
      H   25    0.17850      0.00000     0.31921    0.00229     0.32150
      H   26    0.10966      0.00000     0.38862    0.00172     0.39034
      H   27    0.09133      0.00000     0.40791    0.00076     0.40867
      H   28    0.09301      0.00000     0.40597    0.00102     0.40699
      H   29    0.21321      0.00000     0.28440    0.00240     0.28679
      H   30    0.19544      0.00000     0.30198    0.00257     0.30456
      H   31    0.19465      0.00000     0.30216    0.00319     0.30535
 =======================================================================
   * Total *    0.00000     20.99359    45.72383    0.28258    67.00000

 Normal termination of Gaussian 16 at Fri Dec 11 12:57:44 2020.
