 Gaussian 16, Revision A.03,

 -----------------------------------------------------------
 # opt freq B3LYP/6-31G(d) empiricaldispersion=gd3bj scf=xqc
 -----------------------------------------------------------

 -------------------------------
 CID_131128212_JID_2702_neutraal
 -------------------------------
 Symbolic Z-matrix:
 Charge =  0 Multiplicity = 1

 SCF Done:  E(RB3LYP) =  -608.006738669     A.U. after   14 cycles
 SCF Done:  E(RB3LYP) =  -608.014320834     A.U. after   13 cycles
 SCF Done:  E(RB3LYP) =  -608.015253809     A.U. after   11 cycles
 SCF Done:  E(RB3LYP) =  -608.015391391     A.U. after   11 cycles
 SCF Done:  E(RB3LYP) =  -608.015412127     A.U. after   11 cycles
 SCF Done:  E(RB3LYP) =  -608.015450477     A.U. after   10 cycles
 SCF Done:  E(RB3LYP) =  -608.015463716     A.U. after   10 cycles
 SCF Done:  E(RB3LYP) =  -608.015467759     A.U. after    8 cycles
 SCF Done:  E(RB3LYP) =  -608.015468932     A.U. after    8 cycles
 Optimization completed.
    -- Stationary point found.
 Normal termination of Gaussian 16 at Wed Dec  9 17:50:15 2020.

 --------------------------------------------------------------------
 #N Geom=AllCheck Guess=TCheck SCRF=Check GenChk RB3LYP/6-31G(d) Freq
 --------------------------------------------------------------------

 Structure from the checkpoint file:  "JID_2702.chk"
 -------------------------------
 CID_131128212_JID_2702_neutraal
 -------------------------------
 Charge =  0 Multiplicity = 1

 SCF Done:  E(RB3LYP) =  -608.015468932     A.U. after    1 cycles

  Exact polarizability:  99.413  -5.375 101.630  -6.268  -0.896  63.950
 Approx polarizability: 144.137 -14.534 148.514 -16.342  -0.245  99.876

                      1                      2                      3
                      A                      A                      A
 Frequencies --     69.3509               107.0037               152.6168
 Red. masses --      5.5774                 3.8500                 9.6306
 Frc consts  --      0.0158                 0.0260                 0.1322
 IR Inten    --      0.0583                 1.2350                 2.1666

                      4                      5                      6
                      A                      A                      A
 Frequencies --    196.7336               221.7581               236.5780
 Red. masses --      4.5692                 2.2662                 1.2127
 Frc consts  --      0.1042                 0.0657                 0.0400
 IR Inten    --      1.7487                 6.6978                 0.5931

                      7                      8                      9
                      A                      A                      A
 Frequencies --    321.2836               348.8924               359.8893
 Red. masses --      2.9530                 2.2630                 7.3536
 Frc consts  --      0.1796                 0.1623                 0.5612
 IR Inten    --      2.6738                 1.0339                 8.8079

                     10                     11                     12
                      A                      A                      A
 Frequencies --    409.4889               439.1776               455.2385
 Red. masses --      5.2024                 3.4691                 6.2172
 Frc consts  --      0.5140                 0.3942                 0.7591
 IR Inten    --      4.3071                 4.8194                20.7180

                     13                     14                     15
                      A                      A                      A
 Frequencies --    557.7129               573.4779               604.2598
 Red. masses --      2.5929                 1.2413                 4.3932
 Frc consts  --      0.4752                 0.2405                 0.9451
 IR Inten    --     13.1922               120.5742                 7.6222

                     16                     17                     18
                      A                      A                      A
 Frequencies --    629.0059               690.7987               711.0112
 Red. masses --      3.3980                 6.2055                 4.9016
 Frc consts  --      0.7921                 1.7447                 1.4600
 IR Inten    --     11.6189                12.8334                 3.2938

                     19                     20                     21
                      A                      A                      A
 Frequencies --    744.1263               829.2037               868.6414
 Red. masses --     10.7944                 2.7070                 2.2884
 Frc consts  --      3.5216                 1.0966                 1.0173
 IR Inten    --     16.2713                 2.9646                 6.4064

                     22                     23                     24
                      A                      A                      A
 Frequencies --    911.6370               925.5199               964.6309
 Red. masses --      2.2700                 2.4973                 2.5962
 Frc consts  --      1.1115                 1.2603                 1.4233
 IR Inten    --      2.6341                 1.2970                19.3185

                     25                     26                     27
                      A                      A                      A
 Frequencies --    985.8408              1082.9661              1084.7000
 Red. masses --      2.3216                 2.4028                 2.4520
 Frc consts  --      1.3294                 1.6603                 1.6997
 IR Inten    --      5.7332                 6.6104                73.8247

                     28                     29                     30
                      A                      A                      A
 Frequencies --   1125.8214              1139.5444              1156.9347
 Red. masses --      3.4614                 2.6232                 2.4430
 Frc consts  --      2.5849                 2.0070                 1.9266
 IR Inten    --      4.1758                63.1531                29.1498

                     31                     32                     33
                      A                      A                      A
 Frequencies --   1180.0809              1206.6739              1249.3089
 Red. masses --      2.0939                 2.2842                 1.7003
 Frc consts  --      1.7181                 1.9596                 1.5635
 IR Inten    --     42.2888                45.1639                 6.9583

                     34                     35                     36
                      A                      A                      A
 Frequencies --   1296.0398              1307.1215              1324.9421
 Red. masses --      1.2216                 1.6406                 1.8776
 Frc consts  --      1.2090                 1.6515                 1.9420
 IR Inten    --     15.1956                 6.1694                44.0878

                     37                     38                     39
                      A                      A                      A
 Frequencies --   1348.2530              1364.1096              1387.8548
 Red. masses --      2.5388                 2.3346                 1.3471
 Frc consts  --      2.7191                 2.5595                 1.5287
 IR Inten    --    146.3922                50.7086                 3.8316

                     40                     41                     42
                      A                      A                      A
 Frequencies --   1398.6921              1403.1065              1432.6949
 Red. masses --      1.3153                 1.3843                 1.2930
 Frc consts  --      1.5161                 1.6056                 1.5637
 IR Inten    --     16.3905                23.4608                11.0433

                     43                     44                     45
                      A                      A                      A
 Frequencies --   1439.6193              1458.6013              1511.6257
 Red. masses --      1.3995                 2.9227                 1.1094
 Frc consts  --      1.7089                 3.6636                 1.4936
 IR Inten    --     29.9897               157.2676                16.5011

                     46                     47                     48
                      A                      A                      A
 Frequencies --   1518.5473              1519.6655              1529.2559
 Red. masses --      1.0615                 1.0748                 1.0575
 Frc consts  --      1.4422                 1.4625                 1.4571
 IR Inten    --      4.3846                 6.7473                 2.3829

                     49                     50                     51
                      A                      A                      A
 Frequencies --   1841.8071              1873.4498              2978.3631
 Red. masses --      9.6544                12.4770                 1.0832
 Frc consts  --     19.2958                25.8014                 5.6614
 IR Inten    --    758.6726               178.9039                26.0254

                     52                     53                     54
                      A                      A                      A
 Frequencies --   3006.6751              3059.2026              3061.6305
 Red. masses --      1.0704                 1.0738                 1.0750
 Frc consts  --      5.7012                 5.9212                 5.9369
 IR Inten    --     48.1539                15.7564                32.5164

                     55                     56                     57
                      A                      A                      A
 Frequencies --   3067.9777              3123.3474              3139.1391
 Red. masses --      1.0388                 1.0954                 1.1019
 Frc consts  --      5.7610                 6.2959                 6.3974
 IR Inten    --     21.9119                39.8334                19.7715

                     58                     59                     60
                      A                      A                      A
 Frequencies --   3144.9766              3158.8698              3648.2634
 Red. masses --      1.0983                 1.1036                 1.0799
 Frc consts  --      6.4004                 6.4883                 8.4683
 IR Inten    --      4.2656                 5.5317                77.2754

 - Thermochemistry -
 -------------------
 Temperature   298.150 Kelvin.  Pressure   1.00000 Atm.
 Atom     1 has atomic number  6 and mass  12.00000

 Molecular mass:   170.06914 amu.
 Principal axes and moments of inertia in atomic units:
                           1         2         3
     Eigenvalues --  1456.806551697.235492946.24101
           X            0.99820  -0.05995   0.00278
           Y            0.05996   0.99820  -0.00329
           Z           -0.00257   0.00345   0.99999
 This molecule is an asymmetric top.
 Rotational symmetry number  1.
 Warning -- assumption of classical behavior for rotation
           may cause significant error
 Rotational temperatures (Kelvin)      0.05945     0.05103     0.02940
 Rotational constants (GHZ):           1.23883     1.06334     0.61256
 Zero-point vibrational energy     471829.5 (Joules/Mol)
                                  112.76997 (Kcal/Mol)
 Warning -- explicit consideration of  15 degrees of freedom as
           vibrations may cause significant error
 Vibrational temperatures:     99.78   153.95   219.58   283.06   319.06
          (Kelvin)            340.38   462.26   501.98   517.80   589.16
                              631.88   654.99   802.42   825.11   869.40
                              905.00   993.91  1022.99  1070.63  1193.04
                             1249.78  1311.64  1331.62  1387.89  1418.40
                             1558.15  1560.64  1619.81  1639.55  1664.57
                             1697.87  1736.13  1797.48  1864.71  1880.66
                             1906.30  1939.84  1962.65  1996.81  2012.41
                             2018.76  2061.33  2071.29  2098.60  2174.89
                             2184.85  2186.46  2200.26  2649.95  2695.48
                             4285.20  4325.93  4401.51  4405.00  4414.14
                             4493.80  4516.52  4524.92  4544.91  5249.04

 Zero-point correction=                           0.179710 (Hartree/Particle)
 Thermal correction to Energy=                    0.189810
 Thermal correction to Enthalpy=                  0.190754
 Thermal correction to Gibbs Free Energy=         0.144143
 Sum of electronic and zero-point Energies=           -607.835759
 Sum of electronic and thermal Energies=              -607.825659
 Sum of electronic and thermal Enthalpies=            -607.824715
 Sum of electronic and thermal Free Energies=         -607.871326

                     E (Thermal)             CV                S
                      KCal/Mol        Cal/Mol-Kelvin    Cal/Mol-Kelvin
 Total                  119.107             39.193             98.102
 Electronic               0.000              0.000              0.000
 Translational            0.889              2.981             41.301
 Rotational               0.889              2.981             30.367
 Vibrational            117.330             33.231             26.434
 Vibration     1          0.598              1.969              4.172
 Vibration     2          0.606              1.944              3.323
 Vibration     3          0.619              1.900              2.639
 Vibration     4          0.636              1.844              2.163
 Vibration     5          0.648              1.808              1.945
 Vibration     6          0.655              1.785              1.828
 Vibration     7          0.707              1.633              1.304
 Vibration     8          0.726              1.578              1.171
 Vibration     9          0.734              1.555              1.123
 Vibration    10          0.774              1.450              0.928
 Vibration    11          0.799              1.385              0.829
 Vibration    12          0.814              1.349              0.780
 Vibration    13          0.913              1.123              0.528
 Vibration    14          0.930              1.089              0.498
 Vibration    15          0.963              1.023              0.442

                           ! Non-Optimized Parameters !
 Normal termination of Gaussian 16 at Wed Dec  9 17:56:11 2020.

 ----------------------------------------------------------------------
 # B3LYP/6-311++G(d,p) empiricaldispersion=gd3bj scf=xqc pop=npa geom=c
 heck
 ----------------------------------------------------------------------

 ---------------------------------------
 CID_131128212_JID_2702_Energie_neutraal
 ---------------------------------------
 Structure from the checkpoint file:  "JID_2702.chk"
 Charge =  0 Multiplicity = 1

 SCF Done:  E(RB3LYP) =  -608.194660406     A.U. after   14 cycles
 Normal termination of Gaussian 16 at Wed Dec  9 17:58:05 2020.

 ----------------------------------------------------------------------
 # B3LYP/6-311++G(d,p) empiricaldispersion=gd3bj scf=xqc pop=npa geom=c
 heck
 ----------------------------------------------------------------------

 -------------------------------------
 CID_131128212_JID_2702_Energie_kation
 -------------------------------------
 Structure from the checkpoint file:  "JID_2702.chk"
 Charge =  1 Multiplicity = 2

 SCF Done:  E(UB3LYP) =  -607.864197979     A.U. after   23 cycles
 Normal termination of Gaussian 16 at Wed Dec  9 18:03:17 2020.
 Gaussian 16:  ES64L-G16RevA.03 25-Dec-2016

 ----------------------------------------------------------------------
 # B3LYP/6-311++G(d,p) empiricaldispersion=gd3bj scf=xqc pop=npa geom=c
 heck
 ----------------------------------------------------------------------

 ------------------------------------
 CID_131128212_JID_2702_Energie_anion
 ------------------------------------
 Structure from the checkpoint file:  "JID_2702.chk"
 Charge = -1 Multiplicity = 2

                         Standard orientation:
 ---------------------------------------------------------------------
 Center     Atomic      Atomic             Coordinates (Angstroms)
 Number     Number       Type             X           Y           Z
 ---------------------------------------------------------------------
      1          6           0       -2.616232    1.169129   -0.113289
      2          6           0       -1.483862    0.187573   -0.345628
      3          6           0       -0.271555    0.457627    0.574401
      4          6           0        0.566616    1.655439    0.120707
      5          8           0        0.220226    2.816989    0.055511
      6          7           0        1.789815    1.127116   -0.230659
      7          6           0        1.867332   -0.275092   -0.071629
      8          8           0        2.805794   -0.977703   -0.387795
      9          7           0        0.678324   -0.645833    0.505914
     10          6           0        0.196834   -2.014826    0.539074
     11          6           0       -1.013457   -2.135259   -0.388013
     12          8           0       -1.972707   -1.126920   -0.091038
     13          1           0       -3.437596    0.965022   -0.805661
     14          1           0       -2.260831    2.192719   -0.258342
     15          1           0       -2.993730    1.068835    0.909795
     16          1           0       -1.132646    0.240832   -1.390513
     17          1           0       -0.628182    0.611407    1.600716
     18          1           0        2.560928    1.669584   -0.594791
     19          1           0       -0.093134   -2.272690    1.564885
     20          1           0        1.016779   -2.666363    0.228094
     21          1           0       -1.519664   -3.094547   -0.250515
     22          1           0       -0.689446   -2.050254   -1.437610
 ---------------------------------------------------------------------

 SCF Done:  E(UB3LYP) =  -608.180200565     A.U. after   33 cycles
 SCF Done:  E(UB3LYP) =  -608.180200565     a.u. after    1 cycles

 The electronic state is 2-A.
 Alpha  occ. eigenvalues --  -19.03260 -19.00447 -18.99619 -14.25822 -14.24632
 Alpha  occ. eigenvalues --  -10.20380 -10.18212 -10.13634 -10.12341 -10.11970
 Alpha  occ. eigenvalues --  -10.10616 -10.06417  -0.97484  -0.94912  -0.94629
 Alpha  occ. eigenvalues --   -0.87701  -0.81394  -0.70824  -0.63930  -0.62174
 Alpha  occ. eigenvalues --   -0.56557  -0.52828  -0.50695  -0.48137  -0.43309
 Alpha  occ. eigenvalues --   -0.41041  -0.39231  -0.38494  -0.37002  -0.35381
 Alpha  occ. eigenvalues --   -0.34658  -0.33650  -0.31899  -0.31228  -0.30076
 Alpha  occ. eigenvalues --   -0.29327  -0.28843  -0.27393  -0.25572  -0.22790
 Alpha  occ. eigenvalues --   -0.19567  -0.19196  -0.18986  -0.16375  -0.14057
 Alpha  occ. eigenvalues --    0.04931
 Alpha virt. eigenvalues --    0.07309   0.07515   0.08104   0.08412   0.10075
 Alpha virt. eigenvalues --    0.10738   0.11045   0.12138   0.12264   0.13683
 Alpha virt. eigenvalues --    0.14270   0.14573   0.15471   0.15917   0.16539

  Beta  occ. eigenvalues --  -19.03244 -19.00350 -18.99573 -14.25816 -14.24638
  Beta  occ. eigenvalues --  -10.20329 -10.18076 -10.13608 -10.12333 -10.11939
  Beta  occ. eigenvalues --  -10.10587 -10.06400  -0.97377  -0.94869  -0.94476
  Beta  occ. eigenvalues --   -0.87639  -0.81356  -0.70772  -0.63877  -0.62062
  Beta  occ. eigenvalues --   -0.56487  -0.52670  -0.50612  -0.48045  -0.43248
  Beta  occ. eigenvalues --   -0.40930  -0.39153  -0.38413  -0.36876  -0.35269
  Beta  occ. eigenvalues --   -0.34562  -0.33554  -0.31785  -0.31080  -0.29952
  Beta  occ. eigenvalues --   -0.29259  -0.28593  -0.27314  -0.25494  -0.22728
  Beta  occ. eigenvalues --   -0.19496  -0.19094  -0.18822  -0.16301  -0.13994
  Beta virt. eigenvalues --    0.07447   0.08377   0.08470   0.08804   0.09356
  Beta virt. eigenvalues --    0.10877   0.11428   0.11526   0.12195   0.12630
  Beta virt. eigenvalues --    0.14054   0.14459   0.14851   0.15514   0.15913

 Mulliken charges and spin densities:
               1          2
     1  C    0.977160  -1.645301
     2  C   -0.562162   0.274798
     3  C    0.036582   0.217216
     4  C    0.740415  -0.863466
     5  O   -0.370408   0.039281
     6  N   -0.312731   0.025737
     7  C    0.305217  -0.014122
     8  O   -0.410596   0.029301
     9  N   -0.131298   0.060711
    10  C    0.823406  -1.091115
    11  C    0.581884  -0.652668
    12  O   -0.138188   0.073198
    13  H   -0.063489   0.207330
    14  H    0.187728  -0.015020
    15  H    0.004882   0.154389
    16  H   -0.324620   0.521229
    17  H   -0.800487   1.085070
    18  H   -0.115519   0.468313
    19  H   -0.181476   0.358476
    20  H   -0.327568   0.516254
    21  H   -1.072610   1.288515
    22  H    0.153879  -0.038128
 Sum of Mulliken charges =  -1.00000   1.00000

 Dipole moment (field-independent basis, Debye):
    X=              0.2124    Y=              3.4448    Z=             -1.8367  Tot=              3.9096
 Quadrupole moment (field-independent basis, Debye-Ang):
   XX=           -114.0359   YY=           -128.5130   ZZ=            -98.9885
   XY=             -5.2671   XZ=              4.6467   YZ=              1.0522

 Summary of Natural Population Analysis:

                                       Natural Population
                Natural  -----------------------------------------------
    Atom  No    Charge         Core      Valence    Rydberg      Total
 -----------------------------------------------------------------------
      C    1   -0.29374      0.99963     2.28846    0.00565     3.29374
      C    2    0.06939      0.99954     1.91760    0.01347     2.93061
      C    3   -0.05153      0.99954     2.03853    0.01346     3.05153
      C    4    0.36363      0.99967     1.61444    0.02226     2.63637
      O    5   -0.29827      0.99987     3.29246    0.00594     4.29827
      N    6   -0.33006      0.99965     2.82184    0.00857     3.83006
      C    7    0.41968      0.99966     1.55774    0.02291     2.58032
      O    8   -0.31863      0.99987     3.31293    0.00582     4.31863
      N    9   -0.26229      0.99964     2.75086    0.01179     3.76229
      C   10   -0.09745      0.99961     2.08621    0.01163     3.09745
      C   11   -0.01394      0.99958     2.00170    0.01266     3.01394
      O   12   -0.29946      0.99988     3.28894    0.01063     4.29946
      H   13    0.10181      0.00000     0.39700    0.00119     0.39819
      H   14    0.11232      0.00000     0.38663    0.00104     0.38768
      H   15    0.10324      0.00000     0.39535    0.00142     0.39676
      H   16    0.08067      0.00000     0.41739    0.00194     0.41933
      H   17    0.11406      0.00000     0.38254    0.00340     0.38594
      H   18    0.20652      0.00000     0.29006    0.00342     0.29348
      H   19    0.10025      0.00000     0.39720    0.00255     0.39975
      H   20    0.11550      0.00000     0.38302    0.00148     0.38450
      H   21    0.09949      0.00000     0.39668    0.00382     0.40051
      H   22    0.07878      0.00000     0.41934    0.00188     0.42122
 =======================================================================
   * Total *   -0.00000     11.99613    32.83693    0.16694    45.00000

 Normal termination of Gaussian 16 at Wed Dec  9 18:09:29 2020.
