 Gaussian 16, Revision A.03,

 -----------------------------------------------------------
 # opt freq B3LYP/6-31G(d) empiricaldispersion=gd3bj scf=xqc
 -----------------------------------------------------------

 ------------------------------
 CID_79968116_JID_4528_neutraal
 ------------------------------
 Symbolic Z-matrix:
 Charge =  0 Multiplicity = 1

 SCF Done:  E(RB3LYP) =  -632.065946060     A.U. after   14 cycles
 SCF Done:  E(RB3LYP) =  -632.071813278     A.U. after   12 cycles
 SCF Done:  E(RB3LYP) =  -632.072581452     A.U. after   12 cycles
 SCF Done:  E(RB3LYP) =  -632.072642016     A.U. after   12 cycles
 SCF Done:  E(RB3LYP) =  -632.072820819     A.U. after   10 cycles
 SCF Done:  E(RB3LYP) =  -632.072856033     A.U. after   10 cycles
 SCF Done:  E(RB3LYP) =  -632.072906984     A.U. after   10 cycles
 SCF Done:  E(RB3LYP) =  -632.072934724     A.U. after   10 cycles
 SCF Done:  E(RB3LYP) =  -632.072950911     A.U. after    9 cycles
 SCF Done:  E(RB3LYP) =  -632.072962981     A.U. after   10 cycles
 SCF Done:  E(RB3LYP) =  -632.072967946     A.U. after    9 cycles
 SCF Done:  E(RB3LYP) =  -632.072970066     A.U. after    9 cycles
 SCF Done:  E(RB3LYP) =  -632.072971500     A.U. after    8 cycles
 SCF Done:  E(RB3LYP) =  -632.072971910     A.U. after    8 cycles
 SCF Done:  E(RB3LYP) =  -632.072972325     A.U. after    7 cycles
 SCF Done:  E(RB3LYP) =  -632.072972484     A.U. after    8 cycles
 Optimization completed.
    -- Stationary point found.
 Normal termination of Gaussian 16 at Thu Dec 10 10:04:54 2020.

 --------------------------------------------------------------------
 #N Geom=AllCheck Guess=TCheck SCRF=Check GenChk RB3LYP/6-31G(d) Freq
 --------------------------------------------------------------------

 Structure from the checkpoint file:  "JID_4528.chk"
 ------------------------------
 CID_79968116_JID_4528_neutraal
 ------------------------------
 Charge =  0 Multiplicity = 1

 SCF Done:  E(RB3LYP) =  -632.072972484     A.U. after    1 cycles

  Exact polarizability: 152.657   6.942 130.641  -1.966   2.614  91.862
 Approx polarizability: 223.040  12.856 178.709  -6.294   5.373 139.410

                      1                      2                      3
                      A                      A                      A
 Frequencies --     39.7063                55.8468                61.6528
 Red. masses --      2.6409                 2.8368                 4.3695
 Frc consts  --      0.0025                 0.0052                 0.0098
 IR Inten    --      0.3805                 0.5445                 5.1625

                      4                      5                      6
                      A                      A                      A
 Frequencies --     82.6601                94.3871               188.5882
 Red. masses --      3.5342                 3.5871                 2.5712
 Frc consts  --      0.0142                 0.0188                 0.0539
 IR Inten    --      2.6741                 0.5177                 1.6343

                      7                      8                      9
                      A                      A                      A
 Frequencies --    200.5017               204.8002               220.7820
 Red. masses --      3.1542                 2.7748                 2.1125
 Frc consts  --      0.0747                 0.0686                 0.0607
 IR Inten    --      0.5598                 0.9439                 1.8548

                     10                     11                     12
                      A                      A                      A
 Frequencies --    238.4560               261.7796               281.8366
 Red. masses --      1.1928                 1.8962                 1.0768
 Frc consts  --      0.0400                 0.0766                 0.0504
 IR Inten    --      2.0397                 4.9177                 0.1407

                     13                     14                     15
                      A                      A                      A
 Frequencies --    290.7984               317.7191               330.2639
 Red. masses --      1.2246                 2.0975                 1.9670
 Frc consts  --      0.0610                 0.1248                 0.1264
 IR Inten    --     98.7843                 4.7919                 7.8350

                     16                     17                     18
                      A                      A                      A
 Frequencies --    344.7273               347.9573               367.4991
 Red. masses --      2.0067                 1.5838                 2.0606
 Frc consts  --      0.1405                 0.1130                 0.1640
 IR Inten    --     11.3095                51.9413                37.6209

                     19                     20                     21
                      A                      A                      A
 Frequencies --    398.7169               407.6639               431.0787
 Red. masses --      3.0457                 1.9888                 2.3353
 Frc consts  --      0.2853                 0.1947                 0.2557
 IR Inten    --      4.8018                 0.1089                 8.4637

                     22                     23                     24
                      A                      A                      A
 Frequencies --    475.6982               541.0095               592.7348
 Red. masses --      2.3623                 1.4941                 2.7681
 Frc consts  --      0.3150                 0.2577                 0.5730
 IR Inten    --      1.6696                44.9433                 5.0944

                     25                     26                     27
                      A                      A                      A
 Frequencies --    613.6558               679.9523               696.5026
 Red. masses --      4.4307                 3.7094                 5.5175
 Frc consts  --      0.9830                 1.0104                 1.5770
 IR Inten    --      1.5373                 9.0415                 3.3037

                     28                     29                     30
                      A                      A                      A
 Frequencies --    761.5653               769.2781               792.1343
 Red. masses --      3.6650                 7.0653                 1.3168
 Frc consts  --      1.2524                 2.4635                 0.4868
 IR Inten    --      1.4281                23.2034                 5.8928

                     31                     32                     33
                      A                      A                      A
 Frequencies --    833.0731               875.6090               932.4626
 Red. masses --      2.5079                 3.7386                 2.2440
 Frc consts  --      1.0255                 1.6888                 1.1496
 IR Inten    --      0.8079                 2.5158                 1.2480

                     34                     35                     36
                      A                      A                      A
 Frequencies --    936.8781               954.5721               956.7854
 Red. masses --      2.4673                 1.5525                 1.6887
 Frc consts  --      1.2760                 0.8335                 0.9108
 IR Inten    --      3.6945                 0.8023                 0.6634

                     37                     38                     39
                      A                      A                      A
 Frequencies --    974.6746               978.0303              1027.3548
 Red. masses --      1.2906                 1.9061                 2.4195
 Frc consts  --      0.7224                 1.0742                 1.5046
 IR Inten    --      3.0776                13.6505                 5.7743

                     40                     41                     42
                      A                      A                      A
 Frequencies --   1066.7763              1079.9273              1087.5216
 Red. masses --      1.6610                 1.6227                 2.2187
 Frc consts  --      1.1137                 1.1150                 1.5460
 IR Inten    --     10.8222                 0.8383                15.0922

                     43                     44                     45
                      A                      A                      A
 Frequencies --   1122.5095              1136.0315              1184.7630
 Red. masses --      1.8024                 2.0045                 2.5292
 Frc consts  --      1.3381                 1.5242                 2.0917
 IR Inten    --      3.2261                21.1386                84.6169

                     46                     47                     48
                      A                      A                      A
 Frequencies --   1194.4475              1237.7199              1243.2531
 Red. masses --      1.5075                 1.9983                 2.1720
 Frc consts  --      1.2672                 1.8036                 1.9780
 IR Inten    --      3.2348                31.8536                19.8964

                     49                     50                     51
                      A                      A                      A
 Frequencies --   1279.8020              1287.6839              1322.7935
 Red. masses --      1.9521                 2.7277                 1.7804
 Frc consts  --      1.8838                 2.6648                 1.8355
 IR Inten    --      4.3698                 8.8670                38.2930

                     52                     53                     54
                      A                      A                      A
 Frequencies --   1334.7321              1386.9387              1394.5412
 Red. masses --      1.4202                 1.7352                 1.7554
 Frc consts  --      1.4907                 1.9665                 2.0114
 IR Inten    --      2.5466                42.7782               144.6091

                     55                     56                     57
                      A                      A                      A
 Frequencies --   1401.5918              1421.2706              1426.4461
 Red. masses --      1.4737                 1.4154                 1.2551
 Frc consts  --      1.7057                 1.6846                 1.5047
 IR Inten    --     27.3175                53.2601                17.7750

                     58                     59                     60
                      A                      A                      A
 Frequencies --   1431.3053              1442.3334              1454.6580
 Red. masses --      1.2402                 1.4293                 2.7256
 Frc consts  --      1.4970                 1.7519                 3.3981
 IR Inten    --      6.3585                11.1537                36.5116

                     61                     62                     63
                      A                      A                      A
 Frequencies --   1460.1181              1505.4972              1511.1905
 Red. masses --      1.3047                 1.0852                 1.0712
 Frc consts  --      1.6389                 1.4492                 1.4413
 IR Inten    --      8.5928                13.6916                 1.6421

                     64                     65                     66
                      A                      A                      A
 Frequencies --   1514.9729              1517.3814              1520.8677
 Red. masses --      1.0510                 1.0462                 1.0591
 Frc consts  --      1.4212                 1.4192                 1.4434
 IR Inten    --      0.1630                 2.6297                 3.8688

                     67                     68                     69
                      A                      A                      A
 Frequencies --   1523.6633              1538.1499              1539.6307
 Red. masses --      1.0528                 1.0562                 1.0587
 Frc consts  --      1.4401                 1.4723                 1.4786
 IR Inten    --      0.2861                 5.8490                 4.1424

                     70                     71                     72
                      A                      A                      A
 Frequencies --   1543.0334              1552.4190              1641.7475
 Red. masses --      1.0600                 1.0634                 1.5863
 Frc consts  --      1.4869                 1.5099                 2.5191
 IR Inten    --     10.7994                20.5238                77.8330

                     73                     74                     75
                      A                      A                      A
 Frequencies --   1703.6664              1840.2476              2994.1868
 Red. masses --      3.3560                11.6455                 1.0807
 Frc consts  --      5.7390                23.2360                 5.7083
 IR Inten    --    554.6122               337.6490                30.1080

                     76                     77                     78
                      A                      A                      A
 Frequencies --   3031.1003              3040.8898              3046.6203
 Red. masses --      1.0361                 1.0347                 1.0375
 Frc consts  --      5.6087                 5.6374                 5.6739
 IR Inten    --     34.7824                27.1995                 7.4067

                     79                     80                     81
                      A                      A                      A
 Frequencies --   3053.6642              3055.9288              3059.8927
 Red. masses --      1.0381                 1.0591                 1.0620
 Frc consts  --      5.7036                 5.8274                 5.8588
 IR Inten    --     19.9709                34.4368                12.4028

                     82                     83                     84
                      A                      A                      A
 Frequencies --   3094.0184              3099.2084              3104.3412
 Red. masses --      1.1020                 1.1036                 1.1012
 Frc consts  --      6.2156                 6.2455                 6.2525
 IR Inten    --     27.9053                14.2210                 4.3657

                     85                     86                     87
                      A                      A                      A
 Frequencies --   3106.6832              3109.4904              3110.6784
 Red. masses --      1.1005                 1.1026                 1.1021
 Frc consts  --      6.2580                 6.2815                 6.2834
 IR Inten    --      3.3184                 3.4344                30.1136

                     88                     89                     90
                      A                      A                      A
 Frequencies --   3113.8026              3116.1218              3119.9757
 Red. masses --      1.1009                 1.1012                 1.1025
 Frc consts  --      6.2892                 6.3003                 6.3234
 IR Inten    --     69.6580                94.3488                35.6921

                     91                     92                     93
                      A                      A                      A
 Frequencies --   3151.0964              3593.9980              3715.8065
 Red. masses --      1.1019                 1.0463                 1.1025
 Frc consts  --      6.4463                 7.9628                 8.9689
 IR Inten    --     15.2981                50.9721                65.8568

 - Thermochemistry -
 -------------------
 Temperature   298.150 Kelvin.  Pressure   1.00000 Atm.
 Atom     1 has atomic number  6 and mass  12.00000

 Molecular mass:   197.15281 amu.
 Principal axes and moments of inertia in atomic units:
                           1         2         3
     Eigenvalues --  1863.288013588.376964903.36858
           X            0.99960   0.02829  -0.00025
           Y           -0.02829   0.99958  -0.00651
           Z            0.00007   0.00651   0.99998
 This molecule is an asymmetric top.
 Rotational symmetry number  1.
 Warning -- assumption of classical behavior for rotation
           may cause significant error
 Rotational temperatures (Kelvin)      0.04648     0.02414     0.01766
 Rotational constants (GHZ):           0.96858     0.50294     0.36806
 Zero-point vibrational energy     766366.8 (Joules/Mol)
                                  183.16607 (Kcal/Mol)
 Warning -- explicit consideration of  25 degrees of freedom as
           vibrations may cause significant error
 Vibrational temperatures:     57.13    80.35    88.70   118.93   135.80
          (Kelvin)            271.34   288.48   294.66   317.66   343.08
                              376.64   405.50   418.39   457.13   475.18
                              495.99   500.63   528.75   573.66   586.54
                              620.23   684.42   778.39   852.81   882.91
                              978.30  1002.11  1095.72  1106.82  1139.70
                             1198.61  1259.81  1341.61  1347.96  1373.42
                             1376.60  1402.34  1407.17  1478.13  1534.85
                             1553.77  1564.70  1615.04  1634.50  1704.61
                             1718.54  1780.80  1788.76  1841.35  1852.69
                             1903.20  1920.38  1995.50  2006.43  2016.58
                             2044.89  2052.34  2059.33  2075.20  2092.93
                             2100.78  2166.07  2174.27  2179.71  2183.17
                             2188.19  2192.21  2213.05  2215.19  2220.08
                             2233.58  2362.11  2451.20  2647.71  4307.97
                             4361.08  4375.16  4383.41  4393.54  4396.80
                             4402.50  4451.60  4459.07  4466.45  4469.82
                             4473.86  4475.57  4480.07  4483.40  4488.95
                             4533.72  5170.96  5346.22

 Zero-point correction=                           0.291894 (Hartree/Particle)
 Thermal correction to Energy=                    0.307564
 Thermal correction to Enthalpy=                  0.308509
 Thermal correction to Gibbs Free Energy=         0.249414
 Sum of electronic and zero-point Energies=           -631.781079
 Sum of electronic and thermal Energies=              -631.765408
 Sum of electronic and thermal Enthalpies=            -631.764464
 Sum of electronic and thermal Free Energies=         -631.823558

                     E (Thermal)             CV                S
                      KCal/Mol        Cal/Mol-Kelvin    Cal/Mol-Kelvin
 Total                  193.000             59.149            124.375
 Electronic               0.000              0.000              0.000
 Translational            0.889              2.981             41.741
 Rotational               0.889              2.981             31.861
 Vibrational            191.222             53.187             50.772
 Vibration     1          0.594              1.981              5.274
 Vibration     2          0.596              1.975              4.599
 Vibration     3          0.597              1.973              4.404
 Vibration     4          0.600              1.961              3.827
 Vibration     5          0.603              1.953              3.567
 Vibration     6          0.633              1.856              2.242
 Vibration     7          0.638              1.839              2.128
 Vibration     8          0.640              1.833              2.090
 Vibration     9          0.647              1.809              1.953
 Vibration    10          0.656              1.782              1.814
 Vibration    11          0.669              1.743              1.650
 Vibration    12          0.681              1.707              1.522
 Vibration    13          0.687              1.691              1.469
 Vibration    14          0.704              1.640              1.322
 Vibration    15          0.713              1.615              1.259
 Vibration    16          0.723              1.586              1.190
 Vibration    17          0.726              1.579              1.175
 Vibration    18          0.740              1.539              1.090
 Vibration    19          0.765              1.473              0.967
 Vibration    20          0.772              1.454              0.935
 Vibration    21          0.792              1.403              0.855
 Vibration    22          0.832              1.304              0.722
 Vibration    23          0.896              1.159              0.563
 Vibration    24          0.950              1.047              0.462
 Vibration    25          0.973              1.003              0.427

                           ! Non-Optimized Parameters !
 Normal termination of Gaussian 16 at Thu Dec 10 10:15:19 2020.

 ----------------------------------------------------------------------
 # B3LYP/6-311++G(d,p) empiricaldispersion=gd3bj scf=xqc pop=npa geom=c
 heck
 ----------------------------------------------------------------------

 --------------------------------------
 CID_79968116_JID_4528_Energie_neutraal
 --------------------------------------
 Structure from the checkpoint file:  "JID_4528.chk"
 Charge =  0 Multiplicity = 1

 SCF Done:  E(RB3LYP) =  -632.258205670     A.U. after   16 cycles
 Normal termination of Gaussian 16 at Thu Dec 10 10:20:48 2020.

 ----------------------------------------------------------------------
 # B3LYP/6-311++G(d,p) empiricaldispersion=gd3bj scf=xqc pop=npa geom=c
 heck
 ----------------------------------------------------------------------

 ------------------------------------
 CID_79968116_JID_4528_Energie_kation
 ------------------------------------
 Structure from the checkpoint file:  "JID_4528.chk"
 Charge =  1 Multiplicity = 2

 SCF Done:  E(UB3LYP) =  -631.949784814     A.U. after   23 cycles
 Normal termination of Gaussian 16 at Thu Dec 10 10:33:28 2020.
 Gaussian 16:  ES64L-G16RevA.03 25-Dec-2016

 ----------------------------------------------------------------------
 # B3LYP/6-311++G(d,p) empiricaldispersion=gd3bj scf=xqc pop=npa geom=c
 heck
 ----------------------------------------------------------------------

 -----------------------------------
 CID_79968116_JID_4528_Energie_anion
 -----------------------------------
 Structure from the checkpoint file:  "JID_4528.chk"
 Charge = -1 Multiplicity = 2

                         Standard orientation:
 ---------------------------------------------------------------------
 Center     Atomic      Atomic             Coordinates (Angstroms)
 Number     Number       Type             X           Y           Z
 ---------------------------------------------------------------------
      1          6           0       -1.901512   -2.672368    0.548894
      2          6           0       -1.578301   -1.744991   -0.623869
      3          7           0       -1.385037   -0.364221   -0.212998
      4          6           0       -0.142436    0.370341   -0.307907
      5          6           0       -0.684466    1.761510    0.005970
      6          7           0       -1.962747    1.818217    0.192171
      7          6           0       -2.454471    0.491497    0.023198
      8          8           0       -3.619676    0.145478    0.064582
      9          7           0        0.142561    2.827232    0.131944
     10          6           0        0.972440   -0.118371    0.655549
     11          6           0        2.372937   -0.335516    0.035402
     12          6           0        2.917730    0.964060   -0.582217
     13          6           0        3.319852   -0.781220    1.163471
     14          6           0        2.324708   -1.436877   -1.037733
     15          1           0       -1.084882   -2.689866    1.279119
     16          1           0       -2.070993   -3.695845    0.194838
     17          1           0       -2.807784   -2.322533    1.050078
     18          1           0       -0.668932   -2.072587   -1.138992
     19          1           0       -2.399979   -1.775990   -1.349054
     20          1           0        0.230517    0.360179   -1.344483
     21          1           0        1.070529    2.794008   -0.260623
     22          1           0       -0.294040    3.734827    0.220162
     23          1           0        1.058708    0.585368    1.492082
     24          1           0        0.639405   -1.066611    1.089166
     25          1           0        2.983010    1.759078    0.171576
     26          1           0        3.925508    0.810916   -0.984263
     27          1           0        2.293751    1.315157   -1.414244
     28          1           0        2.967926   -1.709629    1.628006
     29          1           0        4.330482   -0.960234    0.778476
     30          1           0        3.387712   -0.017940    1.947578
     31          1           0        1.952012   -2.377396   -0.615330
     32          1           0        1.676873   -1.166799   -1.879317
     33          1           0        3.325266   -1.624921   -1.443784
 ---------------------------------------------------------------------

 SCF Done:  E(UB3LYP) =  -632.254844644     A.U. after   31 cycles

 The electronic state is 2-A.
 Alpha  occ. eigenvalues --  -18.98082 -14.24373 -14.23445 -14.19200 -10.17877
 Alpha  occ. eigenvalues --  -10.15979 -10.13168 -10.11596 -10.09604 -10.08273
 Alpha  occ. eigenvalues --  -10.07286 -10.06599 -10.06577 -10.06467  -0.94753
 Alpha  occ. eigenvalues --   -0.88443  -0.83675  -0.77844  -0.73947  -0.67859
 Alpha  occ. eigenvalues --   -0.64180  -0.59678  -0.59658  -0.56699  -0.55390
 Alpha  occ. eigenvalues --   -0.50754  -0.48022  -0.45049  -0.42180  -0.41310
 Alpha  occ. eigenvalues --   -0.40457  -0.38130  -0.36489  -0.35691  -0.34662
 Alpha  occ. eigenvalues --   -0.34421  -0.32887  -0.31846  -0.31158  -0.30166
 Alpha  occ. eigenvalues --   -0.29728  -0.28763  -0.28108  -0.27640  -0.27266
 Alpha  occ. eigenvalues --   -0.26590  -0.25594  -0.23953  -0.23494  -0.23334
 Alpha  occ. eigenvalues --   -0.18425  -0.16253  -0.15951  -0.14119   0.03695
 Alpha virt. eigenvalues --    0.06286   0.07160   0.07338   0.08143   0.09013
 Alpha virt. eigenvalues --    0.09188   0.09477   0.10047   0.10242   0.11389
 Alpha virt. eigenvalues --    0.11922   0.12447   0.12612   0.13284   0.13363

  Beta  occ. eigenvalues --  -18.98057 -14.24309 -14.23450 -14.19198 -10.17858
  Beta  occ. eigenvalues --  -10.15922 -10.13158 -10.11587 -10.09599 -10.08257
  Beta  occ. eigenvalues --  -10.07278 -10.06559 -10.06545 -10.06403  -0.94713
  Beta  occ. eigenvalues --   -0.88384  -0.83625  -0.77806  -0.73922  -0.67836
  Beta  occ. eigenvalues --   -0.64141  -0.59599  -0.59569  -0.56627  -0.55348
  Beta  occ. eigenvalues --   -0.50663  -0.47978  -0.44962  -0.42133  -0.41250
  Beta  occ. eigenvalues --   -0.40407  -0.38082  -0.36445  -0.35652  -0.34619
  Beta  occ. eigenvalues --   -0.34379  -0.32841  -0.31803  -0.31125  -0.30114
  Beta  occ. eigenvalues --   -0.29653  -0.28737  -0.28058  -0.27594  -0.27221
  Beta  occ. eigenvalues --   -0.26530  -0.25521  -0.23913  -0.23447  -0.23287
  Beta  occ. eigenvalues --   -0.18396  -0.16166  -0.15907  -0.14093
  Beta virt. eigenvalues --    0.06100   0.07216   0.07696   0.07969   0.08500
  Beta virt. eigenvalues --    0.09448   0.09617   0.10120   0.10453   0.10532
  Beta virt. eigenvalues --    0.11522   0.12383   0.12753   0.12898   0.13547

 Mulliken charges and spin densities:
               1          2
     1  C   -0.273055  -0.172143
     2  C   -0.190596  -0.007757
     3  N    0.007957   0.094441
     4  C    1.278234  -1.450360
     5  C   -0.609964   0.368351
     6  N   -0.222952  -0.016175
     7  C    0.319618  -0.128472
     8  O   -0.418753   0.014346
     9  N   -0.347282   0.037946
    10  C    0.794840  -1.361103
    11  C   -2.493219   3.350192
    12  C    1.888756  -2.627807
    13  C   -0.091054  -0.437619
    14  C    0.720487  -1.392543
    15  H   -0.045403   0.167592
    16  H    0.033531   0.078193
    17  H    0.171275   0.008771
    18  H    0.083848   0.042463
    19  H    0.123754   0.060286
    20  H   -0.021451   0.294341
    21  H   -0.077515   0.368389
    22  H   -0.216588   0.524613
    23  H    0.136383   0.098021
    24  H    0.520406  -0.352324
    25  H   -0.182614   0.331203
    26  H   -0.325050   0.499809
    27  H   -0.593092   0.740946
    28  H   -0.244940   0.380087
    29  H   -0.124201   0.276987
    30  H   -0.109006   0.244795
    31  H   -0.074570   0.218987
    32  H   -0.176691   0.322707
    33  H   -0.241093   0.422836
 Sum of Mulliken charges =  -1.00000   1.00000

 Dipole moment (field-independent basis, Debye):
    X=             -1.9356    Y=             -4.0840    Z=              1.4145  Tot=              4.7356
 Quadrupole moment (field-independent basis, Debye-Ang):
   XX=           -170.4689   YY=           -135.3116   ZZ=           -117.8514
   XY=              3.3085   XZ=              7.0842   YZ=              3.0075

 Summary of Natural Population Analysis:

                                       Natural Population
                Natural  -----------------------------------------------
    Atom  No    Charge         Core      Valence    Rydberg      Total
 -----------------------------------------------------------------------
      C    1   -0.28832      0.99966     2.28442    0.00424     3.28832
      C    2   -0.08699      0.99963     2.07615    0.01121     3.08699
      N    3   -0.27154      0.99962     2.76128    0.01064     3.77154
      C    4   -0.03139      0.99955     2.01991    0.01193     3.03139
      C    5    0.24989      0.99958     1.73215    0.01839     2.75011
      N    6   -0.29844      0.99964     2.78908    0.00972     3.79844
      C    7    0.40470      0.99967     1.56995    0.02567     2.59530
      O    8   -0.32240      0.99987     3.31711    0.00542     4.32240
      N    9   -0.38298      0.99968     2.87418    0.00911     3.88298
      C   10   -0.18566      0.99956     2.17737    0.00873     3.18566
      C   11   -0.05179      0.99959     2.03979    0.01240     3.05179
      C   12   -0.29143      0.99962     2.28325    0.00856     3.29143
      C   13   -0.28209      0.99962     2.27487    0.00760     3.28209
      C   14   -0.28699      0.99962     2.27946    0.00790     3.28699
      H   15    0.09593      0.00000     0.40293    0.00113     0.40407
      H   16    0.09481      0.00000     0.40432    0.00087     0.40519
      H   17    0.10761      0.00000     0.39130    0.00109     0.39239
      H   18    0.09687      0.00000     0.40186    0.00127     0.40313
      H   19    0.09940      0.00000     0.39945    0.00115     0.40060
      H   20    0.10801      0.00000     0.38982    0.00217     0.39199
      H   21    0.20356      0.00000     0.29172    0.00472     0.29644
      H   22    0.19878      0.00000     0.29864    0.00258     0.30122
      H   23    0.10498      0.00000     0.39334    0.00168     0.39502
      H   24    0.10485      0.00000     0.39373    0.00142     0.39515
      H   25    0.10023      0.00000     0.39774    0.00203     0.39977
      H   26    0.10688      0.00000     0.39153    0.00160     0.39312
      H   27    0.09982      0.00000     0.39771    0.00247     0.40018
      H   28    0.09913      0.00000     0.39981    0.00105     0.40087
      H   29    0.10213      0.00000     0.39685    0.00102     0.39787
      H   30    0.10016      0.00000     0.39886    0.00098     0.39984
      H   31    0.09891      0.00000     0.39984    0.00125     0.40109
      H   32    0.09923      0.00000     0.39947    0.00130     0.40077
      H   33    0.10416      0.00000     0.39470    0.00114     0.39584
 =======================================================================
   * Total *    0.00004     13.99493    39.82257    0.18247    53.99996

 Normal termination of Gaussian 16 at Thu Dec 10 10:50:23 2020.
