 Gaussian 16, Revision A.03,

 -----------------------------------------------------------
 # opt freq B3LYP/6-31G(d) empiricaldispersion=gd3bj scf=xqc
 -----------------------------------------------------------

 -----------------------------
 CID_13724138_JID_866_neutraal
 -----------------------------
 Symbolic Z-matrix:
 Charge =  0 Multiplicity = 1

 SCF Done:  E(RB3LYP) =  -869.467585670     A.U. after   14 cycles
 SCF Done:  E(RB3LYP) =  -869.475516420     A.U. after   13 cycles
 SCF Done:  E(RB3LYP) =  -869.477253339     A.U. after   12 cycles
 SCF Done:  E(RB3LYP) =  -869.477535700     A.U. after   12 cycles
 SCF Done:  E(RB3LYP) =  -869.477684114     A.U. after   12 cycles
 SCF Done:  E(RB3LYP) =  -869.477790861     A.U. after   11 cycles
 SCF Done:  E(RB3LYP) =  -869.477862373     A.U. after   11 cycles
 SCF Done:  E(RB3LYP) =  -869.477893058     A.U. after   11 cycles
 SCF Done:  E(RB3LYP) =  -869.477900857     A.U. after    9 cycles
 SCF Done:  E(RB3LYP) =  -869.477902541     A.U. after    8 cycles
 SCF Done:  E(RB3LYP) =  -869.477903172     A.U. after    8 cycles
 SCF Done:  E(RB3LYP) =  -869.477903281     A.U. after    7 cycles
 Optimization completed.
    -- Stationary point found.
 Normal termination of Gaussian 16 at Tue Dec  8 12:40:51 2020.

 --------------------------------------------------------------------
 #N Geom=AllCheck Guess=TCheck SCRF=Check GenChk RB3LYP/6-31G(d) Freq
 --------------------------------------------------------------------

 Structure from the checkpoint file:  "JID_866.chk"
 -----------------------------
 CID_13724138_JID_866_neutraal
 -----------------------------
 Charge =  0 Multiplicity = 1

 SCF Done:  E(RB3LYP) =  -869.477903281     A.U. after    1 cycles

  Exact polarizability:  96.656   2.985  88.257  -1.214   0.218  51.477
 Approx polarizability: 143.930   3.478 153.474   4.964   3.365  77.789

                      1                      2                      3
                      A                      A                      A
 Frequencies --     47.3355               111.5967               178.8544
 Red. masses --      4.9652                 4.4896                 3.5900
 Frc consts  --      0.0066                 0.0329                 0.0677
 IR Inten    --      5.8403                 4.9215                 3.0799

                      4                      5                      6
                      A                      A                      A
 Frequencies --    222.9084               254.0144               279.8447
 Red. masses --      1.1905                 4.1245                 5.5831
 Frc consts  --      0.0349                 0.1568                 0.2576
 IR Inten    --      0.6181                 3.0100                 1.7717

                      7                      8                      9
                      A                      A                      A
 Frequencies --    310.9792               326.6904               362.6343
 Red. masses --      4.1123                 2.2713                 1.7238
 Frc consts  --      0.2343                 0.1428                 0.1336
 IR Inten    --     13.4805                30.3976                40.0762

                     10                     11                     12
                      A                      A                      A
 Frequencies --    371.3000               447.6566               480.2492
 Red. masses --      3.9622                 1.5332                 3.4686
 Frc consts  --      0.3218                 0.1810                 0.4713
 IR Inten    --      1.7729                59.6820                31.3047

                     13                     14                     15
                      A                      A                      A
 Frequencies --    487.9672               564.7032               659.7273
 Red. masses --      6.0554                 6.2621                 3.3260
 Frc consts  --      0.8495                 1.1765                 0.8529
 IR Inten    --     13.3010                78.1617                62.1610

                     16                     17                     18
                      A                      A                      A
 Frequencies --    679.1410               721.0514               742.9052
 Red. masses --      3.2171                 5.6862                 3.3507
 Frc consts  --      0.8742                 1.7418                 1.0896
 IR Inten    --     41.2860                46.6086                89.0853

                     19                     20                     21
                      A                      A                      A
 Frequencies --    786.1034               880.9076               943.8393
 Red. masses --      2.1753                 1.2909                 4.2892
 Frc consts  --      0.7920                 0.5902                 2.2513
 IR Inten    --    219.1668                 8.4386                44.9011

                     22                     23                     24
                      A                      A                      A
 Frequencies --    990.1237               992.3678              1081.1062
 Red. masses --      1.3855                 1.4199                 3.9925
 Frc consts  --      0.8003                 0.8239                 2.7493
 IR Inten    --      7.8816                29.5748                 9.5045

                     25                     26                     27
                      A                      A                      A
 Frequencies --   1083.9045              1133.3661              1196.7572
 Red. masses --      5.5152                 1.9959                 2.6411
 Frc consts  --      3.8176                 1.5105                 2.2287
 IR Inten    --    100.0342                49.9502                60.4788

                     28                     29                     30
                      A                      A                      A
 Frequencies --   1230.2719              1300.0304              1359.6152
 Red. masses --      2.2874                11.7708                 2.4562
 Frc consts  --      2.0398                11.7210                 2.6752
 IR Inten    --      3.5272               177.4089                15.2780

                     31                     32                     33
                      A                      A                      A
 Frequencies --   1374.1431              1380.8409              1477.9534
 Red. masses --      1.2443                 2.2712                 2.9355
 Frc consts  --      1.3843                 2.5514                 3.7779
 IR Inten    --     10.2030                10.0578                24.4080

                     34                     35                     36
                      A                      A                      A
 Frequencies --   1482.6042              1482.9484              1568.4956
 Red. masses --      1.0539                 1.1354                 4.8826
 Frc consts  --      1.3649                 1.4711                 7.0773
 IR Inten    --      5.4107                 1.2736                98.7224

                     37                     38                     39
                      A                      A                      A
 Frequencies --   1628.1088              1695.7305              3081.7299
 Red. masses --      2.3484                 1.4945                 1.0290
 Frc consts  --      3.6677                 2.5320                 5.7577
 IR Inten    --     77.4398               197.0695                 0.4768

                     40                     41                     42
                      A                      A                      A
 Frequencies --   3182.5652              3189.4974              3273.9910
 Red. masses --      1.1064                 1.1081                 1.0967
 Frc consts  --      6.6029                 6.6415                 6.9261
 IR Inten    --      0.9963                 1.3801                 1.4544

                     43                     44                     45
                      A                      A                      A
 Frequencies --   3494.0840              3619.8377              3663.5411
 Red. masses --      1.0530                 1.0936                 1.0810
 Frc consts  --      7.5742                 8.4431                 8.5485
 IR Inten    --     78.1391                47.1512                70.7152

 - Thermochemistry -
 -------------------
 Temperature   298.150 Kelvin.  Pressure   1.00000 Atm.
 Atom     1 has atomic number  6 and mass  12.00000

 Molecular mass:   161.02590 amu.
 Principal axes and moments of inertia in atomic units:
                           1         2         3
     Eigenvalues --   893.461931856.611842329.47060
           X            0.99932   0.02441  -0.02755
           Y           -0.02489   0.99955  -0.01703
           Z            0.02712   0.01771   0.99948
 This molecule is an asymmetric top.
 Rotational symmetry number  1.
 Warning -- assumption of classical behavior for rotation
           may cause significant error
 Rotational temperatures (Kelvin)      0.09694     0.04665     0.03718
 Rotational constants (GHZ):           2.01994     0.97206     0.77474
 Zero-point vibrational energy     333901.8 (Joules/Mol)
                                   79.80445 (Kcal/Mol)
 Warning -- explicit consideration of  14 degrees of freedom as
           vibrations may cause significant error
 Vibrational temperatures:     68.11   160.56   257.33   320.72   365.47
          (Kelvin)            402.63   447.43   470.03   521.75   534.22
                              644.08   690.97   702.08   812.48   949.20
                              977.13  1037.43  1068.87  1131.03  1267.43
                             1357.97  1424.57  1427.80  1555.47  1559.50
                             1630.66  1721.87  1770.09  1870.45  1956.18
                             1977.09  1986.72  2126.45  2133.14  2133.63
                             2256.72  2342.49  2439.78  4433.92  4579.00
                             4588.98  4710.54  5027.21  5208.14  5271.02

 Zero-point correction=                           0.127176 (Hartree/Particle)
 Thermal correction to Energy=                    0.136891
 Thermal correction to Enthalpy=                  0.137835
 Thermal correction to Gibbs Free Energy=         0.092026
 Sum of electronic and zero-point Energies=           -869.350727
 Sum of electronic and thermal Energies=              -869.341012
 Sum of electronic and thermal Enthalpies=            -869.340068
 Sum of electronic and thermal Free Energies=         -869.385877

                     E (Thermal)             CV                S
                      KCal/Mol        Cal/Mol-Kelvin    Cal/Mol-Kelvin
 Total                   85.900             36.273             96.414
 Electronic               0.000              0.000              0.000
 Translational            0.889              2.981             41.138
 Rotational               0.889              2.981             29.737
 Vibrational             84.123             30.311             25.539
 Vibration     1          0.595              1.979              4.926
 Vibration     2          0.607              1.940              3.241
 Vibration     3          0.629              1.868              2.340
 Vibration     4          0.649              1.806              1.935
 Vibration     5          0.665              1.756              1.703
 Vibration     6          0.680              1.711              1.535
 Vibration     7          0.700              1.653              1.357
 Vibration     8          0.710              1.622              1.276
 Vibration     9          0.736              1.549              1.111
 Vibration    10          0.743              1.531              1.074
 Vibration    11          0.807              1.366              0.803
 Vibration    12          0.837              1.294              0.709
 Vibration    13          0.844              1.277              0.689
 Vibration    14          0.921              1.108              0.515

 Optimization completed.
    -- Stationary point found.
 Normal termination of Gaussian 16 at Tue Dec  8 12:44:04 2020.

 ----------------------------------------------------------------------
 # B3LYP/6-311++G(d,p) empiricaldispersion=gd3bj scf=xqc pop=npa geom=c
 heck
 ----------------------------------------------------------------------

 -------------------------------------
 CID_13724138_JID_866_Energie_neutraal
 -------------------------------------
 Structure from the checkpoint file:  "JID_866.chk"
 Charge =  0 Multiplicity = 1

 SCF Done:  E(RB3LYP) =  -869.649286822     A.U. after   15 cycles
 Normal termination of Gaussian 16 at Tue Dec  8 12:50:26 2020.

 ----------------------------------------------------------------------
 # B3LYP/6-311++G(d,p) empiricaldispersion=gd3bj scf=xqc pop=npa geom=c
 heck
 ----------------------------------------------------------------------

 -----------------------------------
 CID_13724138_JID_866_Energie_kation
 -----------------------------------
 Structure from the checkpoint file:  "JID_866.chk"
 Charge =  1 Multiplicity = 2

 SCF Done:  E(UB3LYP) =  -869.326407987     A.U. after   22 cycles
 Normal termination of Gaussian 16 at Tue Dec  8 13:04:06 2020.
 Gaussian 16:  ES64L-G16RevA.03 25-Dec-2016

 ----------------------------------------------------------------------
 # B3LYP/6-311++G(d,p) empiricaldispersion=gd3bj scf=xqc pop=npa geom=c
 heck
 ----------------------------------------------------------------------

 ----------------------------------
 CID_13724138_JID_866_Energie_anion
 ----------------------------------
 Structure from the checkpoint file:  "JID_866.chk"
 Charge = -1 Multiplicity = 2

                         Standard orientation:
 ---------------------------------------------------------------------
 Center     Atomic      Atomic             Coordinates (Angstroms)
 Number     Number       Type             X           Y           Z
 ---------------------------------------------------------------------
      1          6           0       -1.957724   -0.197888    1.504650
      2         16           0       -1.329533   -0.037965   -0.180104
      3          8           0       -1.939825   -1.107822   -0.979240
      4          8           0       -1.495212    1.383428   -0.564549
      5          6           0        0.383713   -0.322843   -0.047361
      6          6           0        1.364413    0.673741    0.024297
      7          7           0        2.539079    0.002253    0.084549
      8          7           0        2.398527   -1.365542    0.046392
      9          6           0        1.094510   -1.553444   -0.034154
     10          7           0        1.241049    2.040003    0.093383
     11          1           0       -3.032464   -0.005047    1.462659
     12          1           0       -1.459552    0.538412    2.138012
     13          1           0       -1.765333   -1.213027    1.856720
     14          1           0        3.466041    0.391622    0.168529
     15          1           0        0.684420   -2.551784   -0.099405
     16          1           0        1.985748    2.569532   -0.343876
     17          1           0        0.313908    2.338478   -0.205524
 ---------------------------------------------------------------------

 SCF Done:  E(UB3LYP) =  -869.643679758     A.U. after   30 cycles

 The electronic state is 2-A.
 Alpha  occ. eigenvalues --  -88.95359 -19.01448 -19.01424 -14.28136 -14.23610
 Alpha  occ. eigenvalues --  -14.22354 -10.16579 -10.10868 -10.10714 -10.08948
 Alpha  occ. eigenvalues --   -8.01686  -5.97960  -5.97876  -5.97794  -1.00814
 Alpha  occ. eigenvalues --   -0.95128  -0.90483  -0.82577  -0.72648  -0.69891
 Alpha  occ. eigenvalues --   -0.66473  -0.57126  -0.51953  -0.48571  -0.46123
 Alpha  occ. eigenvalues --   -0.41226  -0.39079  -0.38541  -0.37759  -0.36052
 Alpha  occ. eigenvalues --   -0.35242  -0.33635  -0.33529  -0.32120  -0.24090
 Alpha  occ. eigenvalues --   -0.23835  -0.22501  -0.21141  -0.20785  -0.19312
 Alpha  occ. eigenvalues --   -0.17546  -0.12584   0.04365
 Alpha virt. eigenvalues --    0.06437   0.08790   0.09111   0.10260   0.10727
 Alpha virt. eigenvalues --    0.11016   0.11465   0.13374   0.13745   0.14327
 Alpha virt. eigenvalues --    0.14546   0.15956   0.16385   0.17027   0.17621

  Beta  occ. eigenvalues --  -88.95355 -19.01437 -19.01413 -14.28063 -14.23602
  Beta  occ. eigenvalues --  -14.22259 -10.16579 -10.10822 -10.10712 -10.08936
  Beta  occ. eigenvalues --   -8.01681  -5.97958  -5.97872  -5.97790  -1.00786
  Beta  occ. eigenvalues --   -0.95076  -0.90453  -0.82474  -0.72561  -0.69837
  Beta  occ. eigenvalues --   -0.66409  -0.57063  -0.51882  -0.48507  -0.45981
  Beta  occ. eigenvalues --   -0.41160  -0.39032  -0.38491  -0.37709  -0.35986
  Beta  occ. eigenvalues --   -0.35198  -0.33596  -0.33484  -0.32083  -0.24060
  Beta  occ. eigenvalues --   -0.23783  -0.22481  -0.21119  -0.20762  -0.19291
  Beta  occ. eigenvalues --   -0.17510  -0.12529
  Beta virt. eigenvalues --    0.06890   0.08662   0.09158   0.10031   0.10625
  Beta virt. eigenvalues --    0.10987   0.11649   0.11881   0.13721   0.14010
  Beta virt. eigenvalues --    0.14253   0.14656   0.16017   0.16686   0.17101

 Mulliken charges and spin densities:
               1          2
     1  C    0.131458  -0.651078
     2  S    1.083229  -0.806824
     3  O   -0.207964   0.002939
     4  O   -0.300472   0.024923
     5  C    0.355306  -0.570946
     6  C   -0.467343   0.257522
     7  N    0.271453  -0.357654
     8  N   -0.344269   0.105278
     9  C    0.256830  -0.238150
    10  N   -0.255687  -0.021791
    11  H   -0.070183   0.275030
    12  H   -0.295411   0.506966
    13  H   -0.163503   0.366668
    14  H   -0.497197   0.847711
    15  H    0.093912   0.095570
    16  H   -0.767018   1.047630
    17  H    0.176860   0.116205
 Sum of Mulliken charges =  -1.00000   1.00000

 Dipole moment (field-independent basis, Debye):
    X=             -5.3474    Y=             -4.0931    Z=              0.8973  Tot=              6.7936
 Quadrupole moment (field-independent basis, Debye-Ang):
   XX=           -126.0657   YY=           -104.7338   ZZ=            -91.9202
   XY=            -12.3469   XZ=             -0.9965   YZ=              0.7684

 Summary of Natural Population Analysis:

                                       Natural Population
                Natural  -----------------------------------------------
    Atom  No    Charge         Core      Valence    Rydberg      Total
 -----------------------------------------------------------------------
      C    1   -0.38881      0.99962     2.38133    0.00786     3.38881
      S    2    1.04358      4.99918     1.86096    0.09628     6.95642
      O    3   -0.46906      0.99991     3.46329    0.00587     4.46906
      O    4   -0.48190      0.99991     3.47622    0.00577     4.48190
      C    5   -0.25206      0.99932     2.23740    0.01535     3.25206
      C    6    0.20209      0.99949     1.78406    0.01437     2.79791
      N    7   -0.18146      0.99965     2.66805    0.01377     3.68146
      N    8   -0.15675      0.99974     2.64358    0.01344     3.65675
      C    9    0.00849      0.99958     1.97755    0.01439     2.99151
      N   10   -0.39326      0.99970     2.88413    0.00942     3.89326
      H   11    0.11478      0.00000     0.38411    0.00111     0.38522
      H   12    0.11739      0.00000     0.38109    0.00152     0.38261
      H   13    0.11399      0.00000     0.38464    0.00137     0.38601
      H   14    0.21050      0.00000     0.27064    0.01886     0.28950
      H   15    0.10269      0.00000     0.39625    0.00106     0.39731
      H   16    0.20224      0.00000     0.26809    0.02968     0.29776
      H   17    0.20755      0.00000     0.28983    0.00261     0.29245
 =======================================================================
   * Total *   -0.00000     13.99608    27.75122    0.25270    42.00000

 Normal termination of Gaussian 16 at Tue Dec  8 13:17:02 2020.
