 Gaussian 16, Revision A.03,

 -----------------------------------------------------------
 # opt freq B3LYP/6-31G(d) empiricaldispersion=gd3bj scf=xqc
 -----------------------------------------------------------

 ------------------------------
 CID_55164820_JID_8889_neutraal
 ------------------------------
 Symbolic Z-matrix:
 Charge =  0 Multiplicity = 1

 SCF Done:  E(RB3LYP) =  -1127.28580727     A.U. after   15 cycles
 SCF Done:  E(RB3LYP) =  -1127.29197335     A.U. after   12 cycles
 SCF Done:  E(RB3LYP) =  -1127.29307120     A.U. after   12 cycles
 SCF Done:  E(RB3LYP) =  -1127.29338518     A.U. after   13 cycles
 SCF Done:  E(RB3LYP) =  -1127.29398459     A.U. after   12 cycles
 SCF Done:  E(RB3LYP) =  -1127.29420186     A.U. after   12 cycles
 SCF Done:  E(RB3LYP) =  -1127.29434750     A.U. after   12 cycles
 SCF Done:  E(RB3LYP) =  -1127.29443480     A.U. after   12 cycles
 SCF Done:  E(RB3LYP) =  -1127.29450550     A.U. after   12 cycles
 SCF Done:  E(RB3LYP) =  -1127.29452451     A.U. after   11 cycles
 SCF Done:  E(RB3LYP) =  -1127.29920536     A.U. after    8 cycles
 SCF Done:  E(RB3LYP) =  -1127.29920546     A.U. after    7 cycles
 SCF Done:  E(RB3LYP) =  -1127.29920549     A.U. after    7 cycles
 SCF Done:  E(RB3LYP) =  -1127.29920550     A.U. after    7 cycles
 SCF Done:  E(RB3LYP) =  -1127.29920550     A.U. after    8 cycles
 SCF Done:  E(RB3LYP) =  -1127.29920550     A.U. after    7 cycles
 Optimization completed.
    -- Stationary point found.
 Normal termination of Gaussian 16 at Fri Dec 11 23:21:46 2020.

 --------------------------------------------------------------------
 #N Geom=AllCheck Guess=TCheck SCRF=Check GenChk RB3LYP/6-31G(d) Freq
 --------------------------------------------------------------------

 Structure from the checkpoint file:  "JID_8889.chk"
 ------------------------------
 CID_55164820_JID_8889_neutraal
 ------------------------------
 Charge =  0 Multiplicity = 1

 SCF Done:  E(RB3LYP) =  -1127.29920550     A.U. after    1 cycles

  Exact polarizability: 267.919  27.164 171.537  -8.073  25.730 121.102
 Approx polarizability: 348.056  45.672 291.302 -13.813  70.334 200.097

                      1                      2                      3
                      A                      A                      A
 Frequencies --     10.0569                15.4272                37.7846
 Red. masses --      4.2612                 3.6397                 2.3309
 Frc consts  --      0.0003                 0.0005                 0.0020
 IR Inten    --      0.0982                 0.6128                 0.1931

                      4                      5                      6
                      A                      A                      A
 Frequencies --     44.2776                53.6502                72.5075
 Red. masses --      4.8547                 4.3326                 3.3494
 Frc consts  --      0.0056                 0.0073                 0.0104
 IR Inten    --      0.5896                 1.7351                 3.0769

                      7                      8                      9
                      A                      A                      A
 Frequencies --     91.0786               121.4467               153.4903
 Red. masses --      4.1648                 2.9313                 3.8983
 Frc consts  --      0.0204                 0.0255                 0.0541
 IR Inten    --      1.0549                 0.4623                 0.7720

                     10                     11                     12
                      A                      A                      A
 Frequencies --    181.1877               196.3278               235.7413
 Red. masses --      2.7842                 1.7794                 3.9012
 Frc consts  --      0.0539                 0.0404                 0.1277
 IR Inten    --      1.5432                 0.0737                 7.5712

                     13                     14                     15
                      A                      A                      A
 Frequencies --    246.5981               277.0079               287.5891
 Red. masses --      3.2414                 1.6655                 3.9430
 Frc consts  --      0.1161                 0.0753                 0.1921
 IR Inten    --      6.9975                49.7940                 0.9611

                     16                     17                     18
                      A                      A                      A
 Frequencies --    297.6163               327.4797               351.6394
 Red. masses --      1.9221                 2.2444                 2.7196
 Frc consts  --      0.1003                 0.1418                 0.1981
 IR Inten    --      4.2244                 0.2753                18.1325

                     19                     20                     21
                      A                      A                      A
 Frequencies --    385.3352               416.5592               439.6350
 Red. masses --      3.4971                 3.0562                 4.5699
 Frc consts  --      0.3059                 0.3125                 0.5204
 IR Inten    --      2.6190                 0.3813                 6.6574

                     22                     23                     24
                      A                      A                      A
 Frequencies --    465.1536               507.1879               526.2363
 Red. masses --      4.0720                 3.5956                 3.0590
 Frc consts  --      0.5191                 0.5450                 0.4991
 IR Inten    --      9.9369                 1.5916                 2.7898

                     25                     26                     27
                      A                      A                      A
 Frequencies --    558.8450               602.9871               633.1135
 Red. masses --      4.3647                 5.4714                 4.8829
 Frc consts  --      0.8031                 1.1721                 1.1532
 IR Inten    --      3.4005                 5.6323                 2.0681

                     28                     29                     30
                      A                      A                      A
 Frequencies --    656.7480               688.6975               720.2677
 Red. masses --      7.0246                 2.9958                 2.0653
 Frc consts  --      1.7851                 0.8372                 0.6313
 IR Inten    --      0.0139                 3.5103                16.9901

                     31                     32                     33
                      A                      A                      A
 Frequencies --    760.4245               766.5128               773.3166
 Red. masses --      4.6042                 2.2880                 1.3613
 Frc consts  --      1.5686                 0.7920                 0.4796
 IR Inten    --     29.7870                36.4661                 2.0270

                     34                     35                     36
                      A                      A                      A
 Frequencies --    798.9239               846.6151               859.0842
 Red. masses --      4.2013                 1.5601                 1.2743
 Frc consts  --      1.5800                 0.6588                 0.5541
 IR Inten    --      6.3182                38.0769                19.6667

                     37                     38                     39
                      A                      A                      A
 Frequencies --    862.3207               886.4027               896.4467
 Red. masses --      4.8593                 1.3902                 2.5146
 Frc consts  --      2.1289                 0.6436                 1.1906
 IR Inten    --     13.0083                73.6715                 6.3864

                     40                     41                     42
                      A                      A                      A
 Frequencies --    926.4170               933.6387               953.8285
 Red. masses --      6.0000                 1.5619                 1.6500
 Frc consts  --      3.0340                 0.8022                 0.8845
 IR Inten    --      0.9574                 9.4650                 8.3548

                     43                     44                     45
                      A                      A                      A
 Frequencies --    973.2155               985.1263              1008.6773
 Red. masses --      1.3036                 1.3133                 2.2807
 Frc consts  --      0.7275                 0.7509                 1.3671
 IR Inten    --      2.5172                 2.2209                34.6783

                     46                     47                     48
                      A                      A                      A
 Frequencies --   1013.9439              1041.8516              1071.1591
 Red. masses --      1.7683                 2.9344                 2.2489
 Frc consts  --      1.0711                 1.8766                 1.5203
 IR Inten    --     16.0842                 9.5186                17.5314

                     49                     50                     51
                      A                      A                      A
 Frequencies --   1071.9623              1100.8571              1127.3303
 Red. masses --      2.6039                 1.9910                 3.0349
 Frc consts  --      1.7629                 1.4216                 2.2724
 IR Inten    --      4.9556                17.5116                96.9791

                     52                     53                     54
                      A                      A                      A
 Frequencies --   1147.7142              1155.5431              1163.1040
 Red. masses --      1.4152                 2.6490                 3.2324
 Frc consts  --      1.0983                 2.0840                 2.5764
 IR Inten    --      4.3886                56.0015                80.8009

                     55                     56                     57
                      A                      A                      A
 Frequencies --   1186.0037              1195.3080              1214.9036
 Red. masses --      1.2763                 2.0936                 1.1611
 Frc consts  --      1.0577                 1.7624                 1.0097
 IR Inten    --     12.1897                 9.9383                 3.0285

                     58                     59                     60
                      A                      A                      A
 Frequencies --   1238.1653              1248.6466              1285.8313
 Red. masses --      2.3236                 1.8341                 1.1686
 Frc consts  --      2.0988                 1.6848                 1.1383
 IR Inten    --      0.9274                 0.4602                 3.6487

                     61                     62                     63
                      A                      A                      A
 Frequencies --   1308.1151              1310.1044              1321.3202
 Red. masses --      1.7651                 1.3437                 1.7621
 Frc consts  --      1.7796                 1.3588                 1.8126
 IR Inten    --     11.0003                 5.8138                11.8964

                     64                     65                     66
                      A                      A                      A
 Frequencies --   1336.6732              1362.6860              1371.0661
 Red. masses --      1.2567                 2.0665                 2.3663
 Frc consts  --      1.3229                 2.2609                 2.6208
 IR Inten    --     10.0477                17.4006                 1.4852

                     67                     68                     69
                      A                      A                      A
 Frequencies --   1397.4721              1419.0239              1435.2844
 Red. masses --      1.3410                 1.3354                 1.3320
 Frc consts  --      1.5429                 1.5843                 1.6167
 IR Inten    --     17.3665                35.6126                 6.9523

                     70                     71                     72
                      A                      A                      A
 Frequencies --   1439.6399              1455.2328              1467.4701
 Red. masses --      1.6147                 1.3414                 2.5502
 Frc consts  --      1.9717                 1.6737                 3.2357
 IR Inten    --     40.3396                 5.5174                25.2050

                     73                     74                     75
                      A                      A                      A
 Frequencies --   1504.8160              1509.5152              1519.0741
 Red. masses --      1.1269                 1.0808                 3.7081
 Frc consts  --      1.5034                 1.4510                 5.0415
 IR Inten    --      3.7536                 1.1738                22.4894

                     76                     77                     78
                      A                      A                      A
 Frequencies --   1525.7799              1534.0072              1540.6325
 Red. masses --      1.0453                 1.1007                 1.0579
 Frc consts  --      1.4338                 1.5260                 1.4794
 IR Inten    --      6.2924                 0.2179                 6.4574

                     79                     80                     81
                      A                      A                      A
 Frequencies --   1548.2032              1576.0415              1579.1238
 Red. masses --      1.0879                 8.1359                 3.2643
 Frc consts  --      1.5363                11.9067                 4.7959
 IR Inten    --      4.3351                43.3047                 2.7608

                     82                     83                     84
                      A                      A                      A
 Frequencies --   1630.3290              1675.7906              1693.1156
 Red. masses --      6.5619                 4.7293                 1.1414
 Frc consts  --     10.2761                 7.8250                 1.9277
 IR Inten    --      0.9022                 1.8836                30.8786

                     85                     86                     87
                      A                      A                      A
 Frequencies --   2963.4317              2971.9971              2997.8234
 Red. masses --      1.0728                 1.0664                 1.0707
 Frc consts  --      5.5509                 5.5495                 5.6695
 IR Inten    --     77.1160                32.2444                57.1759

                     88                     89                     90
                      A                      A                      A
 Frequencies --   3032.1786              3037.3479              3049.0771
 Red. masses --      1.0880                 1.0881                 1.0400
 Frc consts  --      5.8935                 5.9143                 5.6964
 IR Inten    --     27.5374                34.6539                37.2999

                     91                     92                     93
                      A                      A                      A
 Frequencies --   3051.0801              3084.6773              3112.1020
 Red. masses --      1.0675                 1.1005                 1.0926
 Frc consts  --      5.8547                 6.1699                 6.2349
 IR Inten    --     39.9142                19.5319                13.1699

                     94                     95                     96
                      A                      A                      A
 Frequencies --   3113.1925              3139.0375              3176.3846
 Red. masses --      1.1007                 1.1014                 1.0893
 Frc consts  --      6.2854                 6.3944                 6.4754
 IR Inten    --     47.1946                29.7415                25.0811

                     97                     98                     99
                      A                      A                      A
 Frequencies --   3190.3585              3219.5564              3230.5791
 Red. masses --      1.0880                 1.0925                 1.0918
 Frc consts  --      6.5245                 6.6722                 6.7138
 IR Inten    --     10.8020                 6.2311                 1.6675

                    100                    101                    102
                      A                      A                      A
 Frequencies --   3284.3471              3467.7515              3556.4643
 Red. masses --      1.0936                 1.0496                 1.0929
 Frc consts  --      6.9502                 7.4368                 8.1447
 IR Inten    --      3.1783                 3.5050                 1.1966

 - Thermochemistry -
 -------------------
 Temperature   298.150 Kelvin.  Pressure   1.00000 Atm.
 Atom     1 has atomic number  6 and mass  12.00000

 Molecular mass:   262.11399 amu.
 Principal axes and moments of inertia in atomic units:
                           1         2         3
     Eigenvalues --  2498.46025********************
           X            0.99996  -0.00906   0.00189
           Y            0.00907   0.99995  -0.00506
           Z           -0.00184   0.00507   0.99999
 This molecule is an asymmetric top.
 Rotational symmetry number  1.
 Warning -- assumption of classical behavior for rotation
           may cause significant error
 Rotational temperatures (Kelvin)      0.03467     0.00699     0.00620
 Rotational constants (GHZ):           0.72234     0.14573     0.12921
 Zero-point vibrational energy     790928.1 (Joules/Mol)
                                  189.03635 (Kcal/Mol)
 Warning -- explicit consideration of  26 degrees of freedom as
           vibrations may cause significant error
 Vibrational temperatures:     14.47    22.20    54.36    63.71    77.19
          (Kelvin)            104.32   131.04   174.73   220.84   260.69
                              282.47   339.18   354.80   398.55   413.78
                              428.20   471.17   505.93   554.41   599.34
                              632.54   669.25   729.73   757.14   804.05
                              867.56   910.91   944.91   990.88  1036.30
                             1094.08  1102.84  1112.63  1149.47  1218.09
                             1236.03  1240.69  1275.34  1289.79  1332.91
                             1343.30  1372.35  1400.24  1417.38  1451.26
                             1458.84  1498.99  1541.16  1542.31  1583.89
                             1621.98  1651.30  1662.57  1673.45  1706.39
                             1719.78  1747.98  1781.44  1796.52  1850.02
                             1882.09  1884.95  1901.09  1923.17  1960.60
                             1972.66  2010.65  2041.66  2065.05  2071.32
                             2093.76  2111.36  2165.09  2171.86  2185.61
                             2195.26  2207.09  2216.63  2227.52  2267.57
                             2272.01  2345.68  2411.09  2436.02  4263.72
                             4276.04  4313.20  4362.63  4370.07  4386.94
                             4389.82  4438.16  4477.62  4479.19  4516.37
                             4570.11  4590.21  4632.22  4648.08  4725.44
                             4989.32  5116.96

 Zero-point correction=                           0.301249 (Hartree/Particle)
 Thermal correction to Energy=                    0.319299
 Thermal correction to Enthalpy=                  0.320243
 Thermal correction to Gibbs Free Energy=         0.250760
 Sum of electronic and zero-point Energies=          -1126.997957
 Sum of electronic and thermal Energies=             -1126.979906
 Sum of electronic and thermal Enthalpies=           -1126.978962
 Sum of electronic and thermal Free Energies=        -1127.048446

                     E (Thermal)             CV                S
                      KCal/Mol        Cal/Mol-Kelvin    Cal/Mol-Kelvin
 Total                  200.363             66.673            146.241
 Electronic               0.000              0.000              0.000
 Translational            0.889              2.981             42.590
 Rotational               0.889              2.981             34.424
 Vibrational            198.586             60.712             69.227
 Vibration     1          0.593              1.987              8.000
 Vibration     2          0.593              1.986              7.150
 Vibration     3          0.594              1.982              5.372
 Vibration     4          0.595              1.980              5.058
 Vibration     5          0.596              1.976              4.678
 Vibration     6          0.599              1.967              4.084
 Vibration     7          0.602              1.956              3.637
 Vibration     8          0.609              1.931              3.077
 Vibration     9          0.619              1.899              2.629
 Vibration    10          0.630              1.865              2.316
 Vibration    11          0.636              1.845              2.167
 Vibration    12          0.655              1.786              1.835
 Vibration    13          0.661              1.768              1.755
 Vibration    14          0.678              1.716              1.552
 Vibration    15          0.685              1.697              1.488
 Vibration    16          0.691              1.678              1.430
 Vibration    17          0.711              1.621              1.272
 Vibration    18          0.728              1.572              1.159
 Vibration    19          0.754              1.501              1.018
 Vibration    20          0.780              1.434              0.904
 Vibration    21          0.800              1.384              0.828
 Vibration    22          0.823              1.327              0.751
 Vibration    23          0.862              1.234              0.640
 Vibration    24          0.881              1.192              0.596
 Vibration    25          0.914              1.120              0.526
 Vibration    26          0.961              1.025              0.445

                           ! Non-Optimized Parameters !
 Normal termination of Gaussian 16 at Fri Dec 11 23:33:32 2020.

 ----------------------------------------------------------------------
 # B3LYP/6-311++G(d,p) empiricaldispersion=gd3bj scf=xqc pop=npa geom=c
 heck
 ----------------------------------------------------------------------

 --------------------------------------
 CID_55164820_JID_8889_Energie_neutraal
 --------------------------------------
 Structure from the checkpoint file:  "JID_8889.chk"
 Charge =  0 Multiplicity = 1

 SCF Done:  E(RB3LYP) =  -1127.52792094     A.U. after   16 cycles
 Normal termination of Gaussian 16 at Fri Dec 11 23:38:54 2020.

 ----------------------------------------------------------------------
 # B3LYP/6-311++G(d,p) empiricaldispersion=gd3bj scf=xqc pop=npa geom=c
 heck
 ----------------------------------------------------------------------

 ------------------------------------
 CID_55164820_JID_8889_Energie_kation
 ------------------------------------
 Structure from the checkpoint file:  "JID_8889.chk"
 Charge =  1 Multiplicity = 2

 SCF Done:  E(UB3LYP) =  -1127.24852403     A.U. after   25 cycles
 Normal termination of Gaussian 16 at Fri Dec 11 23:50:04 2020.
 Gaussian 16:  ES64L-G16RevA.03 25-Dec-2016

 ----------------------------------------------------------------------
 # B3LYP/6-311++G(d,p) empiricaldispersion=gd3bj scf=xqc pop=npa geom=c
 heck
 ----------------------------------------------------------------------

 -----------------------------------
 CID_55164820_JID_8889_Energie_anion
 -----------------------------------
 Structure from the checkpoint file:  "JID_8889.chk"
 Charge = -1 Multiplicity = 2

                         Standard orientation:
 ---------------------------------------------------------------------
 Center     Atomic      Atomic             Coordinates (Angstroms)
 Number     Number       Type             X           Y           Z
 ---------------------------------------------------------------------
      1          6           0        5.812429   -2.357944    0.369814
      2          6           0        4.487640   -2.062566    1.076443
      3          6           0        3.895465   -0.714755    0.691029
      4          8           0        3.609217   -0.737146   -0.702433
      5          6           0        3.203099    0.509317   -1.222962
      6          6           0        1.898792    1.003300   -0.645963
      7          7           0        0.765879    0.380858   -0.760602
      8          6           0       -0.263362    1.034103   -0.103952
      9          6           0        0.121578    2.194136    0.527758
     10         16           0        1.810981    2.482147    0.306167
     11          6           0       -1.617680    0.457557   -0.139386
     12          6           0       -2.713177    1.095948    0.464261
     13          6           0       -3.982095    0.530586    0.422541
     14          6           0       -4.199245   -0.693117   -0.224169
     15          6           0       -3.107898   -1.332615   -0.819310
     16          6           0       -1.835722   -0.768475   -0.784587
     17          6           0       -5.585839   -1.295496   -0.298538
     18          7           0       -6.344715   -1.047176    0.932105
     19          1           0        5.679342   -2.344461   -0.715698
     20          1           0        6.204366   -3.339674    0.656731
     21          1           0        6.569730   -1.606277    0.625451
     22          1           0        3.752090   -2.841333    0.840186
     23          1           0        4.624402   -2.074271    2.165728
     24          1           0        2.977957   -0.516620    1.264115
     25          1           0        4.608864    0.098808    0.912366
     26          1           0        3.982645    1.273003   -1.067242
     27          1           0        3.079175    0.356263   -2.298954
     28          1           0       -0.485052    2.883239    1.096427
     29          1           0       -2.576781    2.047154    0.970841
     30          1           0       -4.821972    1.024646    0.899836
     31          1           0       -3.254235   -2.289022   -1.316515
     32          1           0       -0.993933   -1.271052   -1.247098
     33          1           0       -6.142931   -0.821860   -1.119353
     34          1           0       -5.492172   -2.362386   -0.567641
     35          1           0       -7.286046   -1.423592    0.837473
     36          1           0       -5.906942   -1.545411    1.705752
 ---------------------------------------------------------------------

 SCF Done:  E(UB3LYP) =  -1127.52854246     A.U. after   32 cycles

 The electronic state is 2-A.
 Alpha  occ. eigenvalues --  -88.74700 -19.02892 -14.19086 -14.18469 -10.12555
 Alpha  occ. eigenvalues --  -10.12272 -10.09928 -10.08863 -10.08614 -10.07982
 Alpha  occ. eigenvalues --  -10.07277 -10.05333 -10.05089 -10.04932 -10.04653
 Alpha  occ. eigenvalues --  -10.04648 -10.04462 -10.04309  -7.83371  -5.79637
 Alpha  occ. eigenvalues --   -5.79299  -5.79022  -0.94404  -0.83458  -0.78222
 Alpha  occ. eigenvalues --   -0.73080  -0.70367  -0.66812  -0.66185  -0.63114
 Alpha  occ. eigenvalues --   -0.62064  -0.59842  -0.56544  -0.53608  -0.50102
 Alpha  occ. eigenvalues --   -0.49329  -0.46736  -0.45065  -0.42619  -0.40256
 Alpha  occ. eigenvalues --   -0.39773  -0.38649  -0.37625  -0.37151  -0.35616
 Alpha  occ. eigenvalues --   -0.34243  -0.33394  -0.33057  -0.31428  -0.30578
 Alpha  occ. eigenvalues --   -0.30512  -0.29891  -0.29179  -0.28391  -0.27840
 Alpha  occ. eigenvalues --   -0.27092  -0.26067  -0.25710  -0.24692  -0.23732
 Alpha  occ. eigenvalues --   -0.22422  -0.21945  -0.21604  -0.17303  -0.16652
 Alpha  occ. eigenvalues --   -0.15298  -0.14811  -0.14220  -0.13230  -0.09505
 Alpha  occ. eigenvalues --    0.04200
 Alpha virt. eigenvalues --    0.05834   0.06220   0.07916   0.08233   0.08791
 Alpha virt. eigenvalues --    0.09090   0.09148   0.09439   0.09902   0.10570
 Alpha virt. eigenvalues --    0.10848   0.11055   0.11273   0.11966   0.12049

  Beta  occ. eigenvalues --  -88.74641 -19.02867 -14.19041 -14.18501 -10.12564
  Beta  occ. eigenvalues --  -10.12271 -10.09732 -10.08865 -10.08613 -10.07975
  Beta  occ. eigenvalues --  -10.07265 -10.04992 -10.04928 -10.04808 -10.04681
  Beta  occ. eigenvalues --  -10.04608 -10.04381 -10.04312  -7.83318  -5.79613
  Beta  occ. eigenvalues --   -5.79276  -5.78822  -0.94349  -0.83312  -0.78125
  Beta  occ. eigenvalues --   -0.72927  -0.70346  -0.66456  -0.65893  -0.62973
  Beta  occ. eigenvalues --   -0.61951  -0.59693  -0.56450  -0.53419  -0.50065
  Beta  occ. eigenvalues --   -0.49150  -0.46478  -0.44769  -0.42514  -0.40176
  Beta  occ. eigenvalues --   -0.39661  -0.38542  -0.37559  -0.37066  -0.35551
  Beta  occ. eigenvalues --   -0.34196  -0.33287  -0.32958  -0.31371  -0.30465
  Beta  occ. eigenvalues --   -0.30407  -0.29800  -0.29039  -0.27931  -0.27669
  Beta  occ. eigenvalues --   -0.27023  -0.26052  -0.25648  -0.24445  -0.23340
  Beta  occ. eigenvalues --   -0.22362  -0.21831  -0.21505  -0.17191  -0.15901
  Beta  occ. eigenvalues --   -0.14795  -0.14600  -0.13803  -0.12887  -0.08229
  Beta virt. eigenvalues --    0.05850   0.06752   0.07833   0.08099   0.08539
  Beta virt. eigenvalues --    0.08972   0.09079   0.09448   0.09603   0.10169
  Beta virt. eigenvalues --    0.10619   0.10839   0.11153   0.11544   0.12009

 Mulliken charges and spin densities:
               1          2
     1  C   -0.300942  -0.145346
     2  C   -0.326401   0.068906
     3  C   -0.285486  -0.016244
     4  O   -0.044087   0.007752
     5  C    0.105538  -0.075344
     6  C    0.541226   0.147265
     7  N    0.221657  -0.018224
     8  C   -1.110981  -0.060626
     9  C    0.327576   0.304802
    10  S   -0.593001   0.112440
    11  C    0.978210   0.052156
    12  C   -0.615278   0.142640
    13  C   -0.735946   0.081530
    14  C    0.499883   0.280807
    15  C   -0.819153  -0.081347
    16  C   -0.360931  -0.098805
    17  C    0.086933  -0.682909
    18  N   -0.338090   0.000327
    19  H    0.123434   0.037793
    20  H    0.062835   0.062617
    21  H    0.074111   0.037100
    22  H    0.156664   0.000594
    23  H    0.104909   0.012630
    24  H    0.191777  -0.000004
    25  H    0.115704  -0.010131
    26  H    0.092268   0.030754
    27  H    0.135740   0.044788
    28  H    0.261507  -0.019778
    29  H    0.027202  -0.000739
    30  H    0.210070  -0.006528
    31  H    0.115789  -0.013793
    32  H    0.162054   0.001292
    33  H   -0.044185   0.192617
    34  H    0.006579   0.160682
    35  H   -0.139756   0.370668
    36  H    0.112571   0.079657
 Sum of Mulliken charges =  -1.00000   1.00000

 Dipole moment (field-independent basis, Debye):
    X=              7.6034    Y=             -0.3004    Z=              0.9295  Tot=              7.6659
 Quadrupole moment (field-independent basis, Debye-Ang):
   XX=           -219.5825   YY=           -137.1095   ZZ=           -129.7243
   XY=             -4.5003   XZ=              6.3348   YZ=             -0.0335

 Summary of Natural Population Analysis:

                                       Natural Population
                Natural  -----------------------------------------------
    Atom  No    Charge         Core      Valence    Rydberg      Total
 -----------------------------------------------------------------------
      C    1   -0.28795      0.99967     2.28346    0.00482     3.28795
      C    2   -0.19960      0.99964     2.19166    0.00830     3.19960
      C    3   -0.01026      0.99959     2.00029    0.01038     3.01026
      O    4   -0.29733      0.99988     3.28706    0.01039     4.29733
      C    5   -0.02760      0.99952     2.01380    0.01429     3.02760
      C    6    0.03450      0.99962     1.94556    0.02032     2.96550
      N    7   -0.25927      0.99964     2.74216    0.01747     3.75927
      C    8    0.10874      0.99950     1.87669    0.01507     2.89126
      C    9   -0.11974      0.99955     2.11197    0.00822     3.11974
      S   10    0.17957      4.99944     2.79316    0.02783     7.82043
      C   11   -0.04233      0.99953     2.02219    0.02061     3.04233
      C   12   -0.07968      0.99954     2.07105    0.00909     3.07968
      C   13   -0.13369      0.99958     2.11368    0.02043     3.13369
      C   14    0.04023      0.99953     1.94815    0.01209     2.95977
      C   15   -0.12322      0.99958     2.10253    0.02111     3.12322
      C   16   -0.09395      0.99954     2.08489    0.00952     3.09395
      C   17   -0.05809      0.99963     2.04102    0.01744     3.05809
      N   18   -0.43138      0.99980     2.91468    0.01690     3.93138
      H   19    0.10423      0.00000     0.39400    0.00177     0.39577
      H   20    0.09392      0.00000     0.40500    0.00108     0.40608
      H   21    0.09197      0.00000     0.40668    0.00135     0.40803
      H   22    0.09975      0.00000     0.39871    0.00154     0.40025
      H   23    0.09315      0.00000     0.40535    0.00151     0.40685
      H   24    0.09063      0.00000     0.40796    0.00141     0.40937
      H   25    0.07254      0.00000     0.42543    0.00203     0.42746
      H   26    0.07814      0.00000     0.41972    0.00213     0.42186
      H   27    0.09824      0.00000     0.39982    0.00194     0.40176
      H   28    0.09768      0.00000     0.39995    0.00237     0.40232
      H   29    0.09325      0.00000     0.40503    0.00172     0.40675
      H   30    0.10468      0.00000     0.39373    0.00159     0.39532
      H   31    0.09243      0.00000     0.40686    0.00072     0.40757
      H   32    0.10784      0.00000     0.39081    0.00135     0.39216
      H   33    0.09041      0.00000     0.40742    0.00216     0.40959
      H   34    0.07527      0.00000     0.42268    0.00205     0.42473
      H   35    0.17353      0.00000     0.32271    0.00377     0.32647
      H   36    0.17106      0.00000     0.32680    0.00214     0.32894
 =======================================================================
   * Total *    0.02766     21.99279    47.68264    0.29691    69.97234

 Normal termination of Gaussian 16 at Sat Dec 12 00:04:10 2020.
