 Gaussian 16, Revision A.03,

 -----------------------------------------------------------
 # opt freq B3LYP/6-31G(d) empiricaldispersion=gd3bj scf=xqc
 -----------------------------------------------------------

 -------------------------------
 CID_142940242_JID_9183_neutraal
 -------------------------------
 Symbolic Z-matrix:
 Charge =  0 Multiplicity = 1

 SCF Done:  E(RB3LYP) =  -750.968865539     A.U. after   15 cycles
 SCF Done:  E(RB3LYP) =  -750.975931767     A.U. after   13 cycles
 SCF Done:  E(RB3LYP) =  -750.976854547     A.U. after   12 cycles
 SCF Done:  E(RB3LYP) =  -750.977311481     A.U. after   12 cycles
 SCF Done:  E(RB3LYP) =  -750.977765149     A.U. after   12 cycles
 SCF Done:  E(RB3LYP) =  -750.977935760     A.U. after   12 cycles
 SCF Done:  E(RB3LYP) =  -750.978435516     A.U. after   11 cycles
 SCF Done:  E(RB3LYP) =  -750.979008994     A.U. after   14 cycles
 SCF Done:  E(RB3LYP) =  -750.979352839     A.U. after   12 cycles
 SCF Done:  E(RB3LYP) =  -750.978610187     A.U. after   14 cycles
 SCF Done:  E(RB3LYP) =  -750.979533076     A.U. after    9 cycles
 SCF Done:  E(RB3LYP) =  -750.979533963     A.U. after    9 cycles
 SCF Done:  E(RB3LYP) =  -750.979534882     A.U. after   10 cycles
 SCF Done:  E(RB3LYP) =  -750.979535721     A.U. after    9 cycles
 SCF Done:  E(RB3LYP) =  -750.979535944     A.U. after    8 cycles
 Optimization completed.
    -- Stationary point found.
 Normal termination of Gaussian 16 at Sun Dec 13 20:34:15 2020.

 --------------------------------------------------------------------
 #N Geom=AllCheck Guess=TCheck SCRF=Check GenChk RB3LYP/6-31G(d) Freq
 --------------------------------------------------------------------

 Structure from the checkpoint file:  "JID_9183.chk"
 -------------------------------
 CID_142940242_JID_9183_neutraal
 -------------------------------
 Charge =  0 Multiplicity = 1

 SCF Done:  E(RB3LYP) =  -750.979535944     A.U. after    1 cycles

  Exact polarizability: 276.560 -16.098 241.546   3.105  11.398 101.726
 Approx polarizability: 381.716 -38.939 435.073   6.759  28.393 170.398

                      1                      2                      3
                      A                      A                      A
 Frequencies --     16.3286                45.1737                58.8447
 Red. masses --      1.0246                 3.8511                 3.8502
 Frc consts  --      0.0002                 0.0046                 0.0079
 IR Inten    --      0.2174                 0.5343                 0.3212

                      4                      5                      6
                      A                      A                      A
 Frequencies --     63.3871               100.3875               124.6364
 Red. masses --      3.8023                 4.0265                 3.2395
 Frc consts  --      0.0090                 0.0239                 0.0296
 IR Inten    --      0.0690                 0.2238                 0.6100

                      7                      8                      9
                      A                      A                      A
 Frequencies --    170.4006               189.6234               196.5696
 Red. masses --      4.0649                 2.3008                 1.9153
 Frc consts  --      0.0695                 0.0487                 0.0436
 IR Inten    --      0.3112                 2.2658                 0.5218

                     10                     11                     12
                      A                      A                      A
 Frequencies --    234.4846               246.7423               294.1125
 Red. masses --      3.5030                 4.2152                 3.9023
 Frc consts  --      0.1135                 0.1512                 0.1989
 IR Inten    --      0.8520                 0.1848                 0.4830

                     13                     14                     15
                      A                      A                      A
 Frequencies --    325.8139               350.3788               367.8049
 Red. masses --      4.0910                 3.5652                 2.9338
 Frc consts  --      0.2559                 0.2579                 0.2338
 IR Inten    --      0.1540                 2.0976                 1.0966

                     16                     17                     18
                      A                      A                      A
 Frequencies --    420.3317               433.2450               454.9743
 Red. masses --      3.0667                 2.4911                 2.7158
 Frc consts  --      0.3192                 0.2755                 0.3312
 IR Inten    --      0.2376                 0.8540                 2.4866

                     19                     20                     21
                      A                      A                      A
 Frequencies --    470.9913               494.9424               508.1885
 Red. masses --      5.4211                 5.2696                 3.0739
 Frc consts  --      0.7085                 0.7606                 0.4677
 IR Inten    --      4.2346                 2.6865                 1.9873

                     22                     23                     24
                      A                      A                      A
 Frequencies --    540.8919               559.7709               602.0460
 Red. masses --      3.6269                 5.4637                 3.0807
 Frc consts  --      0.6252                 1.0087                 0.6579
 IR Inten    --      1.2002                 2.4756                 6.5441

                     25                     26                     27
                      A                      A                      A
 Frequencies --    619.2770               643.4903               653.1252
 Red. masses --      4.0355                 3.3502                 3.0377
 Frc consts  --      0.9118                 0.8174                 0.7635
 IR Inten    --      2.4448                 1.0137                 6.9398

                     28                     29                     30
                      A                      A                      A
 Frequencies --    666.8714               680.3886               719.6945
 Red. masses --      4.2614                 1.4321                 4.5924
 Frc consts  --      1.1166                 0.3906                 1.4015
 IR Inten    --      0.0393                 0.4069                 4.3217

                     31                     32                     33
                      A                      A                      A
 Frequencies --    737.8426               751.7550               762.4777
 Red. masses --      3.2120                 1.6701                 1.7787
 Frc consts  --      1.0303                 0.5561                 0.6093
 IR Inten    --      8.5161                29.2966                64.1669

                     34                     35                     36
                      A                      A                      A
 Frequencies --    770.0453               781.8878               818.8292
 Red. masses --      2.0311                 4.3641                 4.1495
 Frc consts  --      0.7096                 1.5719                 1.6392
 IR Inten    --      7.8182                 6.1566                 3.0835

                     37                     38                     39
                      A                      A                      A
 Frequencies --    842.2628               858.6537               862.5983
 Red. masses --      1.5789                 1.3527                 1.3648
 Frc consts  --      0.6599                 0.5876                 0.5983
 IR Inten    --     26.4159                 1.4312                 0.9753

                     40                     41                     42
                      A                      A                      A
 Frequencies --    903.7723               938.2667               943.7557
 Red. masses --      1.4709                 2.7149                 1.4686
 Frc consts  --      0.7079                 1.4082                 0.7707
 IR Inten    --     11.5624                 5.4012                 2.6840

                     43                     44                     45
                      A                      A                      A
 Frequencies --    948.4828               965.9050               970.3181
 Red. masses --      3.6442                 1.3417                 1.3018
 Frc consts  --      1.9316                 0.7375                 0.7221
 IR Inten    --     12.8857                 0.8329                 1.2429

                     46                     47                     48
                      A                      A                      A
 Frequencies --    977.0150              1010.2883              1020.3492
 Red. masses --      1.2698                 1.7020                 1.4158
 Frc consts  --      0.7141                 1.0236                 0.8685
 IR Inten    --      0.2050                 6.0007                 1.5377

                     49                     50                     51
                      A                      A                      A
 Frequencies --   1046.1197              1075.7640              1088.2059
 Red. masses --      2.7805                 1.5212                 2.2536
 Frc consts  --      1.7928                 1.0372                 1.5723
 IR Inten    --      2.9593                 9.7133                 9.2533

                     52                     53                     54
                      A                      A                      A
 Frequencies --   1114.1439              1151.4017              1156.7106
 Red. masses --      3.1606                 1.3138                 1.3199
 Frc consts  --      2.3115                 1.0262                 1.0405
 IR Inten    --     11.2550                 5.7975                 6.5279

                     55                     56                     57
                      A                      A                      A
 Frequencies --   1171.2612              1196.9797              1202.3452
 Red. masses --      1.7111                 2.2368                 1.1320
 Frc consts  --      1.3831                 1.8883                 0.9642
 IR Inten    --      1.7261                 2.9489                 2.6093

                     58                     59                     60
                      A                      A                      A
 Frequencies --   1220.3431              1222.8170              1246.3110
 Red. masses --      1.6810                 1.3323                 3.0536
 Frc consts  --      1.4750                 1.1738                 2.7946
 IR Inten    --     15.8475                 0.8487                 2.0948

                     61                     62                     63
                      A                      A                      A
 Frequencies --   1292.2719              1317.7386              1332.7348
 Red. masses --      1.7924                 1.6739                 3.3076
 Frc consts  --      1.7636                 1.7125                 3.4614
 IR Inten    --      0.0350                 0.2651                 2.1053

                     64                     65                     66
                      A                      A                      A
 Frequencies --   1352.8770              1363.4516              1368.7121
 Red. masses --      1.7389                 5.7249                 2.9884
 Frc consts  --      1.8752                 6.2705                 3.2984
 IR Inten    --      2.1172                25.1102                52.0107

                     67                     68                     69
                      A                      A                      A
 Frequencies --   1394.0236              1418.1090              1442.8083
 Red. masses --      3.8090                 3.1079                 1.2482
 Frc consts  --      4.3612                 3.6825                 1.5309
 IR Inten    --      6.8404                56.6820                 0.5746

                     70                     71                     72
                      A                      A                      A
 Frequencies --   1454.1685              1468.8147              1485.7725
 Red. masses --      2.3016                 1.4797                 1.4038
 Frc consts  --      2.8676                 1.8809                 1.8258
 IR Inten    --     10.3628                11.1852                21.0300

                     73                     74                     75
                      A                      A                      A
 Frequencies --   1506.3848              1516.5989              1522.6408
 Red. masses --      1.8508                 1.0499                 1.1070
 Frc consts  --      2.4744                 1.4228                 1.5122
 IR Inten    --     29.9083                 6.4604                 8.9096

                     76                     77                     78
                      A                      A                      A
 Frequencies --   1529.6707              1543.8264              1547.2140
 Red. masses --      1.2314                 1.1560                 1.8916
 Frc consts  --      1.6977                 1.6234                 2.6679
 IR Inten    --     47.2774                10.5515                 2.3188

                     79                     80                     81
                      A                      A                      A
 Frequencies --   1564.3446              1619.3971              1623.9831
 Red. masses --      2.5371                 5.0815                 5.5162
 Frc consts  --      3.6581                 7.8514                 8.5715
 IR Inten    --     19.0970                 6.8348                 5.1007

                     82                     83                     84
                      A                      A                      A
 Frequencies --   1645.6278              1664.2850              1676.2540
 Red. masses --      4.8792                 5.8000                 5.8859
 Frc consts  --      7.7851                 9.4652                 9.7441
 IR Inten    --    146.8431                 9.8390                 3.2048

                     85                     86                     87
                      A                      A                      A
 Frequencies --   1698.0405              3031.4524              3042.3112
 Red. masses --      6.6557                 1.0493                 1.0394
 Frc consts  --     11.3068                 5.6814                 5.6682
 IR Inten    --     99.1634                52.8402                40.2934

                     88                     89                     90
                      A                      A                      A
 Frequencies --   3097.1370              3116.8444              3126.2608
 Red. masses --      1.0977                 1.0867                 1.1019
 Frc consts  --      6.2035                 6.2200                 6.3449
 IR Inten    --     20.5580                23.1530                16.7256

                     91                     92                     93
                      A                      A                      A
 Frequencies --   3157.1996              3176.8669              3179.1937
 Red. masses --      1.1032                 1.0882                 1.0878
 Frc consts  --      6.4792                 6.4708                 6.4782
 IR Inten    --      8.4165                19.5620                21.7498

                     94                     95                     96
                      A                      A                      A
 Frequencies --   3188.9586              3201.5062              3203.2455
 Red. masses --      1.0864                 1.0912                 1.0668
 Frc consts  --      6.5093                 6.5896                 6.4495
 IR Inten    --      4.5548                18.3372                 3.8817

                     97                     98                     99
                      A                      A                      A
 Frequencies --   3204.3850              3206.6911              3209.9310
 Red. masses --      1.0926                 1.0919                 1.0850
 Frc consts  --      6.6101                 6.6151                 6.5866
 IR Inten    --      8.3984                17.9213                 4.3094

                    100                    101                    102
                      A                      A                      A
 Frequencies --   3225.2109              3234.0278              3286.0297
 Red. masses --      1.0926                 1.0915                 1.1158
 Frc consts  --      6.6962                 6.7264                 7.0986
 IR Inten    --     14.9579                14.1799                10.7755

 - Thermochemistry -
 -------------------
 Temperature   298.150 Kelvin.  Pressure   1.00000 Atm.
 Atom     1 has atomic number  6 and mass  12.00000

 Molecular mass:   247.13610 amu.
 Principal axes and moments of inertia in atomic units:
                           1         2         3
     Eigenvalues --  2537.467457672.048449736.95193
           X            0.99996  -0.00830   0.00147
           Y            0.00829   0.99995   0.00576
           Z           -0.00152  -0.00575   0.99998
 This molecule is an asymmetric top.
 Rotational symmetry number  1.
 Warning -- assumption of classical behavior for rotation
           may cause significant error
 Rotational temperatures (Kelvin)      0.03413     0.01129     0.00890
 Rotational constants (GHZ):           0.71124     0.23524     0.18535
 Zero-point vibrational energy     791011.7 (Joules/Mol)
                                  189.05633 (Kcal/Mol)
 Warning -- explicit consideration of  25 degrees of freedom as
           vibrations may cause significant error
 Vibrational temperatures:     23.49    64.99    84.66    91.20   144.44
          (Kelvin)            179.32   245.17   272.83   282.82   337.37
                              355.01   423.16   468.77   504.12   529.19
                              604.76   623.34   654.61   677.65   712.11
                              731.17   778.22   805.39   866.21   891.00
                              925.84   939.70   959.48   978.93  1035.48
                             1061.59  1081.61  1097.04  1107.92  1124.96
                             1178.11  1211.83  1235.41  1241.09  1300.33
                             1349.96  1357.85  1364.66  1389.72  1396.07
                             1405.71  1453.58  1468.05  1505.13  1547.78
                             1565.69  1603.00  1656.61  1664.25  1685.18
                             1722.19  1729.91  1755.80  1759.36  1793.16
                             1859.29  1895.93  1917.51  1946.49  1961.70
                             1969.27  2005.69  2040.34  2075.88  2092.22
                             2113.30  2137.70  2167.35  2182.05  2190.74
                             2200.85  2221.22  2226.10  2250.74  2329.95
                             2336.55  2367.69  2394.53  2411.76  2443.10
                             4361.58  4377.21  4456.09  4484.44  4497.99
                             4542.51  4570.80  4574.15  4588.20  4606.25
                             4608.76  4610.40  4613.71  4618.37  4640.36
                             4653.04  4727.86

 Zero-point correction=                           0.301280 (Hartree/Particle)
 Thermal correction to Energy=                    0.317502
 Thermal correction to Enthalpy=                  0.318446
 Thermal correction to Gibbs Free Energy=         0.256269
 Sum of electronic and zero-point Energies=           -750.678256
 Sum of electronic and thermal Energies=              -750.662034
 Sum of electronic and thermal Enthalpies=            -750.661090
 Sum of electronic and thermal Free Energies=         -750.723267

                     E (Thermal)             CV                S
                      KCal/Mol        Cal/Mol-Kelvin    Cal/Mol-Kelvin
 Total                  199.235             64.602            130.863
 Electronic               0.000              0.000              0.000
 Translational            0.889              2.981             42.415
 Rotational               0.889              2.981             33.605
 Vibrational            197.458             58.640             54.843
 Vibration     1          0.593              1.986              7.037
 Vibration     2          0.595              1.979              5.018
 Vibration     3          0.596              1.974              4.496
 Vibration     4          0.597              1.972              4.349
 Vibration     5          0.604              1.949              3.447
 Vibration     6          0.610              1.928              3.027
 Vibration     7          0.625              1.879              2.431
 Vibration     8          0.633              1.854              2.232
 Vibration     9          0.636              1.845              2.165
 Vibration    10          0.654              1.788              1.844
 Vibration    11          0.661              1.768              1.754
 Vibration    12          0.689              1.685              1.450
 Vibration    13          0.710              1.624              1.281
 Vibration    14          0.727              1.574              1.164
 Vibration    15          0.740              1.538              1.089
 Vibration    16          0.783              1.426              0.891
 Vibration    17          0.794              1.398              0.848
 Vibration    18          0.813              1.350              0.781
 Vibration    19          0.828              1.314              0.735
 Vibration    20          0.851              1.261              0.671
 Vibration    21          0.863              1.232              0.638
 Vibration    22          0.896              1.160              0.563
 Vibration    23          0.915              1.118              0.524
 Vibration    24          0.960              1.027              0.446
 Vibration    25          0.979              0.991              0.418

                           ! Non-Optimized Parameters !
 Normal termination of Gaussian 16 at Sun Dec 13 20:53:29 2020.

 ----------------------------------------------------------------------
 # B3LYP/6-311++G(d,p) empiricaldispersion=gd3bj scf=xqc pop=npa geom=c
 heck
 ----------------------------------------------------------------------

 ---------------------------------------
 CID_142940242_JID_9183_Energie_neutraal
 ---------------------------------------
 Structure from the checkpoint file:  "JID_9183.chk"
 Charge =  0 Multiplicity = 1

 SCF Done:  E(RB3LYP) =  -751.167293559     A.U. after   16 cycles
 Normal termination of Gaussian 16 at Sun Dec 13 21:02:15 2020.

 ----------------------------------------------------------------------
 # B3LYP/6-311++G(d,p) empiricaldispersion=gd3bj scf=xqc pop=npa geom=c
 heck
 ----------------------------------------------------------------------

 -------------------------------------
 CID_142940242_JID_9183_Energie_kation
 -------------------------------------
 Structure from the checkpoint file:  "JID_9183.chk"
 Charge =  1 Multiplicity = 2

 SCF Done:  E(UB3LYP) =  -750.927409345     A.U. after   23 cycles
 Normal termination of Gaussian 16 at Sun Dec 13 21:20:29 2020.
 Gaussian 16:  ES64L-G16RevA.03 25-Dec-2016

 ----------------------------------------------------------------------
 # B3LYP/6-311++G(d,p) empiricaldispersion=gd3bj scf=xqc pop=npa geom=c
 heck
 ----------------------------------------------------------------------

 ------------------------------------
 CID_142940242_JID_9183_Energie_anion
 ------------------------------------
 Structure from the checkpoint file:  "JID_9183.chk"
 Charge = -1 Multiplicity = 2

                         Standard orientation:
 ---------------------------------------------------------------------
 Center     Atomic      Atomic             Coordinates (Angstroms)
 Number     Number       Type             X           Y           Z
 ---------------------------------------------------------------------
      1          6           0       -5.778602    0.057735    0.151339
      2          6           0       -4.275271   -0.053956    0.084288
      3          6           0       -3.462467    0.650770    0.982874
      4          6           0       -2.076539    0.540080    0.940112
      5          6           0       -1.449573   -0.286057   -0.006998
      6          6           0       -2.260789   -0.988946   -0.906938
      7          6           0       -3.649170   -0.872872   -0.860531
      8          6           0        0.024513   -0.453772   -0.029315
      9          6           0        0.561491   -1.696739   -0.011962
     10          6           0        1.988393   -1.954365    0.013043
     11          6           0        2.475853   -3.214811   -0.098628
     12          7           0        2.801546   -0.822596    0.211519
     13          6           0        2.322343    0.470892    0.006772
     14          6           0        3.198025    1.564745   -0.106604
     15          6           0        2.706922    2.853864   -0.295118
     16          6           0        1.335574    3.083458   -0.397825
     17          6           0        0.460979    2.005584   -0.308790
     18          6           0        0.921691    0.698509   -0.095874
     19          6           0        4.196667   -1.039421    0.547604
     20          1           0       -6.182232   -0.516205    0.995737
     21          1           0       -6.097663    1.097277    0.287097
     22          1           0       -6.248516   -0.324175   -0.760335
     23          1           0       -3.924190    1.292510    1.729863
     24          1           0       -1.468689    1.087114    1.654548
     25          1           0       -1.793645   -1.617186   -1.659832
     26          1           0       -4.255826   -1.422392   -1.576355
     27          1           0       -0.085887   -2.567442    0.004854
     28          1           0        1.780293   -4.041407   -0.177356
     29          1           0        3.529982   -3.452931   -0.135541
     30          1           0        4.269616    1.412389   -0.082290
     31          1           0        3.409097    3.678373   -0.381641
     32          1           0        0.952224    4.085728   -0.561595
     33          1           0       -0.605457    2.167442   -0.415864
     34          1           0        4.570904   -0.199476    1.134584
     35          1           0        4.831096   -1.167942   -0.340525
     36          1           0        4.267833   -1.941696    1.159330
 ---------------------------------------------------------------------

 SCF Done:  E(UB3LYP) =  -751.167702108     A.U. after   33 cycles
 SCF Done:  E(UB3LYP) =  -751.167702108     a.u. after    1 cycles

 The electronic state is 2-A.
 Alpha  occ. eigenvalues --  -14.21766 -10.08680 -10.08338 -10.07278 -10.07026
 Alpha  occ. eigenvalues --  -10.05823 -10.05366 -10.05300 -10.04846 -10.04794
 Alpha  occ. eigenvalues --  -10.04557 -10.04034 -10.03677 -10.03581 -10.03414
 Alpha  occ. eigenvalues --  -10.02873 -10.02377 -10.00652 -10.00132  -0.83923
 Alpha  occ. eigenvalues --   -0.74134  -0.71863  -0.68505  -0.65272  -0.63459
 Alpha  occ. eigenvalues --   -0.62585  -0.61238  -0.59524  -0.56424  -0.55562
 Alpha  occ. eigenvalues --   -0.49673  -0.48466  -0.47706  -0.46960  -0.44226
 Alpha  occ. eigenvalues --   -0.40615  -0.39156  -0.37633  -0.35916  -0.34727
 Alpha  occ. eigenvalues --   -0.34167  -0.33866  -0.32678  -0.32146  -0.31227
 Alpha  occ. eigenvalues --   -0.30179  -0.30051  -0.29586  -0.28670  -0.28212
 Alpha  occ. eigenvalues --   -0.27286  -0.25849  -0.25618  -0.24585  -0.23640
 Alpha  occ. eigenvalues --   -0.22987  -0.22482  -0.21420  -0.21017  -0.19306
 Alpha  occ. eigenvalues --   -0.16650  -0.14006  -0.13695  -0.12347  -0.09895
 Alpha  occ. eigenvalues --   -0.05110   0.04904
 Alpha virt. eigenvalues --    0.07058   0.07973   0.08914   0.09179   0.09316
 Alpha virt. eigenvalues --    0.09622   0.10202   0.10506   0.11043   0.11085
 Alpha virt. eigenvalues --    0.11386   0.12050   0.12210   0.12520   0.13395

  Beta  occ. eigenvalues --  -14.21681 -10.08681 -10.08295 -10.07309 -10.07037
  Beta  occ. eigenvalues --  -10.05669 -10.05395 -10.05311 -10.04799 -10.04746
  Beta  occ. eigenvalues --  -10.04491 -10.04022 -10.03659 -10.03651 -10.03209
  Beta  occ. eigenvalues --  -10.02709 -10.02192 -10.00273  -9.99944  -0.83778
  Beta  occ. eigenvalues --   -0.73959  -0.71665  -0.68101  -0.65031  -0.63258
  Beta  occ. eigenvalues --   -0.62486  -0.61015  -0.59332  -0.56310  -0.55258
  Beta  occ. eigenvalues --   -0.49367  -0.48260  -0.47441  -0.46737  -0.44022
  Beta  occ. eigenvalues --   -0.40454  -0.38976  -0.37515  -0.35764  -0.34618
  Beta  occ. eigenvalues --   -0.34027  -0.33755  -0.32548  -0.31980  -0.31134
  Beta  occ. eigenvalues --   -0.30121  -0.29975  -0.29443  -0.28557  -0.28095
  Beta  occ. eigenvalues --   -0.27215  -0.25509  -0.25355  -0.24403  -0.23404
  Beta  occ. eigenvalues --   -0.22860  -0.22374  -0.21240  -0.20426  -0.19093
  Beta  occ. eigenvalues --   -0.15581  -0.13453  -0.13215  -0.11696  -0.08854
  Beta  occ. eigenvalues --   -0.03874
  Beta virt. eigenvalues --    0.06985   0.07926   0.08862   0.09042   0.09330
  Beta virt. eigenvalues --    0.09548   0.10267   0.10303   0.10486   0.11019
  Beta virt. eigenvalues --    0.11202   0.11820   0.12009   0.12406   0.12475

 Mulliken charges and spin densities:
               1          2
     1  C   -0.607523  -0.053728
     2  C    0.586333   0.051381
     3  C   -0.278098  -0.001737
     4  C   -0.823516   0.029485
     5  C    1.206776   0.075631
     6  C   -0.471785   0.062018
     7  C   -0.774154  -0.015434
     8  C    0.704417   0.066396
     9  C   -0.467596   0.285511
    10  C    0.499544  -0.032017
    11  C   -1.057137   0.205183
    12  N    0.228460   0.034725
    13  C    0.032171   0.048792
    14  C   -0.401549   0.000448
    15  C   -0.292605   0.159139
    16  C   -0.477026  -0.059804
    17  C   -0.530208   0.111712
    18  C    0.282211  -0.006987
    19  C   -0.410782  -0.013002
    20  H    0.091803   0.054229
    21  H    0.128238  -0.000353
    22  H    0.131831  -0.001229
    23  H    0.128996   0.013473
    24  H    0.155325  -0.000609
    25  H    0.153373   0.001683
    26  H    0.106182   0.003413
    27  H    0.144270  -0.017335
    28  H    0.103711  -0.005961
    29  H    0.082791  -0.009764
    30  H    0.104053  -0.000723
    31  H    0.109111  -0.012191
    32  H    0.108400   0.007095
    33  H    0.125799  -0.000838
    34  H    0.114428   0.001227
    35  H    0.149163   0.009055
    36  H    0.114596   0.011115
 Sum of Mulliken charges =  -1.00000   1.00000

 Dipole moment (field-independent basis, Debye):
    X=             -1.4693    Y=              1.4930    Z=              0.4125  Tot=              2.1350
 Quadrupole moment (field-independent basis, Debye-Ang):
   XX=           -148.5819   YY=           -143.5877   ZZ=           -126.8707
   XY=              1.6350   XZ=              3.4948   YZ=              2.7055

 Summary of Natural Population Analysis:

                                       Natural Population
                Natural  -----------------------------------------------
    Atom  No    Charge         Core      Valence    Rydberg      Total
 -----------------------------------------------------------------------
      C    1   -0.29171      0.99965     2.28748    0.00457     3.29171
      C    2   -0.00981      0.99953     2.00012    0.01016     3.00981
      C    3   -0.10809      0.99944     2.09960    0.00905     3.10809
      C    4   -0.08851      0.99954     2.08064    0.00833     3.08851
      C    5   -0.01070      0.99950     1.99968    0.01152     3.01070
      C    6   -0.08169      0.99952     2.07386    0.00830     3.08169
      C    7   -0.11215      0.99953     2.10456    0.00806     3.11215
      C    8    0.00321      0.99937     1.98440    0.01302     2.99679
      C    9   -0.02011      0.99941     2.01328    0.00742     3.02011
      C   10    0.08004      0.99951     1.91108    0.00937     2.91996
      C   11   -0.23698      0.99952     2.22783    0.00963     3.23698
      N   12   -0.21878      0.99960     2.70998    0.00920     3.71878
      C   13    0.11193      0.99947     1.87936    0.00924     2.88807
      C   14   -0.13165      0.99946     2.12395    0.00824     3.13165
      C   15   -0.06893      0.99960     2.05899    0.01034     3.06893
      C   16   -0.14365      0.99958     2.13411    0.00996     3.14365
      C   17   -0.05903      0.99947     2.05185    0.00771     3.05903
      C   18   -0.04163      0.99948     2.03185    0.01029     3.04163
      C   19   -0.17471      0.99962     2.16814    0.00695     3.17471
      H   20    0.09906      0.00000     0.39928    0.00166     0.40094
      H   21    0.09945      0.00000     0.40003    0.00052     0.40055
      H   22    0.09677      0.00000     0.40240    0.00083     0.40323
      H   23    0.09467      0.00000     0.40479    0.00055     0.40533
      H   24    0.10145      0.00000     0.39725    0.00130     0.39855
      H   25    0.09968      0.00000     0.39895    0.00137     0.40032
      H   26    0.09134      0.00000     0.40769    0.00097     0.40866
      H   27    0.09090      0.00000     0.40744    0.00166     0.40910
      H   28    0.09025      0.00000     0.40863    0.00112     0.40975
      H   29    0.08499      0.00000     0.41392    0.00108     0.41501
      H   30    0.09397      0.00000     0.40485    0.00118     0.40603
      H   31    0.08760      0.00000     0.41130    0.00109     0.41240
      H   32    0.09185      0.00000     0.40710    0.00105     0.40815
      H   33    0.09923      0.00000     0.39926    0.00151     0.40077
      H   34    0.09522      0.00000     0.40337    0.00141     0.40478
      H   35    0.08665      0.00000     0.41143    0.00192     0.41335
      H   36    0.10002      0.00000     0.39808    0.00190     0.39998
 =======================================================================
   * Total *    0.00015     18.99081    46.81654    0.19250    65.99985

 Normal termination of Gaussian 16 at Sun Dec 13 21:47:26 2020.
