 Gaussian 16, Revision A.03,

 -----------------------------------------------------------
 # opt freq B3LYP/6-31G(d) empiricaldispersion=gd3bj scf=xqc
 -----------------------------------------------------------

 ------------------------------
 CID_84084523_JID_8203_neutraal
 ------------------------------
 Symbolic Z-matrix:
 Charge =  0 Multiplicity = 1

 SCF Done:  E(RB3LYP) =  -770.890063592     A.U. after   14 cycles
 SCF Done:  E(RB3LYP) =  -770.894831109     A.U. after   12 cycles
 SCF Done:  E(RB3LYP) =  -770.894777144     A.U. after   12 cycles
 SCF Done:  E(RB3LYP) =  -770.895298443     A.U. after   11 cycles
 SCF Done:  E(RB3LYP) =  -770.895348690     A.U. after    9 cycles
 SCF Done:  E(RB3LYP) =  -770.895360755     A.U. after    9 cycles
 SCF Done:  E(RB3LYP) =  -770.895368683     A.U. after    8 cycles
 SCF Done:  E(RB3LYP) =  -770.895371448     A.U. after    8 cycles
 SCF Done:  E(RB3LYP) =  -770.895372776     A.U. after    8 cycles
 SCF Done:  E(RB3LYP) =  -770.895373654     A.U. after    7 cycles
 SCF Done:  E(RB3LYP) =  -770.895373806     A.U. after    6 cycles
 Optimization completed.
    -- Stationary point found.
 Normal termination of Gaussian 16 at Fri Dec 11 19:33:05 2020.

 --------------------------------------------------------------------
 #N Geom=AllCheck Guess=TCheck SCRF=Check GenChk RB3LYP/6-31G(d) Freq
 --------------------------------------------------------------------

 Structure from the checkpoint file:  "JID_8203.chk"
 ------------------------------
 CID_84084523_JID_8203_neutraal
 ------------------------------
 Charge =  0 Multiplicity = 1

 SCF Done:  E(RB3LYP) =  -770.895373806     A.U. after    1 cycles

  Exact polarizability: 190.607  -0.384 154.849  -2.326   1.349 133.252
 Approx polarizability: 231.340  -1.232 245.163  -2.202   3.275 207.612

                      1                      2                      3
                      A                      A                      A
 Frequencies --     31.8723                58.5840                83.2878
 Red. masses --      4.0974                 3.4654                 3.9658
 Frc consts  --      0.0025                 0.0070                 0.0162
 IR Inten    --      0.8092                 1.1962                 0.2877

                      4                      5                      6
                      A                      A                      A
 Frequencies --    113.7524               127.5474               158.5438
 Red. masses --      3.2165                 3.2804                 3.1901
 Frc consts  --      0.0245                 0.0314                 0.0472
 IR Inten    --      3.3297                 6.2089                 0.8781

                      7                      8                      9
                      A                      A                      A
 Frequencies --    205.2776               224.6689               227.3843
 Red. masses --      2.9063                 3.7319                 2.6117
 Frc consts  --      0.0722                 0.1110                 0.0796
 IR Inten    --      3.6610                 3.8615                13.6799

                     10                     11                     12
                      A                      A                      A
 Frequencies --    270.7840               289.3885               330.4210
 Red. masses --      3.0229                 1.4454                 2.0303
 Frc consts  --      0.1306                 0.0713                 0.1306
 IR Inten    --      3.7719                45.1567                 0.1605

                     13                     14                     15
                      A                      A                      A
 Frequencies --    365.5065               380.6538               402.6469
 Red. masses --      2.8142                 1.9847                 2.6734
 Frc consts  --      0.2215                 0.1694                 0.2554
 IR Inten    --      0.9064                 0.2039                 5.9210

                     16                     17                     18
                      A                      A                      A
 Frequencies --    421.0464               434.5195               449.8228
 Red. masses --      3.3503                 3.3309                 1.8066
 Frc consts  --      0.3499                 0.3705                 0.2154
 IR Inten    --      1.7518                 1.9173                 0.2380

                     19                     20                     21
                      A                      A                      A
 Frequencies --    462.3963               476.2964               536.5998
 Red. masses --      2.0162                 3.9912                 3.1913
 Frc consts  --      0.2540                 0.5335                 0.5414
 IR Inten    --      1.4462                 0.9595                10.9965

                     22                     23                     24
                      A                      A                      A
 Frequencies --    587.4983               630.8015               640.9146
 Red. masses --      3.6801                 4.0674                 4.0701
 Frc consts  --      0.7484                 0.9536                 0.9850
 IR Inten    --      4.7730                 2.5292                 3.9515

                     25                     26                     27
                      A                      A                      A
 Frequencies --    650.1542               675.6375               719.1951
 Red. masses --      3.5048                 3.6939                 4.6378
 Frc consts  --      0.8729                 0.9935                 1.4134
 IR Inten    --      0.4150                 2.5969                 2.2859

                     28                     29                     30
                      A                      A                      A
 Frequencies --    774.6483               805.1002               825.8255
 Red. masses --      4.3132                 3.0309                 2.7632
 Frc consts  --      1.5250                 1.1575                 1.1103
 IR Inten    --      0.3040                 0.4273                 1.3999

                     31                     32                     33
                      A                      A                      A
 Frequencies --    830.8481               842.1121               866.3604
 Red. masses --      2.7889                 2.9244                 1.4423
 Frc consts  --      1.1343                 1.2219                 0.6378
 IR Inten    --      1.1408                 1.2309                64.8375

                     34                     35                     36
                      A                      A                      A
 Frequencies --    878.8335               902.2449               905.0572
 Red. masses --      2.1176                 1.6090                 1.5725
 Frc consts  --      0.9636                 0.7717                 0.7589
 IR Inten    --     60.0360                 0.3088                 0.2523

                     37                     38                     39
                      A                      A                      A
 Frequencies --    915.6722               924.7911               930.1002
 Red. masses --      2.1814                 2.1280                 1.5317
 Frc consts  --      1.0776                 1.0723                 0.7807
 IR Inten    --      1.3976                 0.0950                31.1716

                     40                     41                     42
                      A                      A                      A
 Frequencies --    967.4915               975.7459               978.3143
 Red. masses --      1.9843                 1.5353                 2.0193
 Frc consts  --      1.0944                 0.8612                 1.1387
 IR Inten    --      2.8241                 3.6669                 8.8505

                     43                     44                     45
                      A                      A                      A
 Frequencies --   1002.3439              1034.9862              1042.6929
 Red. masses --      2.0771                 3.0951                 3.0768
 Frc consts  --      1.2295                 1.9534                 1.9709
 IR Inten    --      1.3464                 2.7112                 1.6282

                     46                     47                     48
                      A                      A                      A
 Frequencies --   1052.3515              1057.7818              1070.1360
 Red. masses --      1.9811                 2.2437                 2.9613
 Frc consts  --      1.2927                 1.4791                 1.9981
 IR Inten    --      0.1551                 0.2649                 0.7985

                     49                     50                     51
                      A                      A                      A
 Frequencies --   1085.2380              1097.4413              1098.8635
 Red. masses --      1.8628                 1.8945                 2.0216
 Frc consts  --      1.2926                 1.3443                 1.4383
 IR Inten    --      1.3688                13.0523                 6.8517

                     52                     53                     54
                      A                      A                      A
 Frequencies --   1104.3598              1128.4474              1132.1481
 Red. masses --      1.9387                 1.6335                 1.6327
 Frc consts  --      1.3931                 1.2256                 1.2330
 IR Inten    --      2.4858                 3.6615                 3.7840

                     55                     56                     57
                      A                      A                      A
 Frequencies --   1143.9518              1146.5968              1149.1314
 Red. masses --      1.0182                 1.1609                 1.0931
 Frc consts  --      0.7851                 0.8993                 0.8504
 IR Inten    --      0.3370                 2.4356                 3.8043

                     58                     59                     60
                      A                      A                      A
 Frequencies --   1149.4110              1187.3289              1208.2980
 Red. masses --      1.4797                 1.3537                 1.2932
 Frc consts  --      1.1518                 1.1244                 1.1124
 IR Inten    --      0.8462                 9.2265                10.2807

                     61                     62                     63
                      A                      A                      A
 Frequencies --   1222.2585              1248.1882              1258.6136
 Red. masses --      1.3092                 1.3645                 1.4028
 Frc consts  --      1.1524                 1.2525                 1.3093
 IR Inten    --      7.7615                 4.5678                20.0718

                     64                     65                     66
                      A                      A                      A
 Frequencies --   1266.8911              1276.9506              1288.1848
 Red. masses --      1.5993                 1.6149                 1.3899
 Frc consts  --      1.5124                 1.5515                 1.3589
 IR Inten    --     14.1254                97.4019                 1.8066

                     67                     68                     69
                      A                      A                      A
 Frequencies --   1298.5965              1323.9637              1330.7565
 Red. masses --      1.6887                 1.8049                 1.7215
 Frc consts  --      1.6778                 1.8641                 1.7962
 IR Inten    --      3.4591                 5.9592                 4.7931

                     70                     71                     72
                      A                      A                      A
 Frequencies --   1341.7095              1349.9631              1351.1354
 Red. masses --      1.4400                 1.8987                 1.9592
 Frc consts  --      1.5273                 2.0387                 2.1073
 IR Inten    --     56.0579                 1.3406                 2.8129

                     73                     74                     75
                      A                      A                      A
 Frequencies --   1360.7610              1362.6597              1365.6413
 Red. masses --      1.8705                 1.4704                 1.4681
 Frc consts  --      2.0406                 1.6086                 1.6132
 IR Inten    --      1.9624                29.8396                10.2902

                     76                     77                     78
                      A                      A                      A
 Frequencies --   1369.9377              1371.0491              1392.9983
 Red. masses --      1.3175                 1.3187                 1.3952
 Frc consts  --      1.4568                 1.4605                 1.5951
 IR Inten    --      0.1242                 0.3577                10.2510

                     79                     80                     81
                      A                      A                      A
 Frequencies --   1397.3711              1405.8961              1410.8876
 Red. masses --      1.4468                 1.4215                 1.4349
 Frc consts  --      1.6645                 1.6554                 1.6829
 IR Inten    --      0.8390                 1.7925                 1.4148

                     82                     83                     84
                      A                      A                      A
 Frequencies --   1419.8246              1424.1819              1445.3982
 Red. masses --      1.5491                 1.5919                 1.7101
 Frc consts  --      1.8399                 1.9024                 2.1050
 IR Inten    --      1.7241                 1.3853                39.5057

                     85                     86                     87
                      A                      A                      A
 Frequencies --   1455.0325              1460.3808              1502.9288
 Red. masses --      1.5010                 1.6736                 1.0957
 Frc consts  --      1.8723                 2.1030                 1.4582
 IR Inten    --     17.6716                58.5753                 3.0535

                     88                     89                     90
                      A                      A                      A
 Frequencies --   1511.3856              1515.6252              1524.1904
 Red. masses --      1.0884                 1.0955                 1.0977
 Frc consts  --      1.4648                 1.4827                 1.5024
 IR Inten    --      0.7936                 0.7392                 9.5237

                     91                     92                     93
                      A                      A                      A
 Frequencies --   1527.8543              1538.7872              1544.7836
 Red. masses --      1.0976                 1.0863                 1.0923
 Frc consts  --      1.5096                 1.5155                 1.5357
 IR Inten    --      7.1249                 3.4687                 8.5750

                     94                     95                     96
                      A                      A                      A
 Frequencies --   1560.4876              1699.2498              1796.0736
 Red. masses --      1.0941                 1.0893                11.7379
 Frc consts  --      1.5697                 1.8532                22.3094
 IR Inten    --     10.9620                32.0733               309.1380

                     97                     98                     99
                      A                      A                      A
 Frequencies --   2934.2219              2999.9986              3025.9520
 Red. masses --      1.0732                 1.0716                 1.0637
 Frc consts  --      5.4441                 5.6823                 5.7383
 IR Inten    --     67.3481                47.4270                12.7220

                    100                    101                    102
                      A                      A                      A
 Frequencies --   3031.1630              3031.8581              3032.9801
 Red. masses --      1.0643                 1.0667                 1.0710
 Frc consts  --      5.7612                 5.7769                 5.8046
 IR Inten    --      8.9683                 4.9149                12.6948

                    103                    104                    105
                      A                      A                      A
 Frequencies --   3034.5966              3037.0296              3045.8263
 Red. masses --      1.0624                 1.0718                 1.0797
 Frc consts  --      5.7641                 5.8244                 5.9014
 IR Inten    --     30.4007                20.9794                94.3179

                    106                    107                    108
                      A                      A                      A
 Frequencies --   3049.5718              3053.7755              3057.7216
 Red. masses --      1.0808                 1.0831                 1.0858
 Frc consts  --      5.9223                 5.9510                 5.9812
 IR Inten    --    114.7299                33.0742                28.0699

                    109                    110                    111
                      A                      A                      A
 Frequencies --   3059.6375              3064.9331              3068.5768
 Red. masses --      1.0810                 1.1044                 1.1042
 Frc consts  --      5.9622                 6.1126                 6.1257
 IR Inten    --     59.5017                26.0489                38.0912

                    112                    113                    114
                      A                      A                      A
 Frequencies --   3072.1956              3073.6942              3076.7959
 Red. masses --      1.0860                 1.1045                 1.1031
 Frc consts  --      6.0391                 6.1480                 6.1529
 IR Inten    --     22.8280                55.7173                74.4728

                    115                    116                    117
                      A                      A                      A
 Frequencies --   3098.2298              3102.1687              3111.4467
 Red. masses --      1.0862                 1.0928                 1.0902
 Frc consts  --      6.1434                 6.1964                 6.2184
 IR Inten    --     13.4984                48.5688                39.0234

                    118                    119                    120
                      A                      A                      A
 Frequencies --   3134.7146              3468.6421              3552.7827
 Red. masses --      1.0932                 1.0499                 1.0921
 Frc consts  --      6.3290                 7.4427                 8.1221
 IR Inten    --     12.2786                 1.5609                 0.5838

 - Thermochemistry -
 -------------------
 Temperature   298.150 Kelvin.  Pressure   1.00000 Atm.
 Atom     1 has atomic number  6 and mass  12.00000

 Molecular mass:   248.18886 amu.
 Principal axes and moments of inertia in atomic units:
                           1         2         3
     Eigenvalues --  1923.367807095.203737852.19667
           X            0.99997   0.00735  -0.00382
           Y           -0.00735   0.99997  -0.00085
           Z            0.00381   0.00088   0.99999
 This molecule is an asymmetric top.
 Rotational symmetry number  1.
 Warning -- assumption of classical behavior for rotation
           may cause significant error
 Rotational temperatures (Kelvin)      0.04503     0.01221     0.01103
 Rotational constants (GHZ):           0.93832     0.25436     0.22984
 Zero-point vibrational energy    1006711.2 (Joules/Mol)
                                  240.60975 (Kcal/Mol)
 Warning -- explicit consideration of  22 degrees of freedom as
           vibrations may cause significant error
 Vibrational temperatures:     45.86    84.29   119.83   163.66   183.51
          (Kelvin)            228.11   295.35   323.25   327.16   389.60
                              416.37   475.40   525.88   547.68   579.32
                              605.79   625.18   647.19   665.29   685.28
                              772.05   845.28   907.58   922.13   935.43
                              972.09  1034.76  1114.55  1158.36  1188.18
                             1195.41  1211.61  1246.50  1264.45  1298.13
                             1302.18  1317.45  1330.57  1338.21  1392.00
                             1403.88  1407.58  1442.15  1489.11  1500.20
                             1514.10  1521.91  1539.69  1561.42  1578.97
                             1581.02  1588.93  1623.58  1628.91  1645.89
                             1649.70  1653.34  1653.75  1708.30  1738.47
                             1758.56  1795.86  1810.86  1822.77  1837.25
                             1853.41  1868.39  1904.89  1914.66  1930.42
                             1942.30  1943.98  1957.83  1960.56  1964.85
                             1971.03  1972.63  2004.21  2010.51  2022.77
                             2029.95  2042.81  2049.08  2079.61  2093.47
                             2101.16  2162.38  2174.55  2180.65  2192.97
                             2198.24  2213.97  2222.60  2245.19  2444.84
                             2584.15  4221.69  4316.33  4353.67  4361.17
                             4362.17  4363.78  4366.11  4369.61  4382.26
                             4387.65  4393.70  4399.38  4402.14  4409.76
                             4415.00  4420.20  4422.36  4426.82  4457.66
                             4463.33  4476.68  4510.16  4990.60  5111.66

 Zero-point correction=                           0.383436 (Hartree/Particle)
 Thermal correction to Energy=                    0.398531
 Thermal correction to Enthalpy=                  0.399475
 Thermal correction to Gibbs Free Energy=         0.341292
 Sum of electronic and zero-point Energies=           -770.511938
 Sum of electronic and thermal Energies=              -770.496843
 Sum of electronic and thermal Enthalpies=            -770.495899
 Sum of electronic and thermal Free Energies=         -770.554082

                     E (Thermal)             CV                S
                      KCal/Mol        Cal/Mol-Kelvin    Cal/Mol-Kelvin
 Total                  250.082             62.921            122.458
 Electronic               0.000              0.000              0.000
 Translational            0.889              2.981             42.428
 Rotational               0.889              2.981             33.038
 Vibrational            248.304             56.960             46.992
 Vibration     1          0.594              1.983              5.709
 Vibration     2          0.596              1.974              4.504
 Vibration     3          0.600              1.961              3.812
 Vibration     4          0.607              1.938              3.204
 Vibration     5          0.611              1.926              2.983
 Vibration     6          0.621              1.893              2.567
 Vibration     7          0.640              1.832              2.085
 Vibration     8          0.649              1.803              1.921
 Vibration     9          0.651              1.799              1.900
 Vibration    10          0.674              1.727              1.591
 Vibration    11          0.686              1.693              1.478
 Vibration    12          0.713              1.615              1.258
 Vibration    13          0.739              1.543              1.099
 Vibration    14          0.750              1.511              1.037
 Vibration    15          0.768              1.464              0.953
 Vibration    16          0.784              1.424              0.888
 Vibration    17          0.795              1.395              0.844
 Vibration    18          0.809              1.361              0.796
 Vibration    19          0.820              1.333              0.759
 Vibration    20          0.833              1.303              0.720
 Vibration    21          0.892              1.169              0.573
 Vibration    22          0.945              1.058              0.472

 Optimization completed.
    -- Stationary point found.
 Normal termination of Gaussian 16 at Fri Dec 11 19:56:16 2020.

 ----------------------------------------------------------------------
 # B3LYP/6-311++G(d,p) empiricaldispersion=gd3bj scf=xqc pop=npa geom=c
 heck
 ----------------------------------------------------------------------

 --------------------------------------
 CID_84084523_JID_8203_Energie_neutraal
 --------------------------------------
 Structure from the checkpoint file:  "JID_8203.chk"
 Charge =  0 Multiplicity = 1

 SCF Done:  E(RB3LYP) =  -771.108075413     A.U. after   15 cycles
 Normal termination of Gaussian 16 at Fri Dec 11 20:06:19 2020.

 ----------------------------------------------------------------------
 # B3LYP/6-311++G(d,p) empiricaldispersion=gd3bj scf=xqc pop=npa geom=c
 heck
 ----------------------------------------------------------------------

 ------------------------------------
 CID_84084523_JID_8203_Energie_kation
 ------------------------------------
 Structure from the checkpoint file:  "JID_8203.chk"
 Charge =  1 Multiplicity = 2

 SCF Done:  E(UB3LYP) =  -770.808607328     A.U. after   25 cycles
 Normal termination of Gaussian 16 at Fri Dec 11 20:29:32 2020.
 Gaussian 16:  ES64L-G16RevA.03 25-Dec-2016

 ----------------------------------------------------------------------
 # B3LYP/6-311++G(d,p) empiricaldispersion=gd3bj scf=xqc pop=npa geom=c
 heck
 ----------------------------------------------------------------------

 -----------------------------------
 CID_84084523_JID_8203_Energie_anion
 -----------------------------------
 Structure from the checkpoint file:  "JID_8203.chk"
 Charge = -1 Multiplicity = 2

                         Standard orientation:
 ---------------------------------------------------------------------
 Center     Atomic      Atomic             Coordinates (Angstroms)
 Number     Number       Type             X           Y           Z
 ---------------------------------------------------------------------
      1          6           0        3.677965   -0.949400    0.541371
      2          6           0        3.553370    0.288890   -0.366118
      3          6           0        2.823900    1.402524    0.407728
      4          6           0        1.413561    0.922816    0.799341
      5          6           0        1.518475   -0.330038    1.685741
      6          6           0        2.273453   -1.443806    0.934482
      7          6           0        1.490646   -1.808590   -0.339202
      8          6           0        1.333436   -0.560411   -1.235086
      9          6           0        2.746846   -0.075779   -1.629418
     10          6           0        0.643301    0.610008   -0.505505
     11          7           0       -0.798260    0.443377   -0.290895
     12          6           0       -1.568968   -0.794544   -0.282730
     13          6           0       -3.033762   -0.322123   -0.403942
     14          6           0       -2.998798    1.093125    0.190916
     15          6           0       -1.561025    1.554175   -0.033517
     16          8           0       -1.140003    2.701535    0.019917
     17          6           0       -4.024653   -1.276795    0.253306
     18          7           0       -5.399783   -0.840357    0.000854
     19          1           0        4.255980   -0.697651    1.440624
     20          1           0        4.223214   -1.748389    0.020883
     21          1           0        4.552598    0.634150   -0.660265
     22          1           0        2.750978    2.310527   -0.204615
     23          1           0        3.392051    1.667764    1.309022
     24          1           0        0.883493    1.722918    1.323619
     25          1           0        0.517074   -0.677771    1.972111
     26          1           0        2.044307   -0.080195    2.616741
     27          1           0        2.360368   -2.330056    1.575998
     28          1           0        2.028321   -2.583237   -0.902286
     29          1           0        0.521939   -2.237733   -0.067863
     30          1           0        0.768846   -0.812928   -2.141736
     31          1           0        2.675116    0.793850   -2.295098
     32          1           0        3.262206   -0.868044   -2.188008
     33          1           0        0.720641    1.500487   -1.140102
     34          1           0       -1.412968   -1.357502    0.650487
     35          1           0       -1.286875   -1.446478   -1.113873
     36          1           0       -3.290378   -0.245632   -1.466762
     37          1           0       -3.187006    1.082629    1.274720
     38          1           0       -3.702134    1.794787   -0.262831
     39          1           0       -3.906497   -2.277103   -0.183101
     40          1           0       -3.765864   -1.366911    1.326046
     41          1           0       -6.054116   -1.511477    0.398766
     42          1           0       -5.571458    0.040257    0.484259
 ---------------------------------------------------------------------

 SCF Done:  E(UB3LYP) =  -771.099730989     A.U. after   32 cycles

 The electronic state is 2-A.
 Alpha  occ. eigenvalues --  -18.99376 -14.24668 -14.20477 -10.17266 -10.11735
 Alpha  occ. eigenvalues --  -10.11336 -10.10319 -10.09171 -10.08631 -10.08618
 Alpha  occ. eigenvalues --  -10.08066 -10.07724 -10.07578 -10.07511 -10.07212
 Alpha  occ. eigenvalues --  -10.06988 -10.06983 -10.06942  -0.94463  -0.85566
 Alpha  occ. eigenvalues --   -0.79752  -0.78058  -0.71570  -0.68192  -0.67958
 Alpha  occ. eigenvalues --   -0.66623  -0.63127  -0.59420  -0.57751  -0.56123
 Alpha  occ. eigenvalues --   -0.50547  -0.50065  -0.49741  -0.48680  -0.45647
 Alpha  occ. eigenvalues --   -0.43139  -0.41836  -0.39762  -0.38759  -0.37704
 Alpha  occ. eigenvalues --   -0.37120  -0.36218  -0.35966  -0.34709  -0.33842
 Alpha  occ. eigenvalues --   -0.33415  -0.32587  -0.32137  -0.31530  -0.31031
 Alpha  occ. eigenvalues --   -0.30612  -0.30477  -0.30072  -0.28760  -0.26862
 Alpha  occ. eigenvalues --   -0.25887  -0.25329  -0.24616  -0.24287  -0.23961
 Alpha  occ. eigenvalues --   -0.23873  -0.23652  -0.20067  -0.19750  -0.19492
 Alpha  occ. eigenvalues --   -0.16144  -0.15869  -0.14623   0.03699
 Alpha virt. eigenvalues --    0.05221   0.06713   0.06883   0.07635   0.07954
 Alpha virt. eigenvalues --    0.08259   0.09098   0.09189   0.09556   0.10196
 Alpha virt. eigenvalues --    0.10381   0.10882   0.11067   0.12073   0.12238

  Beta  occ. eigenvalues --  -18.99374 -14.24667 -14.20441 -10.17265 -10.11716
  Beta  occ. eigenvalues --  -10.11335 -10.10288 -10.09168 -10.08618 -10.08612
  Beta  occ. eigenvalues --  -10.08061 -10.07717 -10.07577 -10.07497 -10.07204
  Beta  occ. eigenvalues --  -10.06972 -10.06967 -10.06928  -0.94459  -0.85559
  Beta  occ. eigenvalues --   -0.79695  -0.78036  -0.71548  -0.68173  -0.67934
  Beta  occ. eigenvalues --   -0.66599  -0.63096  -0.59377  -0.57719  -0.56071
  Beta  occ. eigenvalues --   -0.50524  -0.50029  -0.49716  -0.48634  -0.45617
  Beta  occ. eigenvalues --   -0.43099  -0.41810  -0.39729  -0.38707  -0.37681
  Beta  occ. eigenvalues --   -0.37090  -0.36195  -0.35920  -0.34682  -0.33808
  Beta  occ. eigenvalues --   -0.33392  -0.32561  -0.32119  -0.31511  -0.31011
  Beta  occ. eigenvalues --   -0.30588  -0.30453  -0.30048  -0.28735  -0.26830
  Beta  occ. eigenvalues --   -0.25862  -0.25299  -0.24591  -0.24268  -0.23945
  Beta  occ. eigenvalues --   -0.23854  -0.23633  -0.20042  -0.19725  -0.19464
  Beta  occ. eigenvalues --   -0.16134  -0.15829  -0.14612
  Beta virt. eigenvalues --    0.05662   0.06295   0.07228   0.07416   0.07997
  Beta virt. eigenvalues --    0.08417   0.08619   0.09304   0.09507   0.09826
  Beta virt. eigenvalues --    0.10302   0.10654   0.11127   0.11383   0.12249

 Mulliken charges and spin densities:
               1          2
     1  C    0.657894  -1.357831
     2  C   -0.201050   0.645587
     3  C   -0.437389  -0.459809
     4  C    0.502996   0.305173
     5  C   -0.294935  -0.496553
     6  C   -0.008862   0.409099
     7  C    0.397938  -0.941627
     8  C   -0.114345   0.671820
     9  C   -0.145280  -0.784549
    10  C   -0.806852  -0.446572
    11  N    0.431217   0.038948
    12  C   -0.354872  -0.244618
    13  C   -0.315146   0.679479
    14  C   -0.195887  -0.470617
    15  C    0.004927   0.065315
    16  O   -0.313545  -0.002998
    17  C    1.281356  -1.870163
    18  N   -0.519381   0.188256
    19  H   -0.033752   0.174267
    20  H   -0.102968   0.253235
    21  H   -0.085197   0.312300
    22  H    0.080835   0.058869
    23  H    0.018599   0.124665
    24  H    0.305929  -0.031407
    25  H   -0.218245   0.332941
    26  H   -0.022989   0.198697
    27  H   -0.135868   0.374178
    28  H   -0.175935   0.359405
    29  H   -0.418792   0.566432
    30  H   -0.003805   0.237928
    31  H    0.028933   0.092207
    32  H   -0.181769   0.353717
    33  H    0.269144   0.013983
    34  H    0.647960  -0.461743
    35  H    0.133463   0.040412
    36  H    0.086649   0.120801
    37  H   -0.010105   0.211606
    38  H    0.181604   0.011944
    39  H   -0.374738   0.553107
    40  H   -0.421767   0.567955
    41  H   -0.164482   0.411568
    42  H    0.028511   0.194593
 Sum of Mulliken charges =  -1.00000   1.00000

 Dipole moment (field-independent basis, Debye):
    X=              3.4110    Y=              2.9832    Z=             -0.9547  Tot=              4.6310
 Quadrupole moment (field-independent basis, Debye-Ang):
   XX=           -211.4103   YY=           -165.5794   ZZ=           -147.0625
   XY=             -4.6781   XZ=              4.6589   YZ=              1.0743

 Summary of Natural Population Analysis:

                                       Natural Population
                Natural  -----------------------------------------------
    Atom  No    Charge         Core      Valence    Rydberg      Total
 -----------------------------------------------------------------------
      C    1   -0.18744      0.99960     2.17795    0.00989     3.18744
      C    2   -0.11186      0.99959     2.10107    0.01120     3.11186
      C    3   -0.18740      0.99960     2.17808    0.00972     3.18740
      C    4   -0.11539      0.99957     2.10466    0.01116     3.11539
      C    5   -0.18948      0.99960     2.18011    0.00977     3.18948
      C    6   -0.11158      0.99959     2.09998    0.01201     3.11158
      C    7   -0.19099      0.99960     2.18123    0.01016     3.19099
      C    8   -0.11437      0.99958     2.10329    0.01150     3.11437
      C    9   -0.18449      0.99961     2.17518    0.00971     3.18449
      C   10    0.00008      0.99953     1.98629    0.01410     2.99992
      N   11   -0.25572      0.99961     2.74543    0.01068     3.75572
      C   12   -0.07479      0.99960     2.06515    0.01004     3.07479
      C   13   -0.11616      0.99960     2.10523    0.01134     3.11616
      C   14   -0.23163      0.99958     2.22355    0.00850     3.23163
      C   15    0.35056      0.99964     1.62737    0.02243     2.64944
      O   16   -0.32731      0.99988     3.32231    0.00513     4.32731
      C   17   -0.08445      0.99960     2.07292    0.01192     3.08445
      N   18   -0.42125      0.99977     2.91108    0.01040     3.92125
      H   19    0.09781      0.00000     0.40113    0.00106     0.40219
      H   20    0.09938      0.00000     0.39946    0.00116     0.40062
      H   21    0.09890      0.00000     0.39973    0.00137     0.40110
      H   22    0.09970      0.00000     0.39938    0.00092     0.40030
      H   23    0.09894      0.00000     0.40017    0.00089     0.40106
      H   24    0.11105      0.00000     0.38763    0.00132     0.38895
      H   25    0.10037      0.00000     0.39811    0.00152     0.39963
      H   26    0.09909      0.00000     0.39997    0.00094     0.40091
      H   27    0.10064      0.00000     0.39793    0.00143     0.39936
      H   28    0.10061      0.00000     0.39804    0.00135     0.39939
      H   29    0.10158      0.00000     0.39675    0.00167     0.39842
      H   30    0.10298      0.00000     0.39562    0.00140     0.39702
      H   31    0.09831      0.00000     0.40076    0.00093     0.40169
      H   32    0.10085      0.00000     0.39809    0.00106     0.39915
      H   33    0.10787      0.00000     0.39050    0.00163     0.39213
      H   34    0.09145      0.00000     0.40670    0.00184     0.40855
      H   35    0.09965      0.00000     0.39879    0.00156     0.40035
      H   36    0.10169      0.00000     0.39682    0.00149     0.39831
      H   37    0.10828      0.00000     0.39047    0.00125     0.39172
      H   38    0.11079      0.00000     0.38826    0.00095     0.38921
      H   39    0.09357      0.00000     0.40498    0.00146     0.40643
      H   40    0.08004      0.00000     0.41737    0.00259     0.41996
      H   41    0.17829      0.00000     0.31921    0.00250     0.32171
      H   42    0.17184      0.00000     0.32626    0.00190     0.32816
 =======================================================================
   * Total *    0.00000     17.99315    49.77300    0.23385    68.00000

 Normal termination of Gaussian 16 at Fri Dec 11 20:59:01 2020.
