 Gaussian 16, Revision A.03,

 -----------------------------------------------------------
 # opt freq B3LYP/6-31G(d) empiricaldispersion=gd3bj scf=xqc
 -----------------------------------------------------------

 -----------------------------
 CID_5080342_JID_5175_neutraal
 -----------------------------
 Symbolic Z-matrix:
 Charge =  0 Multiplicity = 1

 SCF Done:  E(RB3LYP) =  -1044.03273170     A.U. after   15 cycles
 SCF Done:  E(RB3LYP) =  -1044.03863321     A.U. after   14 cycles
 SCF Done:  E(RB3LYP) =  -1044.03961933     A.U. after   14 cycles
 SCF Done:  E(RB3LYP) =  -1044.04172619     A.U. after   13 cycles
 SCF Done:  E(RB3LYP) =  -1044.04315281     A.U. after   13 cycles
 SCF Done:  E(RB3LYP) =  -1044.04472809     A.U. after   13 cycles
 SCF Done:  E(RB3LYP) =  -1044.04757968     A.U. after   14 cycles
 SCF Done:  E(RB3LYP) =  -1044.05221662     A.U. after   15 cycles
 SCF Done:  E(RB3LYP) =  -1044.05440424     A.U. after   14 cycles
 SCF Done:  E(RB3LYP) =  -1044.05739211     A.U. after   13 cycles
 SCF Done:  E(RB3LYP) =  -1044.05865862     A.U. after   12 cycles
 SCF Done:  E(RB3LYP) =  -1044.05875817     A.U. after   11 cycles
 SCF Done:  E(RB3LYP) =  -1044.05879017     A.U. after   11 cycles
 SCF Done:  E(RB3LYP) =  -1044.05880035     A.U. after   10 cycles
 SCF Done:  E(RB3LYP) =  -1044.05880183     A.U. after    9 cycles
 SCF Done:  E(RB3LYP) =  -1044.05880214     A.U. after    8 cycles
 Optimization completed.
    -- Stationary point found.
 Normal termination of Gaussian 16 at Thu Dec 10 14:51:38 2020.

 --------------------------------------------------------------------
 #N Geom=AllCheck Guess=TCheck SCRF=Check GenChk RB3LYP/6-31G(d) Freq
 --------------------------------------------------------------------

 Structure from the checkpoint file:  "JID_5175.chk"
 -----------------------------
 CID_5080342_JID_5175_neutraal
 -----------------------------
 Charge =  0 Multiplicity = 1

 SCF Done:  E(RB3LYP) =  -1044.05880214     A.U. after    1 cycles

  Exact polarizability: 189.619  12.135 128.913  11.152  -4.001  96.720
 Approx polarizability: 273.487   8.723 255.916  27.301  -4.028 168.188

                      1                      2                      3
                      A                      A                      A
 Frequencies --     33.5821                58.5343                66.8859
 Red. masses --      7.6502                 4.6398                 5.9400
 Frc consts  --      0.0051                 0.0094                 0.0157
 IR Inten    --      0.3591                 0.1557                 0.2246

                      4                      5                      6
                      A                      A                      A
 Frequencies --     99.8887               168.8373               192.6593
 Red. masses --      9.4186                 9.5169                 8.0681
 Frc consts  --      0.0554                 0.1598                 0.1764
 IR Inten    --      1.0806                 1.8128                 0.0982

                      7                      8                      9
                      A                      A                      A
 Frequencies --    234.4178               257.3326               317.5388
 Red. masses --      4.9303                 5.4814                 6.2433
 Frc consts  --      0.1596                 0.2139                 0.3709
 IR Inten    --      0.8208                 1.1614                 0.6420

                     10                     11                     12
                      A                      A                      A
 Frequencies --    358.8019               414.7226               419.6454
 Red. masses --      8.1465                 3.1098                 6.2077
 Frc consts  --      0.6179                 0.3151                 0.6441
 IR Inten    --      0.9060                 0.0641                10.9825

                     13                     14                     15
                      A                      A                      A
 Frequencies --    466.6569               506.2532               509.7391
 Red. masses --      6.8828                 2.5969                 2.4236
 Frc consts  --      0.8831                 0.3921                 0.3710
 IR Inten    --      6.6283                37.6929                72.2923

                     16                     17                     18
                      A                      A                      A
 Frequencies --    520.2097               542.4046               571.2638
 Red. masses --      2.8080                 1.2194                 2.9829
 Frc consts  --      0.4477                 0.2114                 0.5735
 IR Inten    --     36.6929                 1.0055                17.9987

                     19                     20                     21
                      A                      A                      A
 Frequencies --    596.8995               628.7675               632.8237
 Red. masses --      7.2800                 7.9257                 6.6774
 Frc consts  --      1.5282                 1.8461                 1.5755
 IR Inten    --      9.9400                22.3686                 7.7553

                     22                     23                     24
                      A                      A                      A
 Frequencies --    646.0275               675.5394               688.0723
 Red. masses --      7.1965                 8.7568                 6.5533
 Frc consts  --      1.7696                 2.3545                 1.8280
 IR Inten    --     13.6768                14.9329                11.7639

                     25                     26                     27
                      A                      A                      A
 Frequencies --    711.2891               772.6484               792.8622
 Red. masses --      2.0901                 1.9166                 4.8593
 Frc consts  --      0.6230                 0.6741                 1.7998
 IR Inten    --     27.2647                19.9070                 9.3646

                     28                     29                     30
                      A                      A                      A
 Frequencies --    854.7141               864.7469               914.8962
 Red. masses --      1.2944                 3.4070                 1.4664
 Frc consts  --      0.5571                 1.5011                 0.7232
 IR Inten    --      4.5479                56.4403                17.1658

                     31                     32                     33
                      A                      A                      A
 Frequencies --    964.0313               970.1260               992.1189
 Red. masses --      1.6506                 1.3425                 1.2400
 Frc consts  --      0.9038                 0.7444                 0.7191
 IR Inten    --      2.3820                 0.1879                 0.5284

                     34                     35                     36
                      A                      A                      A
 Frequencies --   1012.4411              1019.5406              1055.4772
 Red. masses --      4.3853                 6.0575                 2.1470
 Frc consts  --      2.6484                 3.7098                 1.4092
 IR Inten    --      9.3388                 1.3674                 2.2462

                     37                     38                     39
                      A                      A                      A
 Frequencies --   1107.7535              1153.1305              1192.6382
 Red. masses --      1.5250                 3.4893                 1.0978
 Frc consts  --      1.1026                 2.7337                 0.9200
 IR Inten    --      6.3561                99.7090                 0.4115

                     40                     41                     42
                      A                      A                      A
 Frequencies --   1199.5896              1203.4667              1237.7673
 Red. masses --      1.8754                 1.3224                 2.6352
 Frc consts  --      1.5900                 1.1284                 2.3788
 IR Inten    --     11.4787                 7.7226                57.1767

                     43                     44                     45
                      A                      A                      A
 Frequencies --   1296.2602              1327.5903              1357.3690
 Red. masses --      4.3787                 2.9151                 1.5860
 Frc consts  --      4.3349                 3.0272                 1.7217
 IR Inten    --     34.0469                 0.2734                40.4916

                     46                     47                     48
                      A                      A                      A
 Frequencies --   1362.0547              1463.7040              1493.7191
 Red. masses --      1.8795                 1.2948                 2.2609
 Frc consts  --      2.0544                 1.6345                 2.9722
 IR Inten    --      0.5787                13.2845                 1.6251

                     49                     50                     51
                      A                      A                      A
 Frequencies --   1532.1993              1540.0993              1622.4928
 Red. masses --      2.2495                 3.4788                 6.8396
 Frc consts  --      3.1115                 4.8616                10.6083
 IR Inten    --     67.2699               143.0524               231.8808

                     52                     53                     54
                      A                      A                      A
 Frequencies --   1630.2510              1657.2549              1708.9199
 Red. masses --      5.9890                 5.7138                 9.1184
 Frc consts  --      9.3781                 9.2460                15.6895
 IR Inten    --    107.8794                62.5012               342.9030

                     55                     56                     57
                      A                      A                      A
 Frequencies --   1838.0171              3109.6518              3190.3775
 Red. masses --     11.5279                 1.0869                 1.0855
 Frc consts  --     22.9455                 6.1925                 6.5097
 IR Inten    --    700.7998                30.5081                 2.5032

                     58                     59                     60
                      A                      A                      A
 Frequencies --   3197.0893              3210.2945              3215.2201
 Red. masses --      1.0886                 1.0913                 1.0937
 Frc consts  --      6.5560                 6.6268                 6.6612
 IR Inten    --      7.4702                12.3951                15.8061

                     61                     62                     63
                      A                      A                      A
 Frequencies --   3220.4790              3518.5605              3619.5161
 Red. masses --      1.0977                 1.0667                 1.0787
 Frc consts  --      6.7075                 7.7808                 8.3262
 IR Inten    --     10.8679               508.3815                81.3160

 - Thermochemistry -
 -------------------
 Temperature   298.150 Kelvin.  Pressure   1.00000 Atm.
 Atom     1 has atomic number  6 and mass  12.00000

 Molecular mass:   220.03065 amu.
 Principal axes and moments of inertia in atomic units:
                           1         2         3
     Eigenvalues --  1424.655135519.115886142.84909
           X            0.99995   0.00959  -0.00083
           Y           -0.00961   0.99983  -0.01551
           Z            0.00068   0.01551   0.99988
 This molecule is an asymmetric top.
 Rotational symmetry number  1.
 Warning -- assumption of classical behavior for rotation
           may cause significant error
 Rotational temperatures (Kelvin)      0.06080     0.01569     0.01410
 Rotational constants (GHZ):           1.26679     0.32700     0.29380
 Zero-point vibrational energy     441050.4 (Joules/Mol)
                                  105.41357 (Kcal/Mol)
 Warning -- explicit consideration of  19 degrees of freedom as
           vibrations may cause significant error
 Vibrational temperatures:     48.32    84.22    96.23   143.72   242.92
          (Kelvin)            277.19   337.27   370.24   456.87   516.24
                              596.69   603.78   671.42   728.39   733.40
                              748.47   780.40   821.92   858.81   904.66
                              910.49   929.49   971.95   989.98  1023.39
                             1111.67  1140.75  1229.74  1244.18  1316.33
                             1387.03  1395.80  1427.44  1456.68  1466.89
                             1518.60  1593.81  1659.10  1715.94  1725.94
                             1731.52  1780.87  1865.03  1910.11  1952.95
                             1959.69  2105.94  2149.13  2204.49  2215.86
                             2334.41  2345.57  2384.42  2458.75  2644.50
                             4474.10  4590.24  4599.90  4618.90  4625.98
                             4633.55  5062.42  5207.68

 Zero-point correction=                           0.167987 (Hartree/Particle)
 Thermal correction to Energy=                    0.180491
 Thermal correction to Enthalpy=                  0.181435
 Thermal correction to Gibbs Free Energy=         0.127872
 Sum of electronic and zero-point Energies=          -1043.890815
 Sum of electronic and thermal Energies=             -1043.878311
 Sum of electronic and thermal Enthalpies=           -1043.877367
 Sum of electronic and thermal Free Energies=        -1043.930930

                     E (Thermal)             CV                S
                      KCal/Mol        Cal/Mol-Kelvin    Cal/Mol-Kelvin
 Total                  113.260             48.397            112.733
 Electronic               0.000              0.000              0.000
 Translational            0.889              2.981             42.069
 Rotational               0.889              2.981             32.246
 Vibrational            111.482             42.435             38.418
 Vibration     1          0.594              1.983              5.606
 Vibration     2          0.596              1.974              4.506
 Vibration     3          0.598              1.970              4.243
 Vibration     4          0.604              1.949              3.456
 Vibration     5          0.625              1.881              2.448
 Vibration     6          0.635              1.850              2.202
 Vibration     7          0.654              1.788              1.845
 Vibration     8          0.667              1.750              1.680
 Vibration     9          0.704              1.640              1.323
 Vibration    10          0.734              1.557              1.127
 Vibration    11          0.778              1.438              0.910
 Vibration    12          0.782              1.428              0.893
 Vibration    13          0.824              1.324              0.747
 Vibration    14          0.861              1.236              0.643
 Vibration    15          0.865              1.228              0.634
 Vibration    16          0.875              1.205              0.609
 Vibration    17          0.898              1.156              0.560
 Vibration    18          0.927              1.093              0.502
 Vibration    19          0.955              1.038              0.455

 Optimization completed.
    -- Stationary point found.
 Normal termination of Gaussian 16 at Thu Dec 10 14:58:25 2020.

 ----------------------------------------------------------------------
 # B3LYP/6-311++G(d,p) empiricaldispersion=gd3bj scf=xqc pop=npa geom=c
 heck
 ----------------------------------------------------------------------

 -------------------------------------
 CID_5080342_JID_5175_Energie_neutraal
 -------------------------------------
 Structure from the checkpoint file:  "JID_5175.chk"
 Charge =  0 Multiplicity = 1

 SCF Done:  E(RB3LYP) =  -1044.27118997     A.U. after   16 cycles
 Normal termination of Gaussian 16 at Thu Dec 10 15:01:21 2020.

 ----------------------------------------------------------------------
 # B3LYP/6-311++G(d,p) empiricaldispersion=gd3bj scf=xqc pop=npa geom=c
 heck
 ----------------------------------------------------------------------

 -----------------------------------
 CID_5080342_JID_5175_Energie_kation
 -----------------------------------
 Structure from the checkpoint file:  "JID_5175.chk"
 Charge =  1 Multiplicity = 2

 SCF Done:  E(UB3LYP) =  -1043.98163220     A.U. after   26 cycles
 Normal termination of Gaussian 16 at Thu Dec 10 15:08:39 2020.
 Gaussian 16:  ES64L-G16RevA.03 25-Dec-2016

 ----------------------------------------------------------------------
 # B3LYP/6-311++G(d,p) empiricaldispersion=gd3bj scf=xqc pop=npa geom=c
 heck
 ----------------------------------------------------------------------

 ----------------------------------
 CID_5080342_JID_5175_Energie_anion
 ----------------------------------
 Structure from the checkpoint file:  "JID_5175.chk"
 Charge = -1 Multiplicity = 2

                         Standard orientation:
 ---------------------------------------------------------------------
 Center     Atomic      Atomic             Coordinates (Angstroms)
 Number     Number       Type             X           Y           Z
 ---------------------------------------------------------------------
      1          6           0       -3.728662   -1.201243    0.500824
      2          6           0       -3.718596   -0.562077   -0.738752
      3          6           0       -2.832825    0.489740   -0.986582
      4          6           0       -1.923735    0.900875    0.006387
      5          6           0       -1.942302    0.252501    1.257190
      6          6           0       -2.839598   -0.784231    1.495666
      7          7           0       -1.082105    1.995011   -0.231406
      8          6           0        0.198711    1.892734   -0.217226
      9          6           0        1.067700    0.733527   -0.133175
     10          6           0        0.890371   -0.581008   -0.488443
     11          7           0        2.020871   -1.355112   -0.357944
     12          6           0        3.188360   -0.732830    0.068270
     13          8           0        4.262874   -1.263174    0.222679
     14         16           0        2.771795    0.992778    0.361781
     15          8           0       -0.153431   -1.240855   -0.991649
     16          1           0       -4.421799   -2.014382    0.692108
     17          1           0       -4.406237   -0.874261   -1.519504
     18          1           0       -2.829235    1.006002   -1.941496
     19          1           0       -1.249586    0.577291    2.026768
     20          1           0       -2.841319   -1.274422    2.465144
     21          1           0        0.740107    2.840569   -0.289439
     22          1           0        2.028259   -2.335486   -0.611138
     23          1           0       -0.972372   -0.704753   -0.918695
 ---------------------------------------------------------------------

 SCF Done:  E(UB3LYP) =  -1044.28357674     A.U. after   28 cycles

 The electronic state is 2-A.
 Alpha  occ. eigenvalues --  -88.74110 -19.03279 -18.98338 -14.24330 -14.13660
 Alpha  occ. eigenvalues --  -10.17609 -10.12884 -10.07143 -10.05953 -10.05919
 Alpha  occ. eigenvalues --  -10.05469 -10.05000 -10.04738 -10.04598 -10.04384
 Alpha  occ. eigenvalues --   -7.82764  -5.79090  -5.78759  -5.78237  -0.96086
 Alpha  occ. eigenvalues --   -0.93645  -0.83708  -0.78249  -0.72249  -0.68188
 Alpha  occ. eigenvalues --   -0.62684  -0.61931  -0.59319  -0.53204  -0.50393
 Alpha  occ. eigenvalues --   -0.48630  -0.47931  -0.43321  -0.42211  -0.39024
 Alpha  occ. eigenvalues --   -0.36679  -0.34683  -0.34315  -0.33529  -0.32396
 Alpha  occ. eigenvalues --   -0.31405  -0.30333  -0.29378  -0.29057  -0.27800
 Alpha  occ. eigenvalues --   -0.24924  -0.24184  -0.23263  -0.22554  -0.20576
 Alpha  occ. eigenvalues --   -0.18723  -0.16412  -0.15756  -0.15007  -0.13992
 Alpha  occ. eigenvalues --   -0.09118  -0.07266   0.04519
 Alpha virt. eigenvalues --    0.07996   0.09426   0.09571   0.10185   0.10449
 Alpha virt. eigenvalues --    0.11205   0.11375   0.11867   0.12274   0.12917
 Alpha virt. eigenvalues --    0.13925   0.14301   0.14837   0.15377   0.15774

  Beta  occ. eigenvalues --  -88.74096 -19.03178 -18.98246 -14.24353 -14.13247
  Beta  occ. eigenvalues --  -10.17513 -10.12381 -10.07049 -10.06064 -10.05981
  Beta  occ. eigenvalues --  -10.05432 -10.04633 -10.04585 -10.04581 -10.04288
  Beta  occ. eigenvalues --   -7.82750  -5.79080  -5.78745  -5.78209  -0.95769
  Beta  occ. eigenvalues --   -0.93461  -0.83546  -0.77534  -0.71985  -0.68097
  Beta  occ. eigenvalues --   -0.62536  -0.61611  -0.58845  -0.52569  -0.50217
  Beta  occ. eigenvalues --   -0.48530  -0.47711  -0.43030  -0.42020  -0.38797
  Beta  occ. eigenvalues --   -0.36490  -0.34469  -0.33602  -0.33176  -0.32269
  Beta  occ. eigenvalues --   -0.31217  -0.30287  -0.29134  -0.28661  -0.27057
  Beta  occ. eigenvalues --   -0.24702  -0.23969  -0.22964  -0.22407  -0.19734
  Beta  occ. eigenvalues --   -0.18004  -0.16123  -0.15471  -0.13855  -0.13674
  Beta  occ. eigenvalues --   -0.08348  -0.06258
  Beta virt. eigenvalues --    0.07934   0.09342   0.09554   0.10113   0.10263
  Beta virt. eigenvalues --    0.10705   0.11219   0.11801   0.12168   0.12668
  Beta virt. eigenvalues --    0.13757   0.13942   0.14373   0.14832   0.15519

 Mulliken charges and spin densities:
               1          2
     1  C   -0.401225   0.078460
     2  C   -0.190452  -0.014645
     3  C    0.307817   0.075036
     4  C   -0.756565   0.033221
     5  C   -0.079899   0.047766
     6  C   -0.164122  -0.025376
     7  N    0.024924   0.166251
     8  C   -0.555891   0.327586
     9  C    0.775266  -0.038500
    10  C   -0.237396   0.228913
    11  N   -0.209688  -0.014352
    12  C    0.007241   0.051560
    13  O   -0.397945   0.030949
    14  S   -0.316895  -0.004443
    15  O   -0.296535   0.033017
    16  H    0.101362   0.000001
    17  H    0.133988   0.002321
    18  H    0.153659  -0.001698
    19  H    0.145832   0.013876
    20  H    0.127669   0.007538
    21  H    0.113618   0.003077
    22  H    0.318336   0.002957
    23  H    0.396903  -0.003514
 Sum of Mulliken charges =  -1.00000   1.00000

 Dipole moment (field-independent basis, Debye):
    X=             -2.1417    Y=             -2.7026    Z=             -0.2900  Tot=              3.4605
 Quadrupole moment (field-independent basis, Debye-Ang):
   XX=           -149.2575   YY=           -112.3508   ZZ=           -100.8322
   XY=              9.0381   XZ=             -1.0788   YZ=              1.0269

 Summary of Natural Population Analysis:

                                       Natural Population
                Natural  -----------------------------------------------
    Atom  No    Charge         Core      Valence    Rydberg      Total
 -----------------------------------------------------------------------
      C    1   -0.11151      0.99957     2.10207    0.00987     3.11151
      C    2   -0.10939      0.99957     2.10085    0.00897     3.10939
      C    3   -0.11677      0.99952     2.10754    0.00971     3.11677
      C    4    0.06888      0.99947     1.91541    0.01624     2.93112
      C    5   -0.11328      0.99951     2.10460    0.00917     3.11328
      C    6   -0.09631      0.99958     2.08778    0.00895     3.09631
      N    7   -0.19771      0.99964     2.68351    0.01457     3.69771
      C    8    0.11709      0.99956     1.86744    0.01591     2.88291
      C    9   -0.21564      0.99943     2.20597    0.01024     3.21564
      C   10    0.33685      0.99935     1.65016    0.01364     2.66315
      N   11   -0.31316      0.99962     2.80648    0.00706     3.81316
      C   12    0.27028      0.99976     1.70220    0.02776     2.72972
      O   13   -0.31496      0.99986     3.30635    0.00875     4.31496
      S   14    0.11986      4.99951     2.86096    0.01966     7.88014
      O   15   -0.33971      0.99986     3.33325    0.00660     4.33971
      H   16    0.09186      0.00000     0.40711    0.00103     0.40814
      H   17    0.09348      0.00000     0.40552    0.00101     0.40652
      H   18    0.10268      0.00000     0.39599    0.00133     0.39732
      H   19    0.10336      0.00000     0.39522    0.00142     0.39664
      H   20    0.09258      0.00000     0.40591    0.00151     0.40742
      H   21    0.07239      0.00000     0.42564    0.00197     0.42761
      H   22    0.20068      0.00000     0.29692    0.00240     0.29932
      H   23    0.25845      0.00000     0.23872    0.00283     0.24155
 =======================================================================
   * Total *   -0.00000     18.99382    37.80560    0.20058    57.00000

 Normal termination of Gaussian 16 at Thu Dec 10 15:16:47 2020.
