 Gaussian 16, Revision A.03,

 ----------------------------------------------------------------------
 # opt=(cartesian,calcfc) freq B3LYP/6-31G(d) empiricaldispersion=gd3bj
  scf=xqc
 ----------------------------------------------------------------------

 ------------------------------
 CID_153671171_JID_442_neutraal
 ------------------------------
 Symbolic Z-matrix:
 Charge =  0 Multiplicity = 1

 SCF Done:  E(RB3LYP) =  -390.674027357     A.U. after   13 cycles
 SCF Done:  E(RB3LYP) =  -390.676430218     A.U. after   10 cycles
 SCF Done:  E(RB3LYP) =  -390.678431550     A.U. after   11 cycles
 SCF Done:  E(RB3LYP) =  -390.678612199     A.U. after   10 cycles
 SCF Done:  E(RB3LYP) =  -390.678706214     A.U. after   10 cycles
 SCF Done:  E(RB3LYP) =  -390.678577615     A.U. after   10 cycles
 SCF Done:  E(RB3LYP) =  -390.678656823     A.U. after   10 cycles
 SCF Done:  E(RB3LYP) =  -390.678750888     A.U. after    7 cycles
 SCF Done:  E(RB3LYP) =  -390.678820087     A.U. after   10 cycles
 SCF Done:  E(RB3LYP) =  -390.678877662     A.U. after   10 cycles
 SCF Done:  E(RB3LYP) =  -390.679768582     A.U. after    7 cycles
 SCF Done:  E(RB3LYP) =  -390.679768572     A.U. after    7 cycles
 SCF Done:  E(RB3LYP) =  -390.679768655     A.U. after    6 cycles
 SCF Done:  E(RB3LYP) =  -390.679768229     A.U. after    7 cycles
 SCF Done:  E(RB3LYP) =  -390.679768670     A.U. after    5 cycles
 SCF Done:  E(RB3LYP) =  -390.679768657     A.U. after    6 cycles
 Optimization completed.
    -- Stationary point found.
 Normal termination of Gaussian 16 at Mon Dec 21 14:46:31 2020.

 --------------------------------------------------------------------
 #N Geom=AllCheck Guess=TCheck SCRF=Check GenChk RB3LYP/6-31G(d) Freq
 --------------------------------------------------------------------

 Structure from the checkpoint file:  "JID_442.chk"
 ------------------------------
 CID_153671171_JID_442_neutraal
 ------------------------------
 Charge =  0 Multiplicity = 1

 SCF Done:  E(RB3LYP) =  -390.679768657     A.U. after    1 cycles

  Exact polarizability: 109.571   0.144  90.675  -0.090  -1.215  89.607
 Approx polarizability: 137.524  -1.432 132.707  -0.096  -2.328 132.332

                      1                      2                      3
                      A                      A                      A
 Frequencies --     49.0294               104.5635               139.5784
 Red. masses --      3.0476                 2.2556                 2.3253
 Frc consts  --      0.0043                 0.0145                 0.0267
 IR Inten    --      0.0145                 0.0344                 0.0318

                      4                      5                      6
                      A                      A                      A
 Frequencies --    184.6151               197.4804               270.1688
 Red. masses --      1.1324                 2.2944                 2.5141
 Frc consts  --      0.0227                 0.0527                 0.1081
 IR Inten    --      0.0644                 0.0436                 0.3185

                      7                      8                      9
                      A                      A                      A
 Frequencies --    316.1840               372.8975               404.0356
 Red. masses --      2.4263                 2.2684                 2.6740
 Frc consts  --      0.1429                 0.1858                 0.2572
 IR Inten    --      0.5385                 0.6430                 0.6523

                     10                     11                     12
                      A                      A                      A
 Frequencies --    451.1336               477.9003               575.5250
 Red. masses --      2.3774                 2.5342                 1.9329
 Frc consts  --      0.2851                 0.3410                 0.3772
 IR Inten    --      0.4903                 1.0595                 0.3083

                     13                     14                     15
                      A                      A                      A
 Frequencies --    643.0255               723.3639               782.1802
 Red. masses --      2.6544                 3.6190                 2.5808
 Frc consts  --      0.6467                 1.1157                 0.9303
 IR Inten    --      0.6898                 0.2048                 7.1879

                     16                     17                     18
                      A                      A                      A
 Frequencies --    809.2378               841.3976               853.1068
 Red. masses --      1.8854                 1.6030                 1.3875
 Frc consts  --      0.7275                 0.6686                 0.5950
 IR Inten    --     11.0255                 0.2969                 2.5247

                     19                     20                     21
                      A                      A                      A
 Frequencies --    866.8956               881.7506               908.2351
 Red. masses --      1.5354                 2.5877                 2.5944
 Frc consts  --      0.6798                 1.1854                 1.2609
 IR Inten    --      3.2022                 2.0031                 0.4382

                     22                     23                     24
                      A                      A                      A
 Frequencies --    933.2827               952.7255               956.2667
 Red. masses --      1.3700                 1.4673                 2.4774
 Frc consts  --      0.7031                 0.7847                 1.3348
 IR Inten    --      4.3376                 1.7205                 2.8809

                     25                     26                     27
                      A                      A                      A
 Frequencies --    975.2629              1010.4674              1024.7714
 Red. masses --      1.6002                 2.0417                 1.7909
 Frc consts  --      0.8967                 1.2282                 1.1081
 IR Inten    --      1.1007                 1.9145                 2.0042

                     28                     29                     30
                      A                      A                      A
 Frequencies --   1055.4261              1071.4259              1079.3929
 Red. masses --      1.4555                 1.5938                 1.4228
 Frc consts  --      0.9553                 1.0780                 0.9767
 IR Inten    --      1.2852                 1.7761                 1.5352

                     31                     32                     33
                      A                      A                      A
 Frequencies --   1086.3453              1091.0117              1120.8983
 Red. masses --      1.6982                 1.5522                 1.4416
 Frc consts  --      1.1808                 1.0886                 1.0671
 IR Inten    --      0.9089                 1.1707                 2.8219

                     34                     35                     36
                      A                      A                      A
 Frequencies --   1134.1502              1157.0449              1197.5450
 Red. masses --      1.4390                 1.4274                 1.4688
 Frc consts  --      1.0906                 1.1259                 1.2411
 IR Inten    --      1.4924                 1.1025                 0.6302

                     37                     38                     39
                      A                      A                      A
 Frequencies --   1211.2224              1221.9948              1239.3921
 Red. masses --      1.6646                 1.4644                 1.6123
 Frc consts  --      1.4388                 1.2884                 1.4592
 IR Inten    --      1.3640                 0.4233                 2.0252

                     40                     41                     42
                      A                      A                      A
 Frequencies --   1257.2750              1282.4913              1319.6223
 Red. masses --      1.6237                 1.3755                 1.5271
 Frc consts  --      1.5123                 1.3329                 1.5668
 IR Inten    --      0.5039                 4.4698                 1.3304

                     43                     44                     45
                      A                      A                      A
 Frequencies --   1345.0785              1348.5714              1362.1138
 Red. masses --      1.6696                 1.6623                 1.3290
 Frc consts  --      1.7798                 1.7812                 1.4528
 IR Inten    --      0.4825                 2.5400                 1.4153

                     46                     47                     48
                      A                      A                      A
 Frequencies --   1394.3499              1418.6182              1449.4503
 Red. masses --      1.4671                 1.5034                 1.7636
 Frc consts  --      1.6806                 1.7826                 2.1830
 IR Inten    --      5.9849                 2.0772                 0.6314

                     49                     50                     51
                      A                      A                      A
 Frequencies --   1452.4656              1508.4564              1517.7103
 Red. masses --      1.4556                 1.1905                 1.1904
 Frc consts  --      1.8092                 1.5961                 1.6155
 IR Inten    --      1.9554                 0.2992                 6.3331

                     52                     53                     54
                      A                      A                      A
 Frequencies --   1522.5304              1525.4707              1528.2451
 Red. masses --      1.1564                 1.0573                 1.1103
 Frc consts  --      1.5794                 1.4496                 1.5278
 IR Inten    --      1.1495                 3.8516                 2.5418

                     55                     56                     57
                      A                      A                      A
 Frequencies --   1534.7685              1543.0655              3040.9803
 Red. masses --      1.1511                 1.1296                 1.0679
 Frc consts  --      1.5975                 1.5847                 5.8187
 IR Inten    --      3.2000                 0.8777                47.3726

                     58                     59                     60
                      A                      A                      A
 Frequencies --   3045.2265              3046.0730              3049.3782
 Red. masses --      1.0577                 1.0530                 1.0613
 Frc consts  --      5.7792                 5.7568                 5.8145
 IR Inten    --      4.1091                59.8936                40.1799

                     61                     62                     63
                      A                      A                      A
 Frequencies --   3090.8376              3098.8739              3100.9806
 Red. masses --      1.0952                 1.1023                 1.1022
 Frc consts  --      6.1647                 6.2368                 6.2448
 IR Inten    --     36.9972                29.8506                44.3179

                     64                     65                     66
                      A                      A                      A
 Frequencies --   3118.8070              3120.8086              3124.1063
 Red. masses --      1.0920                 1.0603                 1.0863
 Frc consts  --      6.2584                 6.0846                 6.2464
 IR Inten    --     20.5189                26.2309                12.8177

                     67                     68                     69
                      A                      A                      A
 Frequencies --   3130.4242              3143.9231              3146.0095
 Red. masses --      1.0890                 1.0696                 1.0803
 Frc consts  --      6.2873                 6.2290                 6.2996
 IR Inten    --      6.7890                42.0418                32.5455

                     70                     71                     72
                      A                      A                      A
 Frequencies --   3165.7551              3203.8538              3220.0715
 Red. masses --      1.0913                 1.1161                 1.1160
 Frc consts  --      6.4441                 6.7500                 6.8177
 IR Inten    --     20.2034                19.4864                21.4995

 - Thermochemistry -
 -------------------
 Temperature   298.150 Kelvin.  Pressure   1.00000 Atm.
 Atom     1 has atomic number  6 and mass  12.00000

 Molecular mass:   136.12520 amu.
 Principal axes and moments of inertia in atomic units:
                           1         2         3
     Eigenvalues --   718.309471979.401822078.88814
           X            0.99998   0.00331  -0.00625
           Y           -0.00316   0.99972   0.02327
           Z            0.00632  -0.02325   0.99971
 This molecule is an asymmetric top.
 Rotational symmetry number  1.
 Warning -- assumption of classical behavior for rotation
           may cause significant error
 Rotational temperatures (Kelvin)      0.12058     0.04376     0.04166
 Rotational constants (GHZ):           2.51248     0.91176     0.86813
 Zero-point vibrational energy     625212.2 (Joules/Mol)
                                  149.42931 (Kcal/Mol)
 Warning -- explicit consideration of  12 degrees of freedom as
           vibrations may cause significant error
 Vibrational temperatures:     70.54   150.44   200.82   265.62   284.13
          (Kelvin)            388.71   454.92   536.52   581.32   649.08
                              687.59   828.05   925.17  1040.76  1125.38
                             1164.31  1210.58  1227.43  1247.27  1268.64
                             1306.75  1342.79  1370.76  1375.85  1403.19
                             1453.84  1474.42  1518.52  1541.54  1553.01
                             1563.01  1569.72  1612.72  1631.79  1664.73
                             1723.00  1742.68  1758.18  1783.21  1808.94
                             1845.22  1898.64  1935.27  1940.29  1959.78
                             2006.16  2041.08  2085.44  2089.77  2170.33
                             2183.65  2190.58  2194.81  2198.80  2208.19
                             2220.13  4375.29  4381.40  4382.62  4387.38
                             4447.03  4458.59  4461.62  4487.27  4490.15
                             4494.89  4503.98  4523.40  4526.41  4554.82
                             4609.63  4632.96

 Zero-point correction=                           0.238131 (Hartree/Particle)
 Thermal correction to Energy=                    0.247850
 Thermal correction to Enthalpy=                  0.248794
 Thermal correction to Gibbs Free Energy=         0.203197
 Sum of electronic and zero-point Energies=           -390.441638
 Sum of electronic and thermal Energies=              -390.431919
 Sum of electronic and thermal Enthalpies=            -390.430975
 Sum of electronic and thermal Free Energies=         -390.476572

                     E (Thermal)             CV                S
                      KCal/Mol        Cal/Mol-Kelvin    Cal/Mol-Kelvin
 Total                  155.528             38.533             95.967
 Electronic               0.000              0.000              0.000
 Translational            0.889              2.981             40.637
 Rotational               0.889              2.981             29.470
 Vibrational            153.751             32.572             25.859
 Vibration     1          0.595              1.978              4.856
 Vibration     2          0.605              1.946              3.367
 Vibration     3          0.615              1.914              2.810
 Vibration     4          0.631              1.861              2.281
 Vibration     5          0.637              1.843              2.156
 Vibration     6          0.674              1.728              1.595
 Vibration     7          0.703              1.643              1.330
 Vibration     8          0.744              1.528              1.068
 Vibration     9          0.769              1.461              0.948
 Vibration    10          0.810              1.358              0.792
 Vibration    11          0.834              1.299              0.716
 Vibration    12          0.932              1.084              0.494

 Normal termination of Gaussian 16 at Mon Dec 21 14:52:07 2020.

 ----------------------------------------------------------------------
 # B3LYP/6-311++G(d,p) empiricaldispersion=gd3bj scf=xqc pop=npa geom=c
 heck
 ----------------------------------------------------------------------

 --------------------------------------
 CID_153671171_JID_442_Energie_neutraal
 --------------------------------------
 Structure from the checkpoint file:  "JID_442.chk"
 Charge =  0 Multiplicity = 1

 SCF Done:  E(RB3LYP) =  -390.782138052     A.U. after   13 cycles
 Normal termination of Gaussian 16 at Mon Dec 21 14:54:27 2020.

 ----------------------------------------------------------------------
 # B3LYP/6-311++G(d,p) empiricaldispersion=gd3bj scf=xqc pop=npa geom=c
 heck
 ----------------------------------------------------------------------

 ------------------------------------
 CID_153671171_JID_442_Energie_kation
 ------------------------------------
 Structure from the checkpoint file:  "JID_442.chk"
 Charge =  1 Multiplicity = 2

 SCF Done:  E(UB3LYP) =  -390.472883729     A.U. after   18 cycles
 Normal termination of Gaussian 16 at Mon Dec 21 14:58:55 2020.
 Gaussian 16:  ES64L-G16RevA.03 25-Dec-2016

 ----------------------------------------------------------------------
 # B3LYP/6-311++G(d,p) empiricaldispersion=gd3bj scf=xqc pop=npa geom=c
 heck
 ----------------------------------------------------------------------

 -----------------------------------
 CID_153671171_JID_442_Energie_anion
 -----------------------------------
 Structure from the checkpoint file:  "JID_442.chk"
 Charge = -1 Multiplicity = 2

                         Standard orientation:
 ---------------------------------------------------------------------
 Center     Atomic      Atomic             Coordinates (Angstroms)
 Number     Number       Type             X           Y           Z
 ---------------------------------------------------------------------
      1          6           0       -2.608685    0.181616    1.213741
      2          6           0       -2.398850   -0.251963   -0.220954
      3          6           0       -1.869371    0.710326   -1.259589
      4          6           0       -1.012334   -0.446648   -0.800207
      5          6           0        0.253475   -0.298414    0.001444
      6          6           0        0.677757    1.036590    0.638957
      7          6           0        2.082472    1.328998    0.067031
      8          6           0        2.720424   -0.054745   -0.187307
      9          6           0        1.533591   -0.973091   -0.479325
     10          6           0        0.780154   -1.534541    0.698716
     11          1           0       -3.601305    0.629004    1.346319
     12          1           0       -1.868201    0.922694    1.527895
     13          1           0       -2.530315   -0.671623    1.898400
     14          1           0       -3.147241   -0.958980   -0.577055
     15          1           0       -2.279679    0.681485   -2.265574
     16          1           0       -1.609288    1.710886   -0.924813
     17          1           0       -0.942647   -1.266675   -1.514261
     18          1           0       -0.016611    1.847397    0.405749
     19          1           0        0.708089    0.951824    1.732755
     20          1           0        2.685781    1.972634    0.717451
     21          1           0        1.968664    1.848127   -0.892664
     22          1           0        3.277941   -0.399593    0.693521
     23          1           0        3.428597   -0.029092   -1.022111
     24          1           0        1.526771   -1.541113   -1.406578
     25          1           0        1.219604   -1.424916    1.689030
     26          1           0        0.228042   -2.460810    0.556884
 ---------------------------------------------------------------------

 SCF Done:  E(UB3LYP) =  -390.762598474     A.U. after   29 cycles

 The electronic state is 2-A.
 Alpha  occ. eigenvalues --  -10.07432 -10.06587 -10.06401 -10.06382 -10.06014
 Alpha  occ. eigenvalues --  -10.06010 -10.05930 -10.05867 -10.05716 -10.05309
 Alpha  occ. eigenvalues --   -0.78119  -0.74248  -0.65990  -0.60641  -0.59954
 Alpha  occ. eigenvalues --   -0.51353  -0.49844  -0.46541  -0.45739  -0.42159
 Alpha  occ. eigenvalues --   -0.38889  -0.37779  -0.35867  -0.32452  -0.31103
 Alpha  occ. eigenvalues --   -0.30563  -0.30039  -0.29128  -0.27808  -0.24974
 Alpha  occ. eigenvalues --   -0.24079  -0.23202  -0.23016  -0.21821  -0.20319
 Alpha  occ. eigenvalues --   -0.18712  -0.16221  -0.13483   0.04911
 Alpha virt. eigenvalues --    0.07013   0.07601   0.08059   0.09215   0.09359
 Alpha virt. eigenvalues --    0.09774   0.10432   0.10674   0.11719   0.12038
 Alpha virt. eigenvalues --    0.12797   0.13072   0.13976   0.14063   0.15679

  Beta  occ. eigenvalues --  -10.07432 -10.06576 -10.06386 -10.06369 -10.05997
  Beta  occ. eigenvalues --  -10.05992 -10.05912 -10.05852 -10.05696 -10.05284
  Beta  occ. eigenvalues --   -0.78096  -0.74212  -0.65961  -0.60603  -0.59914
  Beta  occ. eigenvalues --   -0.51313  -0.49790  -0.46477  -0.45685  -0.42117
  Beta  occ. eigenvalues --   -0.38834  -0.37726  -0.35831  -0.32417  -0.31073
  Beta  occ. eigenvalues --   -0.30531  -0.30006  -0.29092  -0.27779  -0.24931
  Beta  occ. eigenvalues --   -0.24047  -0.23165  -0.22988  -0.21787  -0.20291
  Beta  occ. eigenvalues --   -0.18681  -0.16199  -0.13456
  Beta virt. eigenvalues --    0.07160   0.07981   0.08506   0.08534   0.09962
  Beta virt. eigenvalues --    0.09987   0.10242   0.10957   0.11121   0.12325
  Beta virt. eigenvalues --    0.12552   0.13207   0.13583   0.14264   0.14475

 Mulliken charges and spin densities:
               1          2
     1  C    0.454101  -1.185535
     2  C   -0.122984   0.240389
     3  C    0.799465  -1.378046
     4  C   -1.414547   1.475522
     5  C   -0.124281   0.795812
     6  C    0.363968  -0.850755
     7  C   -0.402921  -0.079304
     8  C    1.171426  -1.667504
     9  C    0.289895   0.001866
    10  C    1.056278  -1.907314
    11  H   -0.348543   0.491366
    12  H   -0.223745   0.383492
    13  H    0.070411   0.070029
    14  H   -0.542016   0.740841
    15  H   -0.399551   0.552776
    16  H    0.034884   0.101058
    17  H   -0.468967   0.705238
    18  H    0.193680  -0.118773
    19  H   -0.145908   0.313575
    20  H   -0.311707   0.451713
    21  H   -0.043903   0.189166
    22  H   -0.086404   0.222188
    23  H   -0.221603   0.363308
    24  H   -0.385075   0.591855
    25  H   -0.187538   0.341332
    26  H   -0.004416   0.155702
 Sum of Mulliken charges =  -1.00000   1.00000

 Dipole moment (field-independent basis, Debye):
    X=              1.4718    Y=              1.2049    Z=              1.6438  Tot=              2.5140
 Quadrupole moment (field-independent basis, Debye-Ang):
   XX=           -127.5670   YY=            -98.6277   ZZ=           -105.0349
   XY=             -3.4137   XZ=             -1.7241   YZ=             -5.0779

 Summary of Natural Population Analysis:

                                       Natural Population
                Natural  -----------------------------------------------
    Atom  No    Charge         Core      Valence    Rydberg      Total
 -----------------------------------------------------------------------
      C    1   -0.28622      0.99965     2.28032    0.00625     3.28622
      C    2   -0.10846      0.99959     2.09853    0.01034     3.10846
      C    3   -0.19411      0.99960     2.18534    0.00917     3.19411
      C    4   -0.10634      0.99953     2.09375    0.01306     3.10634
      C    5   -0.03972      0.99952     2.02511    0.01510     3.03972
      C    6   -0.18766      0.99960     2.18010    0.00796     3.18766
      C    7   -0.18528      0.99964     2.17776    0.00789     3.18528
      C    8   -0.19294      0.99963     2.18472    0.00859     3.19294
      C    9   -0.10467      0.99956     2.09504    0.01007     3.10467
      C   10   -0.18954      0.99957     2.18029    0.00968     3.18954
      H   11    0.09822      0.00000     0.40075    0.00104     0.40178
      H   12    0.09873      0.00000     0.39981    0.00146     0.40127
      H   13    0.09913      0.00000     0.39967    0.00121     0.40087
      H   14    0.10023      0.00000     0.39771    0.00206     0.39977
      H   15    0.10360      0.00000     0.39509    0.00131     0.39640
      H   16    0.09817      0.00000     0.40064    0.00120     0.40183
      H   17    0.10698      0.00000     0.39059    0.00243     0.39302
      H   18    0.10193      0.00000     0.39652    0.00155     0.39807
      H   19    0.09589      0.00000     0.40267    0.00144     0.40411
      H   20    0.09593      0.00000     0.40277    0.00130     0.40407
      H   21    0.09383      0.00000     0.40460    0.00158     0.40617
      H   22    0.09323      0.00000     0.40523    0.00153     0.40677
      H   23    0.10190      0.00000     0.39683    0.00127     0.39810
      H   24    0.10553      0.00000     0.39284    0.00163     0.39447
      H   25    0.09768      0.00000     0.40086    0.00146     0.40232
      H   26    0.10399      0.00000     0.39487    0.00114     0.39601
 =======================================================================
   * Total *    0.00000      9.99588    27.88239    0.12173    38.00000

 Normal termination of Gaussian 16 at Mon Dec 21 15:06:09 2020.
