 Gaussian 16, Revision A.03,

 -----------------------------------------------------------
 # opt freq B3LYP/6-31G(d) empiricaldispersion=gd3bj scf=xqc
 -----------------------------------------------------------

 -------------------------------
 CID_102767326_JID_5492_neutraal
 -------------------------------
 Symbolic Z-matrix:
 Charge =  0 Multiplicity = 1

 SCF Done:  E(RB3LYP) =  -1022.74222444     A.U. after   15 cycles
 SCF Done:  E(RB3LYP) =  -1022.74983463     A.U. after   12 cycles
 SCF Done:  E(RB3LYP) =  -1022.75214139     A.U. after   12 cycles
 SCF Done:  E(RB3LYP) =  -1022.75315208     A.U. after   12 cycles
 SCF Done:  E(RB3LYP) =  -1022.75352172     A.U. after   12 cycles
 SCF Done:  E(RB3LYP) =  -1022.75378485     A.U. after   12 cycles
 SCF Done:  E(RB3LYP) =  -1022.75425645     A.U. after   12 cycles
 SCF Done:  E(RB3LYP) =  -1022.75444800     A.U. after   13 cycles
 SCF Done:  E(RB3LYP) =  -1022.75497905     A.U. after   11 cycles
 SCF Done:  E(RB3LYP) =  -1022.75545769     A.U. after   12 cycles
 SCF Done:  E(RB3LYP) =  -1022.76030012     A.U. after   10 cycles
 SCF Done:  E(RB3LYP) =  -1022.76030151     A.U. after    9 cycles
 SCF Done:  E(RB3LYP) =  -1022.76030176     A.U. after    7 cycles
 SCF Done:  E(RB3LYP) =  -1022.76030188     A.U. after    7 cycles
 SCF Done:  E(RB3LYP) =  -1022.76030190     A.U. after    7 cycles
 Optimization completed.
    -- Stationary point found.
 Normal termination of Gaussian 16 at Thu Dec 10 16:33:46 2020.

 --------------------------------------------------------------------
 #N Geom=AllCheck Guess=TCheck SCRF=Check GenChk RB3LYP/6-31G(d) Freq
 --------------------------------------------------------------------

 Structure from the checkpoint file:  "JID_5492.chk"
 -------------------------------
 CID_102767326_JID_5492_neutraal
 -------------------------------
 Charge =  0 Multiplicity = 1

 SCF Done:  E(RB3LYP) =  -1022.76030190     A.U. after    1 cycles

  Exact polarizability: 188.312   2.353 139.298 -23.800   3.452  84.035
 Approx polarizability: 260.135   6.774 247.111 -43.205   5.968 130.967

                      1                      2                      3
                      A                      A                      A
 Frequencies --     22.9997                26.3468                45.2611
 Red. masses --      6.1777                 4.9039                 6.1680
 Frc consts  --      0.0019                 0.0020                 0.0074
 IR Inten    --      0.7441                 2.2649                 0.4756

                      4                      5                      6
                      A                      A                      A
 Frequencies --     67.0011                85.7190               129.9175
 Red. masses --      4.3493                 5.0637                 5.2787
 Frc consts  --      0.0115                 0.0219                 0.0525
 IR Inten    --      1.9617                 0.1644                 9.2141

                      7                      8                      9
                      A                      A                      A
 Frequencies --    168.7691               192.6851               211.2565
 Red. masses --      3.5584                 1.1438                 3.3348
 Frc consts  --      0.0597                 0.0250                 0.0877
 IR Inten    --      8.2959                36.1455                 6.5945

                     10                     11                     12
                      A                      A                      A
 Frequencies --    246.6638               309.4659               355.7235
 Red. masses --      2.8975                 3.3034                 2.7957
 Frc consts  --      0.1039                 0.1864                 0.2084
 IR Inten    --      0.3005                16.1675                 8.4389

                     13                     14                     15
                      A                      A                      A
 Frequencies --    361.8007               373.0971               415.1312
 Red. masses --      3.1649                 3.3832                 2.1389
 Frc consts  --      0.2441                 0.2775                 0.2172
 IR Inten    --      8.0128                 5.2130                36.7050

                     16                     17                     18
                      A                      A                      A
 Frequencies --    464.6931               516.4268               533.0850
 Red. masses --      1.9870                 3.6797                 3.9518
 Frc consts  --      0.2528                 0.5782                 0.6617
 IR Inten    --    158.7762                 1.1871                17.9319

                     19                     20                     21
                      A                      A                      A
 Frequencies --    571.5003               615.8029               640.0288
 Red. masses --      3.8563                 7.1714                 4.1139
 Frc consts  --      0.7421                 1.6023                 0.9929
 IR Inten    --     14.1725                10.1961                 2.7904

                     22                     23                     24
                      A                      A                      A
 Frequencies --    667.2049               677.3350               688.8771
 Red. masses --      3.6901                 3.9837                 2.8602
 Frc consts  --      0.9678                 1.0768                 0.7997
 IR Inten    --     50.0929                18.9591                 5.4494

                     25                     26                     27
                      A                      A                      A
 Frequencies --    725.2093               729.2328               764.2662
 Red. masses --      3.5570                 1.3681                 1.9117
 Frc consts  --      1.1022                 0.4287                 0.6579
 IR Inten    --     97.1231                19.7800                51.8673

                     28                     29                     30
                      A                      A                      A
 Frequencies --    781.9972               801.2246               818.0235
 Red. masses --      1.8048                 1.3438                 1.4245
 Frc consts  --      0.6503                 0.5083                 0.5616
 IR Inten    --     68.2841                24.2976                44.1481

                     31                     32                     33
                      A                      A                      A
 Frequencies --    837.2342               844.6490               872.3230
 Red. masses --      2.3643                 1.3561                 2.8454
 Frc consts  --      0.9764                 0.5700                 1.2757
 IR Inten    --     41.0056                 3.1594                 1.1413

                     34                     35                     36
                      A                      A                      A
 Frequencies --    924.2373               977.8122              1035.9359
 Red. masses --      6.2884                 2.2116                 2.2969
 Frc consts  --      3.1649                 1.2459                 1.4523
 IR Inten    --     15.2944                 0.5913                 8.3199

                     37                     38                     39
                      A                      A                      A
 Frequencies --   1064.3691              1087.7122              1105.3123
 Red. masses --      2.4957                 2.4520                 1.3999
 Frc consts  --      1.6658                 1.7092                 1.0076
 IR Inten    --     12.2626                 9.1057                20.9195

                     40                     41                     42
                      A                      A                      A
 Frequencies --   1112.0032              1132.5201              1151.3116
 Red. masses --      2.4211                 1.6598                 2.1628
 Frc consts  --      1.7639                 1.2543                 1.6891
 IR Inten    --     23.8148                 4.4983                13.0101

                     43                     44                     45
                      A                      A                      A
 Frequencies --   1180.7648              1206.2423              1262.5220
 Red. masses --      1.8931                 1.5382                 2.8884
 Frc consts  --      1.5551                 1.3187                 2.7126
 IR Inten    --     88.3137                22.4577                24.7633

                     46                     47                     48
                      A                      A                      A
 Frequencies --   1264.9600              1276.9833              1280.5165
 Red. masses --      1.8922                 2.0475                 1.6313
 Frc consts  --      1.7839                 1.9671                 1.5760
 IR Inten    --     28.4545                66.5560                60.4771

                     49                     50                     51
                      A                      A                      A
 Frequencies --   1317.5150              1335.4395              1350.7137
 Red. masses --      1.7038                 1.2948                 1.8481
 Frc consts  --      1.7426                 1.3605                 1.9866
 IR Inten    --     14.5724                18.3730                 4.9496

                     52                     53                     54
                      A                      A                      A
 Frequencies --   1388.5290              1396.1431              1404.2075
 Red. masses --      1.6265                 2.9802                 1.6987
 Frc consts  --      1.8477                 3.4226                 1.9734
 IR Inten    --     69.2247                 5.7324                22.4454

                     55                     56                     57
                      A                      A                      A
 Frequencies --   1425.5020              1437.5153              1506.0713
 Red. masses --      1.5222                 1.8367                 1.1836
 Frc consts  --      1.8225                 2.2362                 1.5818
 IR Inten    --     43.8199                18.3432                10.2515

                     58                     59                     60
                      A                      A                      A
 Frequencies --   1508.7597              1514.7509              1521.8573
 Red. masses --      1.1924                 1.1675                 1.4907
 Frc consts  --      1.5992                 1.5783                 2.0342
 IR Inten    --     68.6316                11.2513                68.1678

                     61                     62                     63
                      A                      A                      A
 Frequencies --   1547.0997              1553.1029              1617.2771
 Red. masses --      2.4152                 3.4055                 4.3967
 Frc consts  --      3.4059                 4.8399                 6.7756
 IR Inten    --     15.2372                30.9206               119.5090

                     64                     65                     66
                      A                      A                      A
 Frequencies --   1622.0422              1684.6573              3045.3809
 Red. masses --      6.3850                 1.2050                 1.0668
 Frc consts  --      9.8977                 2.0150                 5.8296
 IR Inten    --    153.3680                40.1777                28.4153

                     67                     68                     69
                      A                      A                      A
 Frequencies --   3063.0057              3082.1667              3116.3258
 Red. masses --      1.0671                 1.0650                 1.0974
 Frc consts  --      5.8988                 5.9608                 6.2789
 IR Inten    --     35.4522                28.5611                 3.6591

                     70                     71                     72
                      A                      A                      A
 Frequencies --   3132.2972              3143.6353              3217.8215
 Red. masses --      1.0979                 1.1012                 1.0928
 Frc consts  --      6.3464                 6.4121                 6.6671
 IR Inten    --     17.1043                21.1135                22.8246

                     73                     74                     75
                      A                      A                      A
 Frequencies --   3255.0176              3258.2363              3294.3806
 Red. masses --      1.0944                 1.0941                 1.1023
 Frc consts  --      6.8317                 6.8433                 7.0487
 IR Inten    --      6.9714                 4.7542                 2.6582

                     76                     77                     78
                      A                      A                      A
 Frequencies --   3491.0907              3592.1337              3603.0642
 Red. masses --      1.0502                 1.0933                 1.0766
 Frc consts  --      7.5416                 8.3115                 8.2349
 IR Inten    --      2.5207                10.4536                22.4830

 - Thermochemistry -
 -------------------
 Temperature   298.150 Kelvin.  Pressure   1.00000 Atm.
 Atom     1 has atomic number  6 and mass  12.00000

 Molecular mass:   223.08917 amu.
 Principal axes and moments of inertia in atomic units:
                           1         2         3
     Eigenvalues --  1154.614777787.406708367.15326
           X            0.99999  -0.00096  -0.00478
           Y            0.00099   0.99998   0.00561
           Z            0.00477  -0.00561   0.99997
 This molecule is an asymmetric top.
 Rotational symmetry number  1.
 Warning -- assumption of classical behavior for rotation
           may cause significant error
 Rotational temperatures (Kelvin)      0.07502     0.01112     0.01035
 Rotational constants (GHZ):           1.56307     0.23175     0.21569
 Zero-point vibrational energy     598431.3 (Joules/Mol)
                                  143.02850 (Kcal/Mol)
 Warning -- explicit consideration of  20 degrees of freedom as
           vibrations may cause significant error
 Vibrational temperatures:     33.09    37.91    65.12    96.40   123.33
          (Kelvin)            186.92   242.82   277.23   303.95   354.89
                              445.25   511.81   520.55   536.80   597.28
                              668.59   743.02   766.99   822.26   886.00
                              920.86   959.96   974.53   991.14  1043.41
                             1049.20  1099.61  1125.12  1152.78  1176.95
                             1204.59  1215.26  1255.08  1329.77  1406.85
                             1490.48  1531.39  1564.98  1590.30  1599.92
                             1629.44  1656.48  1698.86  1735.51  1816.49
                             1820.00  1837.29  1842.38  1895.61  1921.40
                             1943.38  1997.78  2008.74  2020.34  2050.98
                             2068.26  2166.90  2170.77  2179.39  2189.61
                             2225.93  2234.57  2326.90  2333.76  2423.85
                             4381.62  4406.98  4434.55  4483.70  4506.68
                             4522.99  4629.73  4683.24  4687.88  4739.88
                             5022.90  5168.28  5184.01

 Zero-point correction=                           0.227930 (Hartree/Particle)
 Thermal correction to Energy=                    0.242261
 Thermal correction to Enthalpy=                  0.243205
 Thermal correction to Gibbs Free Energy=         0.184034
 Sum of electronic and zero-point Energies=          -1022.532371
 Sum of electronic and thermal Energies=             -1022.518041
 Sum of electronic and thermal Enthalpies=           -1022.517097
 Sum of electronic and thermal Free Energies=        -1022.576268

                     E (Thermal)             CV                S
                      KCal/Mol        Cal/Mol-Kelvin    Cal/Mol-Kelvin
 Total                  152.021             53.502            124.535
 Electronic               0.000              0.000              0.000
 Translational            0.889              2.981             42.110
 Rotational               0.889              2.981             32.687
 Vibrational            150.243             47.541             49.739
 Vibration     1          0.593              1.985              6.357
 Vibration     2          0.593              1.985              6.087
 Vibration     3          0.595              1.979              5.014
 Vibration     4          0.598              1.970              4.240
 Vibration     5          0.601              1.959              3.755
 Vibration     6          0.612              1.923              2.947
 Vibration     7          0.625              1.881              2.449
 Vibration     8          0.635              1.850              2.202
 Vibration     9          0.643              1.824              2.033
 Vibration    10          0.661              1.768              1.754
 Vibration    11          0.699              1.656              1.365
 Vibration    12          0.731              1.564              1.141
 Vibration    13          0.736              1.551              1.114
 Vibration    14          0.745              1.527              1.067
 Vibration    15          0.779              1.437              0.909
 Vibration    16          0.822              1.328              0.753
 Vibration    17          0.871              1.214              0.618
 Vibration    18          0.888              1.177              0.580
 Vibration    19          0.928              1.093              0.501
 Vibration    20          0.975              0.998              0.423

                           ! Non-Optimized Parameters !
 Normal termination of Gaussian 16 at Thu Dec 10 16:42:33 2020.

 ----------------------------------------------------------------------
 # B3LYP/6-311++G(d,p) empiricaldispersion=gd3bj scf=xqc pop=npa geom=c
 heck
 ----------------------------------------------------------------------

 ---------------------------------------
 CID_102767326_JID_5492_Energie_neutraal
 ---------------------------------------
 Structure from the checkpoint file:  "JID_5492.chk"
 Charge =  0 Multiplicity = 1

 SCF Done:  E(RB3LYP) =  -1022.96666327     A.U. after   15 cycles
 Normal termination of Gaussian 16 at Thu Dec 10 16:47:07 2020.

 ----------------------------------------------------------------------
 # B3LYP/6-311++G(d,p) empiricaldispersion=gd3bj scf=xqc pop=npa geom=c
 heck
 ----------------------------------------------------------------------

 -------------------------------------
 CID_102767326_JID_5492_Energie_kation
 -------------------------------------
 Structure from the checkpoint file:  "JID_5492.chk"
 Charge =  1 Multiplicity = 2

 SCF Done:  E(UB3LYP) =  -1022.69706261     A.U. after   23 cycles
 Normal termination of Gaussian 16 at Thu Dec 10 16:57:59 2020.
 Gaussian 16:  ES64L-G16RevA.03 25-Dec-2016

 ----------------------------------------------------------------------
 # B3LYP/6-311++G(d,p) empiricaldispersion=gd3bj scf=xqc pop=npa geom=c
 heck
 ----------------------------------------------------------------------

 ------------------------------------
 CID_102767326_JID_5492_Energie_anion
 ------------------------------------
 Structure from the checkpoint file:  "JID_5492.chk"
 Charge = -1 Multiplicity = 2

                         Standard orientation:
 ---------------------------------------------------------------------
 Center     Atomic      Atomic             Coordinates (Angstroms)
 Number     Number       Type             X           Y           Z
 ---------------------------------------------------------------------
      1          6           0        4.044304   -1.572151   -0.104049
      2          6           0        2.802770   -1.235124    0.378745
      3          7           0        2.861738    0.119847    0.646538
      4          6           0        4.121956    0.526737    0.304201
      5          7           0        4.864197   -0.465153   -0.147070
      6          6           0        1.753785    0.969792    1.070026
      7          6           0        1.127101    1.749089   -0.089809
      8          6           0        0.688143    0.855150   -1.253040
      9          7           0       -0.174384   -0.248077   -0.820109
     10          6           0       -1.483334    0.021257   -0.488628
     11          7           0       -1.979384    1.210552   -0.323683
     12          6           0       -3.288220    1.143606    0.126240
     13          6           0       -3.821127   -0.098272    0.292677
     14         16           0       -2.605205   -1.314887   -0.137396
     15          7           0       -5.128421   -0.500278    0.596255
     16          1           0        4.398693   -2.546225   -0.413343
     17          1           0        1.902156   -1.800095    0.563702
     18          1           0        4.439050    1.555575    0.415609
     19          1           0        1.006828    0.322880    1.534479
     20          1           0        2.118997    1.660394    1.837028
     21          1           0        0.262237    2.302114    0.287546
     22          1           0        1.846495    2.480546   -0.478447
     23          1           0        0.181017    1.470998   -2.007271
     24          1           0        1.565776    0.395641   -1.715046
     25          1           0       -0.031443   -1.115553   -1.319456
     26          1           0       -3.827429    2.066549    0.311403
     27          1           0       -5.198195   -1.027541    1.463367
     28          1           0       -5.759395    0.294169    0.637055
 ---------------------------------------------------------------------

 SCF Done:  E(UB3LYP) =  -1022.95822616     A.U. after   33 cycles
 SCF Done:  E(UB3LYP) =  -1022.95822616     a.u. after    2 cycles

 The electronic state is 2-A.
 Alpha  occ. eigenvalues --  -88.77676 -14.28650 -14.24881 -14.22069 -14.21099
 Alpha  occ. eigenvalues --  -14.20572 -10.16834 -10.13658 -10.13195 -10.13137
 Alpha  occ. eigenvalues --  -10.12298 -10.11292 -10.10021 -10.09081 -10.08842
 Alpha  occ. eigenvalues --   -7.86344  -5.82638  -5.82316  -5.81857  -0.93530
 Alpha  occ. eigenvalues --   -0.88909  -0.83276  -0.80717  -0.80215  -0.70261
 Alpha  occ. eigenvalues --   -0.68024  -0.66083  -0.63123  -0.60419  -0.53962
 Alpha  occ. eigenvalues --   -0.51545  -0.50085  -0.48928  -0.46603  -0.44358
 Alpha  occ. eigenvalues --   -0.43202  -0.41141  -0.39808  -0.39266  -0.37375
 Alpha  occ. eigenvalues --   -0.35457  -0.35103  -0.34323  -0.33875  -0.32507
 Alpha  occ. eigenvalues --   -0.32237  -0.31656  -0.28963  -0.27707  -0.27421
 Alpha  occ. eigenvalues --   -0.26675  -0.23236  -0.19616  -0.19153  -0.18782
 Alpha  occ. eigenvalues --   -0.18030  -0.16802  -0.15034  -0.09989   0.03899
 Alpha virt. eigenvalues --    0.05389   0.05787   0.07184   0.07759   0.08271
 Alpha virt. eigenvalues --    0.08422   0.08803   0.09769   0.09823   0.10314
 Alpha virt. eigenvalues --    0.10555   0.10972   0.11356   0.12044   0.13022

  Beta  occ. eigenvalues --  -88.77664 -14.28651 -14.24862 -14.21988 -14.21098
  Beta  occ. eigenvalues --  -14.20566 -10.16830 -10.13643 -10.13180 -10.13116
  Beta  occ. eigenvalues --  -10.12291 -10.11278 -10.10018 -10.09067 -10.08832
  Beta  occ. eigenvalues --   -7.86329  -5.82626  -5.82306  -5.81845  -0.93524
  Beta  occ. eigenvalues --   -0.88888  -0.83225  -0.80666  -0.80169  -0.70235
  Beta  occ. eigenvalues --   -0.67972  -0.66059  -0.63086  -0.60379  -0.53936
  Beta  occ. eigenvalues --   -0.51531  -0.50027  -0.48885  -0.46543  -0.44311
  Beta  occ. eigenvalues --   -0.43160  -0.41087  -0.39722  -0.39236  -0.37345
  Beta  occ. eigenvalues --   -0.35430  -0.35067  -0.34299  -0.33848  -0.32493
  Beta  occ. eigenvalues --   -0.32194  -0.31628  -0.28935  -0.27681  -0.27396
  Beta  occ. eigenvalues --   -0.26641  -0.23187  -0.19596  -0.19146  -0.18766
  Beta  occ. eigenvalues --   -0.18014  -0.16754  -0.15017  -0.09944
  Beta virt. eigenvalues --    0.05874   0.06418   0.07071   0.07434   0.08008
  Beta virt. eigenvalues --    0.08533   0.08839   0.09019   0.09986   0.10111
  Beta virt. eigenvalues --    0.10571   0.10845   0.11203   0.11716   0.12307

 Mulliken charges and spin densities:
               1          2
     1  C    0.179949  -0.474802
     2  C   -0.088156   0.014682
     3  N    0.102063  -0.005075
     4  C    0.212092  -0.365291
     5  N   -0.179862   0.021320
     6  C   -0.206226  -0.279043
     7  C    0.042984  -0.170939
     8  C    0.182064  -0.382473
     9  N   -0.055706   0.098693
    10  C    0.531265  -0.834969
    11  N   -0.132195   0.067528
    12  C    0.604938  -0.629572
    13  C    0.366948  -0.876191
    14  S   -0.562804   0.574512
    15  N   -0.362434   0.074802
    16  H    0.054374   0.085992
    17  H   -0.245100   0.396148
    18  H   -0.117142   0.262099
    19  H    0.077995   0.109808
    20  H   -0.523595   0.735166
    21  H    0.127692   0.056354
    22  H   -0.047091   0.204649
    23  H    0.100542   0.082513
    24  H    0.122831   0.072543
    25  H    0.081210   0.214472
    26  H   -0.506223   0.673625
    27  H   -0.414828   0.672065
    28  H   -0.345586   0.601385
 Sum of Mulliken charges =  -1.00000   1.00000

 Dipole moment (field-independent basis, Debye):
    X=              6.0482    Y=             -1.0137    Z=             -3.2853  Tot=              6.9572
 Quadrupole moment (field-independent basis, Debye-Ang):
   XX=           -231.7582   YY=           -129.1434   ZZ=           -126.0425
   XY=             -0.1034   XZ=             11.2409   YZ=             -1.7483

 Summary of Natural Population Analysis:

                                       Natural Population
                Natural  -----------------------------------------------
    Atom  No    Charge         Core      Valence    Rydberg      Total
 -----------------------------------------------------------------------
      C    1   -0.04076      0.99959     2.02764    0.01353     3.04076
      C    2   -0.03609      0.99955     2.02481    0.01173     3.03609
      N    3   -0.20859      0.99965     2.69789    0.01105     3.70859
      C    4    0.10229      0.99963     1.88052    0.01756     2.89771
      N    5   -0.25874      0.99973     2.74792    0.01109     3.75874
      C    6   -0.08388      0.99960     2.07321    0.01107     3.08388
      C    7   -0.20199      0.99962     2.19434    0.00803     3.20199
      C    8   -0.08758      0.99961     2.07772    0.01024     3.08758
      N    9   -0.32994      0.99966     2.81791    0.01238     3.82994
      C   10    0.13828      0.99959     1.84220    0.01993     2.86172
      N   11   -0.27616      0.99963     2.76486    0.01167     3.77616
      C   12   -0.04806      0.99943     2.03312    0.01551     3.04806
      C   13   -0.00611      0.99948     1.99093    0.01571     3.00611
      S   14    0.14983      4.99943     2.83274    0.01800     7.85017
      N   15   -0.40789      0.99971     2.89592    0.01226     3.90789
      H   16    0.09617      0.00000     0.40286    0.00096     0.40383
      H   17    0.10842      0.00000     0.39017    0.00141     0.39158
      H   18    0.09414      0.00000     0.40445    0.00140     0.40586
      H   19    0.10776      0.00000     0.39061    0.00162     0.39224
      H   20    0.10388      0.00000     0.39461    0.00150     0.39612
      H   21    0.11612      0.00000     0.38192    0.00195     0.38388
      H   22    0.09851      0.00000     0.40025    0.00125     0.40149
      H   23    0.09770      0.00000     0.40081    0.00148     0.40230
      H   24    0.09926      0.00000     0.39947    0.00127     0.40074
      H   25    0.19227      0.00000     0.30523    0.00250     0.30773
      H   26    0.10038      0.00000     0.39801    0.00161     0.39962
      H   27    0.18854      0.00000     0.30355    0.00791     0.31146
      H   28    0.19224      0.00000     0.29925    0.00851     0.30776
 =======================================================================
   * Total *    0.00000     18.99392    39.77294    0.23314    59.00000

 Normal termination of Gaussian 16 at Thu Dec 10 17:20:24 2020.
