 Gaussian 16, Revision A.03,

 -----------------------------------------------------------
 # opt freq B3LYP/6-31G(d) empiricaldispersion=gd3bj scf=xqc
 -----------------------------------------------------------

 ------------------------------
 CID_77025626_JID_4597_neutraal
 ------------------------------
 Symbolic Z-matrix:
 Charge =  0 Multiplicity = 1

 SCF Done:  E(RB3LYP) =  -1065.01133595     A.U. after   14 cycles
 SCF Done:  E(RB3LYP) =  -1065.01666252     A.U. after   12 cycles
 SCF Done:  E(RB3LYP) =  -1065.01781671     A.U. after   12 cycles
 SCF Done:  E(RB3LYP) =  -1065.01863562     A.U. after   12 cycles
 SCF Done:  E(RB3LYP) =  -1065.01941959     A.U. after   14 cycles
 SCF Done:  E(RB3LYP) =  -1065.01958339     A.U. after   14 cycles
 SCF Done:  E(RB3LYP) =  -1065.02042540     A.U. after   12 cycles
 SCF Done:  E(RB3LYP) =  -1065.02019563     A.U. after   13 cycles
 SCF Done:  E(RB3LYP) =  -1065.02118251     A.U. after   12 cycles
 SCF Done:  E(RB3LYP) =  -1065.02134596     A.U. after   12 cycles
 SCF Done:  E(RB3LYP) =  -1065.03189886     A.U. after    9 cycles
 SCF Done:  E(RB3LYP) =  -1065.03189983     A.U. after    8 cycles
 SCF Done:  E(RB3LYP) =  -1065.03190004     A.U. after    7 cycles
 SCF Done:  E(RB3LYP) =  -1065.03190014     A.U. after    7 cycles
 SCF Done:  E(RB3LYP) =  -1065.03190016     A.U. after    7 cycles
 Optimization completed.
    -- Stationary point found.
 Normal termination of Gaussian 16 at Thu Dec 10 10:28:45 2020.

 --------------------------------------------------------------------
 #N Geom=AllCheck Guess=TCheck SCRF=Check GenChk RB3LYP/6-31G(d) Freq
 --------------------------------------------------------------------

 Structure from the checkpoint file:  "JID_4597.chk"
 ------------------------------
 CID_77025626_JID_4597_neutraal
 ------------------------------
 Charge =  0 Multiplicity = 1

 SCF Done:  E(RB3LYP) =  -1065.03190016     A.U. after    1 cycles

  Exact polarizability: 153.737   3.689 107.892   1.323   3.113 103.635
 Approx polarizability: 209.474  10.238 155.957  -0.633  12.465 161.383

                      1                      2                      3
                      A                      A                      A
 Frequencies --     27.3724                41.7468                52.2982
 Red. masses --      5.1738                 5.6569                 5.1281
 Frc consts  --      0.0023                 0.0058                 0.0083
 IR Inten    --      2.2430                 3.8405                 0.9881

                      4                      5                      6
                      A                      A                      A
 Frequencies --     71.1719                83.2909               128.5258
 Red. masses --      5.6706                 3.8754                 3.4221
 Frc consts  --      0.0169                 0.0158                 0.0333
 IR Inten    --      0.4393                 7.1683                 2.0998

                      7                      8                      9
                      A                      A                      A
 Frequencies --    187.2259               206.5287               208.3136
 Red. masses --      3.0262                 2.6973                 1.4585
 Frc consts  --      0.0625                 0.0678                 0.0373
 IR Inten    --      3.0612                 0.2001                 1.7544

                     10                     11                     12
                      A                      A                      A
 Frequencies --    215.6741               234.2239               264.6068
 Red. masses --      2.5400                 2.0476                 2.8936
 Frc consts  --      0.0696                 0.0662                 0.1194
 IR Inten    --      1.9738                 5.5171                25.3545

                     13                     14                     15
                      A                      A                      A
 Frequencies --    268.6596               279.3445               314.2803
 Red. masses --      3.9960                 2.5230                 2.5131
 Frc consts  --      0.1699                 0.1160                 0.1463
 IR Inten    --      5.1807                 4.6436                12.6944

                     16                     17                     18
                      A                      A                      A
 Frequencies --    335.9026               339.7758               346.7693
 Red. masses --      2.3214                 3.1458                 1.8298
 Frc consts  --      0.1543                 0.2140                 0.1296
 IR Inten    --     23.6946                 1.1768                65.4260

                     19                     20                     21
                      A                      A                      A
 Frequencies --    427.8754               437.0780               465.0301
 Red. masses --      3.5933                 2.4851                 7.5274
 Frc consts  --      0.3876                 0.2797                 0.9591
 IR Inten    --     26.5897                24.8725                21.6858

                     22                     23                     24
                      A                      A                      A
 Frequencies --    500.9227               535.9958               569.4019
 Red. masses --      2.5069                 3.1398                 1.3699
 Frc consts  --      0.3706                 0.5315                 0.2617
 IR Inten    --      3.8886                16.7421                54.4355

                     25                     26                     27
                      A                      A                      A
 Frequencies --    602.8802               655.2239               673.2614
 Red. masses --      4.2105                 3.9566                 3.4049
 Frc consts  --      0.9017                 1.0008                 0.9093
 IR Inten    --      9.2229                 7.3129                 6.8048

                     28                     29                     30
                      A                      A                      A
 Frequencies --    718.4495               765.5860               821.9558
 Red. masses --      2.9559                 1.6382                 2.0454
 Frc consts  --      0.8989                 0.5657                 0.8142
 IR Inten    --     28.9310                 5.2935                30.4243

                     31                     32                     33
                      A                      A                      A
 Frequencies --    848.5470               853.8508               905.2399
 Red. masses --      1.7668                 1.9141                 2.6389
 Frc consts  --      0.7495                 0.8222                 1.2741
 IR Inten    --    154.0261                23.5207                 3.3574

                     34                     35                     36
                      A                      A                      A
 Frequencies --    916.9657               969.3562               979.7896
 Red. masses --      1.3120                 3.5815                 1.9442
 Frc consts  --      0.6499                 1.9828                 1.0996
 IR Inten    --    112.6788                65.6287               112.5726

                     37                     38                     39
                      A                      A                      A
 Frequencies --    986.5116               995.4567              1004.5158
 Red. masses --      1.3808                 1.9303                 1.5335
 Frc consts  --      0.7917                 1.1270                 0.9117
 IR Inten    --      1.9841                12.0559                10.0332

                     40                     41                     42
                      A                      A                      A
 Frequencies --   1040.6316              1061.7221              1094.0568
 Red. masses --      1.7521                 1.8338                 2.8634
 Frc consts  --      1.1179                 1.2180                 2.0194
 IR Inten    --     18.4878                 2.9328                10.1457

                     43                     44                     45
                      A                      A                      A
 Frequencies --   1114.0869              1132.5544              1163.5892
 Red. masses --      3.6116                 2.1035                 3.0885
 Frc consts  --      2.6412                 1.5897                 2.4637
 IR Inten    --     78.0728                59.6230                33.7668

                     46                     47                     48
                      A                      A                      A
 Frequencies --   1203.4035              1205.4944              1232.0163
 Red. masses --      1.3437                 1.1678                 1.3877
 Frc consts  --      1.1465                 0.9999                 1.2410
 IR Inten    --     28.5155                22.7566                42.9528

                     49                     50                     51
                      A                      A                      A
 Frequencies --   1247.9580              1294.4424              1315.8921
 Red. masses --      1.3395                 2.8654                 1.1725
 Frc consts  --      1.2291                 2.8288                 1.1962
 IR Inten    --      1.0648               131.6238                 8.9262

                     52                     53                     54
                      A                      A                      A
 Frequencies --   1323.4356              1336.9704              1347.0796
 Red. masses --      2.0225                 1.5557                 1.3076
 Frc consts  --      2.0871                 1.6384                 1.3980
 IR Inten    --     47.3790                71.7841                 3.2210

                     55                     56                     57
                      A                      A                      A
 Frequencies --   1373.7269              1383.4427              1393.6943
 Red. masses --      1.2137                 1.3881                 1.3057
 Frc consts  --      1.3494                 1.5653                 1.4943
 IR Inten    --     10.4823                44.8000                32.3973

                     58                     59                     60
                      A                      A                      A
 Frequencies --   1408.9648              1437.8910              1449.5233
 Red. masses --      1.3415                 1.4059                 1.9314
 Frc consts  --      1.5691                 1.7126                 2.3910
 IR Inten    --      3.5803                 6.4559                 1.5370

                     61                     62                     63
                      A                      A                      A
 Frequencies --   1476.6795              1482.1035              1493.6050
 Red. masses --      1.0910                 1.0540                 1.0561
 Frc consts  --      1.4016                 1.3641                 1.3881
 IR Inten    --      6.8230                 3.5749                 3.8792

                     64                     65                     66
                      A                      A                      A
 Frequencies --   1510.2028              1515.1255              1522.8171
 Red. masses --      1.0970                 1.1774                 1.0960
 Frc consts  --      1.4741                 1.5925                 1.4975
 IR Inten    --     13.0842                34.2630                 5.0316

                     67                     68                     69
                      A                      A                      A
 Frequencies --   1531.6516              1551.7453              1672.8540
 Red. masses --      1.1226                 1.0813                 1.1491
 Frc consts  --      1.5516                 1.5341                 1.8947
 IR Inten    --     28.9089                 7.9653                25.7331

                     70                     71                     72
                      A                      A                      A
 Frequencies --   1745.6062              2980.3703              3021.4124
 Red. masses --      6.3113                 1.0717                 1.0665
 Frc consts  --     11.3308                 5.6089                 5.7364
 IR Inten    --     93.7523                61.3264                49.3175

                     73                     74                     75
                      A                      A                      A
 Frequencies --   3044.6585              3063.6874              3078.7561
 Red. masses --      1.0704                 1.0873                 1.0833
 Frc consts  --      5.8463                 6.0127                 6.0502
 IR Inten    --     18.3181                41.0420                 8.6628

                     76                     77                     78
                      A                      A                      A
 Frequencies --   3080.9550              3086.1555              3090.4994
 Red. masses --      1.0643                 1.0332                 1.0685
 Frc consts  --      5.9521                 5.7977                 6.0129
 IR Inten    --     16.6115                 2.9753                11.0794

                     79                     80                     81
                      A                      A                      A
 Frequencies --   3109.8034              3136.8784              3147.9648
 Red. masses --      1.0953                 1.1020                 1.1063
 Frc consts  --      6.2410                 6.3888                 6.4593
 IR Inten    --     23.3115                13.4050                 4.4143

                     82                     83                     84
                      A                      A                      A
 Frequencies --   3186.2810              3197.1201              3409.2949
 Red. masses --      1.1066                 1.1076                 1.0579
 Frc consts  --      6.6190                 6.6704                 7.2445
 IR Inten    --      0.4462                 2.1458               226.1001

                     85                     86                     87
                      A                      A                      A
 Frequencies --   3477.8628              3583.7608              3775.6677
 Red. masses --      1.0739                 1.0881                 1.0678
 Frc consts  --      7.6529                 8.2339                 8.9684
 IR Inten    --     16.2007                38.2548                59.8087

 - Thermochemistry -
 -------------------
 Temperature   298.150 Kelvin.  Pressure   1.00000 Atm.
 Atom     1 has atomic number  6 and mass  12.00000

 Molecular mass:   223.09906 amu.
 Principal axes and moments of inertia in atomic units:
                           1         2         3
     Eigenvalues --  1391.878066751.414717137.08764
           X            0.99994   0.00753   0.00795
           Y           -0.00724   0.99935  -0.03518
           Z           -0.00821   0.03512   0.99935
 This molecule is an asymmetric top.
 Rotational symmetry number  1.
 Warning -- assumption of classical behavior for rotation
           may cause significant error
 Rotational temperatures (Kelvin)      0.06223     0.01283     0.01214
 Rotational constants (GHZ):           1.29662     0.26731     0.25287
 Zero-point vibrational energy     692480.5 (Joules/Mol)
                                  165.50681 (Kcal/Mol)
 Warning -- explicit consideration of  25 degrees of freedom as
           vibrations may cause significant error
 Vibrational temperatures:     39.38    60.06    75.25   102.40   119.84
          (Kelvin)            184.92   269.38   297.15   299.72   310.31
                              337.00   380.71   386.54   401.91   452.18
                              483.29   488.86   498.92   615.62   628.86
                              669.07   720.72   771.18   819.24   867.41
                              942.72   968.67  1033.69  1101.51  1182.61
                             1220.87  1228.50  1302.44  1319.31  1394.69
                             1409.70  1419.37  1432.24  1445.27  1497.24
                             1527.58  1574.10  1602.92  1629.49  1674.15
                             1731.43  1734.44  1772.60  1795.53  1862.41
                             1893.28  1904.13  1923.60  1938.15  1976.49
                             1990.47  2005.22  2027.19  2068.80  2085.54
                             2124.61  2132.42  2148.96  2172.84  2179.93
                             2190.99  2203.71  2232.62  2406.86  2511.54
                             4288.09  4347.14  4380.58  4407.96  4429.64
                             4432.81  4440.29  4446.54  4474.31  4513.27
                             4529.22  4584.35  4599.94  4905.21  5003.87
                             5156.23  5432.34

 Zero-point correction=                           0.263752 (Hartree/Particle)
 Thermal correction to Energy=                    0.279872
 Thermal correction to Enthalpy=                  0.280816
 Thermal correction to Gibbs Free Energy=         0.219300
 Sum of electronic and zero-point Energies=          -1064.768148
 Sum of electronic and thermal Energies=             -1064.752028
 Sum of electronic and thermal Enthalpies=           -1064.751084
 Sum of electronic and thermal Free Energies=        -1064.812600

                     E (Thermal)             CV                S
                      KCal/Mol        Cal/Mol-Kelvin    Cal/Mol-Kelvin
 Total                  175.622             59.550            129.471
 Electronic               0.000              0.000              0.000
 Translational            0.889              2.981             42.110
 Rotational               0.889              2.981             32.572
 Vibrational            173.845             53.588             54.789
 Vibration     1          0.593              1.984              6.011
 Vibration     2          0.594              1.980              5.174
 Vibration     3          0.596              1.977              4.729
 Vibration     4          0.598              1.968              4.121
 Vibration     5          0.600              1.961              3.812
 Vibration     6          0.611              1.925              2.968
 Vibration     7          0.632              1.857              2.255
 Vibration     8          0.641              1.831              2.074
 Vibration     9          0.642              1.828              2.058
 Vibration    10          0.645              1.817              1.995
 Vibration    11          0.654              1.788              1.846
 Vibration    12          0.671              1.738              1.631
 Vibration    13          0.673              1.731              1.605
 Vibration    14          0.680              1.712              1.538
 Vibration    15          0.702              1.646              1.340
 Vibration    16          0.717              1.604              1.232
 Vibration    17          0.720              1.596              1.213
 Vibration    18          0.725              1.582              1.181
 Vibration    19          0.789              1.410              0.866
 Vibration    20          0.797              1.389              0.836
 Vibration    21          0.822              1.328              0.752
 Vibration    22          0.856              1.248              0.656
 Vibration    23          0.891              1.170              0.574
 Vibration    24          0.925              1.097              0.505
 Vibration    25          0.961              1.026              0.445

 Optimization completed.
    -- Stationary point found.
 Normal termination of Gaussian 16 at Thu Dec 10 10:38:21 2020.

 ----------------------------------------------------------------------
 # B3LYP/6-311++G(d,p) empiricaldispersion=gd3bj scf=xqc pop=npa geom=c
 heck
 ----------------------------------------------------------------------

 --------------------------------------
 CID_77025626_JID_4597_Energie_neutraal
 --------------------------------------
 Structure from the checkpoint file:  "JID_4597.chk"
 Charge =  0 Multiplicity = 1

 SCF Done:  E(RB3LYP) =  -1065.27388453     A.U. after   14 cycles
 Normal termination of Gaussian 16 at Thu Dec 10 10:43:01 2020.

 ----------------------------------------------------------------------
 # B3LYP/6-311++G(d,p) empiricaldispersion=gd3bj scf=xqc pop=npa geom=c
 heck
 ----------------------------------------------------------------------

 ------------------------------------
 CID_77025626_JID_4597_Energie_kation
 ------------------------------------
 Structure from the checkpoint file:  "JID_4597.chk"
 Charge =  1 Multiplicity = 2

 SCF Done:  E(UB3LYP) =  -1064.97279889     A.U. after   23 cycles
 Normal termination of Gaussian 16 at Thu Dec 10 10:53:30 2020.
 Gaussian 16:  ES64L-G16RevA.03 25-Dec-2016

 ----------------------------------------------------------------------
 # B3LYP/6-311++G(d,p) empiricaldispersion=gd3bj scf=xqc pop=npa geom=c
 heck
 ----------------------------------------------------------------------

 -----------------------------------
 CID_77025626_JID_4597_Energie_anion
 -----------------------------------
 Structure from the checkpoint file:  "JID_4597.chk"
 Charge = -1 Multiplicity = 2

                         Standard orientation:
 ---------------------------------------------------------------------
 Center     Atomic      Atomic             Coordinates (Angstroms)
 Number     Number       Type             X           Y           Z
 ---------------------------------------------------------------------
      1          6           0       -1.983301   -1.770688    0.572528
      2         16           0       -2.933670   -0.274281    0.227356
      3          8           0       -4.319877   -0.672879   -0.056417
      4          8           0       -2.639695    0.700275    1.298395
      5          6           0       -2.205905    0.360510   -1.327737
      6          6           0       -1.121373    1.413674   -1.102728
      7          7           0       -0.077987    0.940793   -0.193482
      8          6           0        1.154803    1.738045   -0.257148
      9          6           0        2.104876    1.402190    0.896281
     10          6           0        2.335876   -0.107279    1.116154
     11          6           0        2.716416   -0.828435   -0.152306
     12          7           0        3.904520   -0.919316   -0.637620
     13          8           0        4.848720   -0.286828    0.229769
     14          7           0        1.667795   -1.446699   -0.830663
     15          1           0       -2.311438   -2.118468    1.554635
     16          1           0       -0.918043   -1.535153    0.580106
     17          1           0       -2.212728   -2.518854   -0.188616
     18          1           0       -1.827804   -0.509805   -1.873165
     19          1           0       -3.058781    0.772980   -1.874264
     20          1           0       -0.662056    1.624223   -2.075792
     21          1           0       -1.585077    2.348624   -0.754765
     22          1           0       -0.459194    0.989957    0.751715
     23          1           0        1.643264    1.516784   -1.214777
     24          1           0        0.946525    2.821649   -0.247677
     25          1           0        3.067196    1.885433    0.699211
     26          1           0        1.715405    1.831818    1.828819
     27          1           0        3.135038   -0.238058    1.849519
     28          1           0        1.430885   -0.573137    1.517935
     29          1           0        5.682302   -0.496656   -0.216066
     30          1           0        0.835362   -0.852812   -0.826372
     31          1           0        1.936036   -1.756110   -1.760028
 ---------------------------------------------------------------------

 SCF Done:  E(UB3LYP) =  -1065.26570527     A.U. after   33 cycles
 SCF Done:  E(UB3LYP) =  -1065.26570527     a.u. after    1 cycles

 The electronic state is 2-A.
 Alpha  occ. eigenvalues --  -88.95034 -19.06333 -19.01969 -19.01838 -14.24351
 Alpha  occ. eigenvalues --  -14.21670 -14.21472 -10.14167 -10.11360 -10.11237
 Alpha  occ. eigenvalues --  -10.11177 -10.10601 -10.08822 -10.08802  -8.01534
 Alpha  occ. eigenvalues --   -5.97797  -5.97689  -5.97626  -1.01117  -0.97596
 Alpha  occ. eigenvalues --   -0.90874  -0.83887  -0.82524  -0.72536  -0.71338
 Alpha  occ. eigenvalues --   -0.69020  -0.66199  -0.60540  -0.55758  -0.51945
 Alpha  occ. eigenvalues --   -0.49347  -0.47118  -0.43026  -0.41971  -0.41060
 Alpha  occ. eigenvalues --   -0.39882  -0.39648  -0.38467  -0.37657  -0.36446
 Alpha  occ. eigenvalues --   -0.36180  -0.35173  -0.33987  -0.33413  -0.32420
 Alpha  occ. eigenvalues --   -0.31818  -0.30113  -0.29767  -0.29407  -0.27166
 Alpha  occ. eigenvalues --   -0.26155  -0.25147  -0.23680  -0.22528  -0.22421
 Alpha  occ. eigenvalues --   -0.21131  -0.19610  -0.18498  -0.15750  -0.12613
 Alpha  occ. eigenvalues --    0.04208
 Alpha virt. eigenvalues --    0.06251   0.06943   0.07172   0.08628   0.09100
 Alpha virt. eigenvalues --    0.09456   0.09896   0.10674   0.11099   0.11476
 Alpha virt. eigenvalues --    0.11965   0.12256   0.12409   0.13146   0.14101

  Beta  occ. eigenvalues --  -88.95031 -19.06325 -19.01950 -19.01830 -14.24339
  Beta  occ. eigenvalues --  -14.21656 -14.21442 -10.14166 -10.11321 -10.11186
  Beta  occ. eigenvalues --  -10.11137 -10.10579 -10.08813 -10.08793  -8.01530
  Beta  occ. eigenvalues --   -5.97794  -5.97687  -5.97623  -1.01082  -0.97584
  Beta  occ. eigenvalues --   -0.90836  -0.83857  -0.82495  -0.72500  -0.71288
  Beta  occ. eigenvalues --   -0.68983  -0.66140  -0.60492  -0.55675  -0.51894
  Beta  occ. eigenvalues --   -0.49269  -0.47079  -0.42994  -0.41920  -0.41023
  Beta  occ. eigenvalues --   -0.39851  -0.39619  -0.38427  -0.37620  -0.36402
  Beta  occ. eigenvalues --   -0.36152  -0.35132  -0.33947  -0.33379  -0.32382
  Beta  occ. eigenvalues --   -0.31792  -0.30062  -0.29714  -0.29357  -0.27141
  Beta  occ. eigenvalues --   -0.26117  -0.25125  -0.23650  -0.22511  -0.22400
  Beta  occ. eigenvalues --   -0.21105  -0.19577  -0.18467  -0.15699  -0.12591
  Beta virt. eigenvalues --    0.06179   0.07042   0.07585   0.07738   0.09383
  Beta virt. eigenvalues --    0.09481   0.10006   0.10140   0.10875   0.11368
  Beta virt. eigenvalues --    0.11824   0.12267   0.12382   0.12936   0.13368

 Mulliken charges and spin densities:
               1          2
     1  C    0.284832  -0.870439
     2  S    0.068434   0.196948
     3  O   -0.169328   0.032554
     4  O   -0.257778  -0.001524
     5  C   -0.492480  -0.002755
     6  C    1.341933  -1.723922
     7  N   -0.216228   0.082439
     8  C   -0.081885  -0.261894
     9  C   -0.357720  -0.126819
    10  C    0.585072  -0.750111
    11  C   -0.351213   0.108546
    12  N   -0.344394   0.125692
    13  O   -0.153313  -0.014847
    14  N   -0.414400   0.103725
    15  H    0.059282   0.145562
    16  H   -0.047878   0.235350
    17  H   -0.232391   0.446871
    18  H   -0.514424   0.776636
    19  H   -0.454400   0.708671
    20  H   -0.627888   0.815612
    21  H    0.066850   0.136397
    22  H    0.239990  -0.029839
    23  H   -0.183939   0.388462
    24  H   -0.323806   0.471393
    25  H    0.117450   0.042659
    26  H    0.065601   0.098794
    27  H    0.105487   0.100421
    28  H    0.094293   0.065823
    29  H    0.177560   0.089158
    30  H    1.314669  -0.954868
    31  H   -0.297987   0.565305
 Sum of Mulliken charges =  -1.00000   1.00000

 Dipole moment (field-independent basis, Debye):
    X=              3.7553    Y=              0.6195    Z=              5.3699  Tot=              6.5819
 Quadrupole moment (field-independent basis, Debye-Ang):
   XX=           -162.6006   YY=           -131.7642   ZZ=           -138.0539
   XY=              2.5862   XZ=             -0.8608   YZ=             -1.7945

 Summary of Natural Population Analysis:

                                       Natural Population
                Natural  -----------------------------------------------
    Atom  No    Charge         Core      Valence    Rydberg      Total
 -----------------------------------------------------------------------
      C    1   -0.39298      0.99960     2.38523    0.00814     3.39298
      S    2    1.01570      4.99931     1.89229    0.09270     6.98430
      O    3   -0.46814      0.99991     3.46258    0.00565     4.46814
      O    4   -0.47845      0.99991     3.47291    0.00563     4.47845
      C    5   -0.28800      0.99958     2.27385    0.01458     3.28800
      C    6   -0.09330      0.99961     2.08081    0.01288     3.09330
      N    7   -0.36608      0.99974     2.85389    0.01245     3.86608
      C    8   -0.08690      0.99962     2.07650    0.01078     3.08690
      C    9   -0.18794      0.99962     2.18123    0.00710     3.18794
      C   10   -0.22319      0.99958     2.21541    0.00820     3.22319
      C   11    0.20559      0.99962     1.77514    0.01966     2.79441
      N   12   -0.13454      0.99958     2.62171    0.01325     3.63454
      O   13   -0.30001      0.99990     3.29396    0.00616     4.30001
      N   14   -0.40745      0.99971     2.89739    0.01035     3.90745
      H   15    0.11598      0.00000     0.38300    0.00102     0.38402
      H   16    0.11936      0.00000     0.37838    0.00225     0.38064
      H   17    0.11876      0.00000     0.37952    0.00172     0.38124
      H   18    0.12018      0.00000     0.37422    0.00560     0.37982
      H   19    0.12248      0.00000     0.37600    0.00153     0.37752
      H   20    0.10793      0.00000     0.38800    0.00406     0.39207
      H   21    0.09185      0.00000     0.40670    0.00144     0.40815
      H   22    0.18529      0.00000     0.31125    0.00346     0.31471
      H   23    0.09542      0.00000     0.40270    0.00188     0.40458
      H   24    0.08727      0.00000     0.41146    0.00127     0.41273
      H   25    0.10611      0.00000     0.39257    0.00131     0.39389
      H   26    0.09535      0.00000     0.40359    0.00106     0.40465
      H   27    0.11618      0.00000     0.38253    0.00129     0.38382
      H   28    0.10462      0.00000     0.39367    0.00171     0.39538
      H   29    0.23118      0.00000     0.26568    0.00313     0.26882
      H   30    0.19982      0.00000     0.29565    0.00452     0.30018
      H   31    0.18790      0.00000     0.30873    0.00337     0.31210
 =======================================================================
   * Total *    0.00000     17.99529    41.73657    0.26814    60.00000

 Normal termination of Gaussian 16 at Thu Dec 10 11:08:17 2020.
