 Gaussian 16, Revision A.03,

 -----------------------------------------------------------
 # opt freq B3LYP/6-31G(d) empiricaldispersion=gd3bj scf=xqc
 -----------------------------------------------------------

 ------------------------------
 CID_69920127_JID_6444_neutraal
 ------------------------------
 Symbolic Z-matrix:
 Charge =  0 Multiplicity = 1

 SCF Done:  E(RB3LYP) =  -746.740309920     A.U. after   15 cycles
 SCF Done:  E(RB3LYP) =  -746.745890259     A.U. after   12 cycles
 SCF Done:  E(RB3LYP) =  -746.746427673     A.U. after   11 cycles
 SCF Done:  E(RB3LYP) =  -746.745657401     A.U. after   12 cycles
 SCF Done:  E(RB3LYP) =  -746.746817292     A.U. after   12 cycles
 SCF Done:  E(RB3LYP) =  -746.746987756     A.U. after   12 cycles
 SCF Done:  E(RB3LYP) =  -746.747184162     A.U. after   12 cycles
 SCF Done:  E(RB3LYP) =  -746.747295770     A.U. after   11 cycles
 SCF Done:  E(RB3LYP) =  -746.747394481     A.U. after   11 cycles
 SCF Done:  E(RB3LYP) =  -746.747416619     A.U. after   11 cycles
 SCF Done:  E(RB3LYP) =  -746.747435165     A.U. after   10 cycles
 SCF Done:  E(RB3LYP) =  -746.747455582     A.U. after   11 cycles
 SCF Done:  E(RB3LYP) =  -746.747458923     A.U. after    9 cycles
 SCF Done:  E(RB3LYP) =  -746.747459864     A.U. after    9 cycles
 SCF Done:  E(RB3LYP) =  -746.747459911     A.U. after    7 cycles
 Optimization completed.
    -- Stationary point found.
 Normal termination of Gaussian 16 at Thu Dec 10 22:49:53 2020.

 --------------------------------------------------------------------
 #N Geom=AllCheck Guess=TCheck SCRF=Check GenChk RB3LYP/6-31G(d) Freq
 --------------------------------------------------------------------

 Structure from the checkpoint file:  "JID_6444.chk"
 ------------------------------
 CID_69920127_JID_6444_neutraal
 ------------------------------
 Charge =  0 Multiplicity = 1

 SCF Done:  E(RB3LYP) =  -746.747459911     A.U. after    1 cycles

  Exact polarizability: 197.393  17.942 135.862  -8.707   2.223  92.690
 Approx polarizability: 247.934  25.768 215.750 -21.398   5.599 150.789

                      1                      2                      3
                      A                      A                      A
 Frequencies --     23.2720                39.4453                54.5324
 Red. masses --      3.7784                 4.0753                 4.3298
 Frc consts  --      0.0012                 0.0037                 0.0076
 IR Inten    --      0.2088                 0.3725                 2.5614

                      4                      5                      6
                      A                      A                      A
 Frequencies --     59.0791                77.5080                85.9899
 Red. masses --      4.1841                 3.3894                 2.8691
 Frc consts  --      0.0086                 0.0120                 0.0125
 IR Inten    --      2.7868                 0.2213                 5.8634

                      7                      8                      9
                      A                      A                      A
 Frequencies --    103.4632               136.6879               180.1645
 Red. masses --      3.0719                 3.3417                 2.5356
 Frc consts  --      0.0194                 0.0368                 0.0485
 IR Inten    --      1.6917                 0.2595                 8.1827

                     10                     11                     12
                      A                      A                      A
 Frequencies --    195.0902               204.4503               233.3787
 Red. masses --      1.2573                 2.3249                 2.1952
 Frc consts  --      0.0282                 0.0573                 0.0704
 IR Inten    --     60.3895                 3.1791                 4.1367

                     13                     14                     15
                      A                      A                      A
 Frequencies --    265.8457               284.7537               316.7650
 Red. masses --      2.7096                 2.3677                 4.5865
 Frc consts  --      0.1128                 0.1131                 0.2711
 IR Inten    --      0.1468                 0.2003                 1.5884

                     16                     17                     18
                      A                      A                      A
 Frequencies --    324.5562               370.7376               393.4068
 Red. masses --      5.0079                 3.8566                 4.6005
 Frc consts  --      0.3108                 0.3123                 0.4195
 IR Inten    --      1.4998                 3.2569                 8.5469

                     19                     20                     21
                      A                      A                      A
 Frequencies --    413.9443               478.8590               530.2636
 Red. masses --      2.1763                 3.2965                 2.9628
 Frc consts  --      0.2197                 0.4454                 0.4908
 IR Inten    --      3.9699                 2.3720                 3.2474

                     22                     23                     24
                      A                      A                      A
 Frequencies --    546.4917               554.7280               584.5701
 Red. masses --      3.4327                 4.9034                 3.5567
 Frc consts  --      0.6040                 0.8890                 0.7161
 IR Inten    --      3.8169                 5.7959                 9.0267

                     25                     26                     27
                      A                      A                      A
 Frequencies --    616.7989               671.3907               691.7164
 Red. masses --      3.0422                 3.4848                 4.4726
 Frc consts  --      0.6819                 0.9255                 1.2609
 IR Inten    --      6.9368                 4.4764                 7.7340

                     28                     29                     30
                      A                      A                      A
 Frequencies --    741.6955               770.3824               810.3206
 Red. masses --      4.1007                 2.9818                 3.0860
 Frc consts  --      1.3291                 1.0427                 1.1939
 IR Inten    --      4.5426                 7.7638                 5.6994

                     31                     32                     33
                      A                      A                      A
 Frequencies --    845.6424               860.8243               878.8762
 Red. masses --      1.7808                 1.4826                 1.3126
 Frc consts  --      0.7503                 0.6473                 0.5974
 IR Inten    --     25.2549                25.0582               165.6872

                     34                     35                     36
                      A                      A                      A
 Frequencies --    919.6060               930.3403               933.3458
 Red. masses --      2.9906                 1.8949                 2.2006
 Frc consts  --      1.4901                 0.9663                 1.1295
 IR Inten    --      5.3425                18.3710                 7.6522

                     37                     38                     39
                      A                      A                      A
 Frequencies --    942.3071               952.4694               985.5863
 Red. masses --      1.4536                 1.4296                 2.7564
 Frc consts  --      0.7605                 0.7641                 1.5775
 IR Inten    --     28.5419                 1.3859                12.5397

                     40                     41                     42
                      A                      A                      A
 Frequencies --   1036.0474              1036.1488              1082.0574
 Red. masses --      1.5886                 1.3970                 4.8102
 Frc consts  --      1.0047                 0.8837                 3.3183
 IR Inten    --     28.8424                 1.7247                44.9770

                     43                     44                     45
                      A                      A                      A
 Frequencies --   1119.1215              1135.9202              1156.3352
 Red. masses --      2.2885                 1.6724                 1.5535
 Frc consts  --      1.6887                 1.2714                 1.2238
 IR Inten    --     21.7556                 0.7585                30.0447

                     46                     47                     48
                      A                      A                      A
 Frequencies --   1182.7698              1186.5485              1193.1843
 Red. masses --      1.8636                 1.2697                 2.3936
 Frc consts  --      1.5360                 1.0532                 2.0078
 IR Inten    --    172.3325                 0.6308               146.6685

                     49                     50                     51
                      A                      A                      A
 Frequencies --   1223.4580              1239.4239              1243.8194
 Red. masses --      1.6033                 1.9710                 1.7546
 Frc consts  --      1.4140                 1.7839                 1.5993
 IR Inten    --     50.7216               350.8518                 5.9602

                     52                     53                     54
                      A                      A                      A
 Frequencies --   1252.6898              1277.6780              1309.4304
 Red. masses --      1.3372                 1.4205                 1.6482
 Frc consts  --      1.2363                 1.3663                 1.6651
 IR Inten    --      1.7417                10.8484                31.5996

                     55                     56                     57
                      A                      A                      A
 Frequencies --   1327.0227              1330.8902              1343.3124
 Red. masses --      1.4903                 2.8137                 1.5059
 Frc consts  --      1.5463                 2.9364                 1.6010
 IR Inten    --     14.0774               199.8915                10.6155

                     58                     59                     60
                      A                      A                      A
 Frequencies --   1376.7814              1454.7830              1467.0760
 Red. masses --      4.0006                 1.6520                 1.9669
 Frc consts  --      4.4679                 2.0600                 2.4942
 IR Inten    --     18.2125                26.5779                49.6851

                     61                     62                     63
                      A                      A                      A
 Frequencies --   1474.0153              1505.3409              1509.8141
 Red. masses --      1.3098                 1.1050                 1.4211
 Frc consts  --      1.6767                 1.4753                 1.9086
 IR Inten    --     14.5095                 4.4376                 5.0586

                     64                     65                     66
                      A                      A                      A
 Frequencies --   1520.6897              1525.6404              1534.1035
 Red. masses --      1.0492                 1.0814                 1.0752
 Frc consts  --      1.4296                 1.4829                 1.4909
 IR Inten    --      6.2737                 9.1504                51.1516

                     67                     68                     69
                      A                      A                      A
 Frequencies --   1564.3538              1652.6880              1666.1900
 Red. masses --      2.8670                 7.1541                 6.0855
 Frc consts  --      4.1337                11.5130                 9.9540
 IR Inten    --    132.1448                 5.2615                41.2681

                     70                     71                     72
                      A                      A                      A
 Frequencies --   1678.7360              1732.0482              1853.8353
 Red. masses --      1.1180                 4.4802                10.1590
 Frc consts  --      1.8564                 7.9190                20.5705
 IR Inten    --     72.5440                 6.7238               170.0700

                     73                     74                     75
                      A                      A                      A
 Frequencies --   2949.2334              3029.2899              3030.9956
 Red. masses --      1.0741                 1.0586                 1.0351
 Frc consts  --      5.5044                 5.7237                 5.6027
 IR Inten    --     50.5081                19.0390                56.7457

                     76                     77                     78
                      A                      A                      A
 Frequencies --   3064.8703              3083.6717              3092.7251
 Red. masses --      1.1027                 1.0858                 1.1064
 Frc consts  --      6.1028                 6.0831                 6.2353
 IR Inten    --     15.5392                19.5113                36.5648

                     79                     80                     81
                      A                      A                      A
 Frequencies --   3151.2398              3160.1459              3162.8696
 Red. masses --      1.0698                 1.0805                 1.1004
 Frc consts  --      6.2593                 6.3573                 6.4857
 IR Inten    --     19.2052                 6.0038                23.7851

                     82                     83                     84
                      A                      A                      A
 Frequencies --   3205.0210              3215.8738              3220.3468
 Red. masses --      1.0878                 1.0892                 1.0947
 Frc consts  --      6.5836                 6.6369                 6.6887
 IR Inten    --      4.6845                12.1854                 3.8386

                     85                     86                     87
                      A                      A                      A
 Frequencies --   3237.5889              3487.6174              3579.1335
 Red. masses --      1.1156                 1.0496                 1.0930
 Frc consts  --      6.8898                 7.5220                 8.2498
 IR Inten    --     20.5027                 5.2691                 2.5830

 - Thermochemistry -
 -------------------
 Temperature   298.150 Kelvin.  Pressure   1.00000 Atm.
 Atom     1 has atomic number  6 and mass  12.00000

 Molecular mass:   221.10519 amu.
 Principal axes and moments of inertia in atomic units:
                           1         2         3
     Eigenvalues --  1512.295457298.333858317.01566
           X            0.99998   0.00575  -0.00384
           Y           -0.00572   0.99995   0.00816
           Z            0.00389  -0.00814   0.99996
 This molecule is an asymmetric top.
 Rotational symmetry number  1.
 Warning -- assumption of classical behavior for rotation
           may cause significant error
 Rotational temperatures (Kelvin)      0.05727     0.01187     0.01041
 Rotational constants (GHZ):           1.19338     0.24728     0.21699
 Zero-point vibrational energy     669142.3 (Joules/Mol)
                                  159.92886 (Kcal/Mol)
 Warning -- explicit consideration of  25 degrees of freedom as
           vibrations may cause significant error
 Vibrational temperatures:     33.48    56.75    78.46    85.00   111.52
          (Kelvin)            123.72   148.86   196.66   259.22   280.69
                              294.16   335.78   382.49   409.70   455.75
                              466.96   533.41   566.02   595.57   688.97
                              762.93   786.28   798.13   841.07   887.44
                              965.98   995.23  1067.13  1108.41  1165.87
                             1216.69  1238.53  1264.51  1323.11  1338.55
                             1342.88  1355.77  1370.39  1418.04  1490.64
                             1490.79  1556.84  1610.17  1634.34  1663.71
                             1701.74  1707.18  1716.73  1760.28  1783.25
                             1789.58  1802.34  1838.29  1883.98  1909.29
                             1914.85  1932.73  1980.88  2093.11  2110.80
                             2120.78  2165.85  2172.29  2187.93  2195.06
                             2207.23  2250.76  2377.85  2397.28  2415.33
                             2492.03  2667.26  4243.29  4358.47  4360.93
                             4409.66  4436.72  4449.74  4533.93  4546.75
                             4550.66  4611.31  4626.93  4633.36  4658.17
                             5017.90  5149.57

 Zero-point correction=                           0.254863 (Hartree/Particle)
 Thermal correction to Energy=                    0.271375
 Thermal correction to Enthalpy=                  0.272319
 Thermal correction to Gibbs Free Energy=         0.208844
 Sum of electronic and zero-point Energies=           -746.492597
 Sum of electronic and thermal Energies=              -746.476085
 Sum of electronic and thermal Enthalpies=            -746.475141
 Sum of electronic and thermal Free Energies=         -746.538616

                     E (Thermal)             CV                S
                      KCal/Mol        Cal/Mol-Kelvin    Cal/Mol-Kelvin
 Total                  170.290             59.864            133.595
 Electronic               0.000              0.000              0.000
 Translational            0.889              2.981             42.083
 Rotational               0.889              2.981             32.884
 Vibrational            168.513             53.902             58.628
 Vibration     1          0.593              1.985              6.333
 Vibration     2          0.594              1.981              5.287
 Vibration     3          0.596              1.976              4.646
 Vibration     4          0.596              1.974              4.488
 Vibration     5          0.599              1.964              3.953
 Vibration     6          0.601              1.959              3.749
 Vibration     7          0.605              1.946              3.388
 Vibration     8          0.614              1.917              2.850
 Vibration     9          0.629              1.867              2.327
 Vibration    10          0.636              1.847              2.179
 Vibration    11          0.640              1.834              2.093
 Vibration    12          0.654              1.790              1.853
 Vibration    13          0.672              1.736              1.623
 Vibration    14          0.683              1.702              1.505
 Vibration    15          0.704              1.642              1.327
 Vibration    16          0.709              1.626              1.287
 Vibration    17          0.743              1.532              1.077
 Vibration    18          0.761              1.484              0.987
 Vibration    19          0.778              1.440              0.913
 Vibration    20          0.835              1.297              0.713
 Vibration    21          0.885              1.183              0.587
 Vibration    22          0.902              1.147              0.551
 Vibration    23          0.910              1.129              0.534
 Vibration    24          0.942              1.065              0.477
 Vibration    25          0.976              0.996              0.422

 Optimization completed.
    -- Stationary point found.
 Normal termination of Gaussian 16 at Thu Dec 10 22:58:22 2020.

 ----------------------------------------------------------------------
 # B3LYP/6-311++G(d,p) empiricaldispersion=gd3bj scf=xqc pop=npa geom=c
 heck
 ----------------------------------------------------------------------

 --------------------------------------
 CID_69920127_JID_6444_Energie_neutraal
 --------------------------------------
 Structure from the checkpoint file:  "JID_6444.chk"
 Charge =  0 Multiplicity = 1

 SCF Done:  E(RB3LYP) =  -746.967359368     A.U. after   15 cycles
 Normal termination of Gaussian 16 at Thu Dec 10 23:02:21 2020.

 ----------------------------------------------------------------------
 # B3LYP/6-311++G(d,p) empiricaldispersion=gd3bj scf=xqc pop=npa geom=c
 heck
 ----------------------------------------------------------------------

 ------------------------------------
 CID_69920127_JID_6444_Energie_kation
 ------------------------------------
 Structure from the checkpoint file:  "JID_6444.chk"
 Charge =  1 Multiplicity = 2

 SCF Done:  E(UB3LYP) =  -746.675942845     A.U. after   25 cycles
 Normal termination of Gaussian 16 at Thu Dec 10 23:10:06 2020.
 Gaussian 16:  ES64L-G16RevA.03 25-Dec-2016

 ----------------------------------------------------------------------
 # B3LYP/6-311++G(d,p) empiricaldispersion=gd3bj scf=xqc pop=npa geom=c
 heck
 ----------------------------------------------------------------------

 -----------------------------------
 CID_69920127_JID_6444_Energie_anion
 -----------------------------------
 Structure from the checkpoint file:  "JID_6444.chk"
 Charge = -1 Multiplicity = 2

                         Standard orientation:
 ---------------------------------------------------------------------
 Center     Atomic      Atomic             Coordinates (Angstroms)
 Number     Number       Type             X           Y           Z
 ---------------------------------------------------------------------
      1          6           0        0.727725    3.113034   -0.092176
      2          8           0        1.034033    1.761766   -0.395467
      3          6           0        0.049590    0.836555   -0.233423
      4          6           0        0.427094   -0.501951   -0.421752
      5          6           0       -0.498512   -1.524478   -0.306932
      6          6           0       -1.826972   -1.230876    0.004842
      7          6           0       -2.223552    0.091486    0.213169
      8          6           0       -1.279640    1.119523    0.088255
      9          6           0       -3.661228    0.415766    0.584537
     10          6           0       -4.664970   -0.257100   -0.313546
     11          6           0       -5.593078   -1.120639    0.098060
     12          8           0        1.736119   -0.797404   -0.800223
     13          6           0        2.716523   -0.598586    0.128895
     14          8           0        2.518180   -0.322766    1.285651
     15          6           0        4.079698   -0.727945   -0.514761
     16          7           0        5.083647   -0.993056    0.505590
     17          1           0        1.655720    3.668703   -0.234859
     18          1           0        0.391932    3.220981    0.946704
     19          1           0       -0.041624    3.511630   -0.766179
     20          1           0       -0.167101   -2.545785   -0.464176
     21          1           0       -2.556584   -2.030174    0.085901
     22          1           0       -1.594516    2.145290    0.243893
     23          1           0       -3.851806    0.118208    1.624503
     24          1           0       -3.800422    1.504647    0.542284
     25          1           0       -4.587841   -0.012787   -1.373218
     26          1           0       -6.292549   -1.583067   -0.592797
     27          1           0       -5.690499   -1.393930    1.146856
     28          1           0        4.047979   -1.537597   -1.252505
     29          1           0        4.219692    0.208294   -1.088195
     30          1           0        6.001661   -0.702531    0.180406
     31          1           0        4.857703   -0.441988    1.331562
 ---------------------------------------------------------------------

 SCF Done:  E(UB3LYP) =  -746.956316004     A.U. after   33 cycles
 SCF Done:  E(UB3LYP) =  -746.956316004     a.u. after    1 cycles

 The electronic state is 2-A.
 Alpha  occ. eigenvalues --  -19.08249 -19.06350 -19.02053 -14.20123 -10.20850
 Alpha  occ. eigenvalues --  -10.14742 -10.13906 -10.12469 -10.11384 -10.09545
 Alpha  occ. eigenvalues --  -10.09539 -10.09174 -10.08910 -10.08304 -10.08211
 Alpha  occ. eigenvalues --  -10.08027  -1.02322  -0.97887  -0.93736  -0.79484
 Alpha  occ. eigenvalues --   -0.77329  -0.71987  -0.67624  -0.66646  -0.62958
 Alpha  occ. eigenvalues --   -0.61362  -0.58528  -0.52730  -0.51872  -0.48484
 Alpha  occ. eigenvalues --   -0.47405  -0.43323  -0.42984  -0.41569  -0.39887
 Alpha  occ. eigenvalues --   -0.38515  -0.38182  -0.37717  -0.36954  -0.35707
 Alpha  occ. eigenvalues --   -0.35144  -0.35086  -0.33289  -0.32737  -0.30955
 Alpha  occ. eigenvalues --   -0.30068  -0.29636  -0.28348  -0.28187  -0.26958
 Alpha  occ. eigenvalues --   -0.26844  -0.24403  -0.23143  -0.22578  -0.19357
 Alpha  occ. eigenvalues --   -0.18523  -0.16108  -0.15424  -0.13309   0.04103
 Alpha virt. eigenvalues --    0.05663   0.06420   0.06455   0.07590   0.07909
 Alpha virt. eigenvalues --    0.08266   0.08375   0.08783   0.09262   0.09655
 Alpha virt. eigenvalues --    0.09955   0.10224   0.10710   0.11003   0.11661

  Beta  occ. eigenvalues --  -19.08245 -19.06343 -19.02023 -14.20091 -10.20809
  Beta  occ. eigenvalues --  -10.14747 -10.13879 -10.12418 -10.11369 -10.09521
  Beta  occ. eigenvalues --  -10.09517 -10.09161 -10.08901 -10.08281 -10.08182
  Beta  occ. eigenvalues --  -10.08025  -1.02285  -0.97870  -0.93690  -0.79428
  Beta  occ. eigenvalues --   -0.77294  -0.71934  -0.67566  -0.66612  -0.62887
  Beta  occ. eigenvalues --   -0.61297  -0.58473  -0.52674  -0.51823  -0.48430
  Beta  occ. eigenvalues --   -0.47345  -0.43273  -0.42941  -0.41521  -0.39838
  Beta  occ. eigenvalues --   -0.38450  -0.38122  -0.37682  -0.36919  -0.35663
  Beta  occ. eigenvalues --   -0.35097  -0.35030  -0.33231  -0.32680  -0.30920
  Beta  occ. eigenvalues --   -0.30013  -0.29580  -0.28304  -0.28130  -0.26923
  Beta  occ. eigenvalues --   -0.26797  -0.24363  -0.23096  -0.22507  -0.19313
  Beta  occ. eigenvalues --   -0.18394  -0.15997  -0.15383  -0.13239
  Beta virt. eigenvalues --    0.06062   0.06570   0.06730   0.07319   0.07678
  Beta virt. eigenvalues --    0.08224   0.08361   0.08622   0.09142   0.09571
  Beta virt. eigenvalues --    0.09797   0.10326   0.10744   0.11213   0.11285

 Mulliken charges and spin densities:
               1          2
     1  C    0.903545  -1.236293
     2  O   -0.207268   0.069032
     3  C   -0.286101   0.068884
     4  C   -0.287099  -0.123629
     5  C   -0.041405   0.072467
     6  C   -0.636480   0.053472
     7  C    0.903693   0.027047
     8  C    0.342039  -0.289654
     9  C    0.816751  -1.142180
    10  C   -0.578112   0.757908
    11  C    0.130197  -0.684897
    12  O   -0.002259   0.007736
    13  C   -0.762656   0.513586
    14  O   -0.203524   0.004867
    15  C    0.821140  -1.174473
    16  N   -0.418885   0.057075
    17  H   -0.627539   0.803867
    18  H   -0.185065   0.356029
    19  H   -0.362986   0.515487
    20  H    0.103181   0.056675
    21  H    0.160476  -0.014142
    22  H    0.057809   0.135741
    23  H   -0.055127   0.214843
    24  H   -0.400008   0.542263
    25  H   -0.063353   0.220764
    26  H    0.044796   0.072488
    27  H   -0.016108   0.123242
    28  H    0.087789   0.097423
    29  H   -0.319336   0.510945
    30  H   -0.111892   0.336585
    31  H    0.193787   0.046841
 Sum of Mulliken charges =  -1.00000   1.00000

 Dipole moment (field-independent basis, Debye):
    X=             -4.0568    Y=             -5.4782    Z=             -1.2058  Tot=              6.9226
 Quadrupole moment (field-independent basis, Debye-Ang):
   XX=           -192.8295   YY=           -142.4213   ZZ=           -122.2563
   XY=              4.6080   XZ=              1.4046   YZ=              3.2344

 Summary of Natural Population Analysis:

                                       Natural Population
                Natural  -----------------------------------------------
    Atom  No    Charge         Core      Valence    Rydberg      Total
 -----------------------------------------------------------------------
      C    1   -0.09959      0.99960     2.09099    0.00900     3.09959
      O    2   -0.26806      0.99986     3.25773    0.01048     4.26806
      C    3    0.15577      0.99933     1.83184    0.01306     2.84423
      C    4    0.13028      0.99931     1.85671    0.01370     2.86972
      C    5   -0.10400      0.99952     2.09602    0.00847     3.10400
      C    6   -0.11393      0.99951     2.10679    0.00763     3.11393
      C    7   -0.00484      0.99952     1.99529    0.01003     3.00484
      C    8   -0.13383      0.99948     2.12570    0.00866     3.13383
      C    9   -0.21651      0.99958     2.20557    0.01137     3.21651
      C   10   -0.07237      0.99957     2.06182    0.01098     3.07237
      C   11   -0.19710      0.99955     2.19098    0.00657     3.19710
      O   12   -0.27561      0.99984     3.26709    0.00868     4.27561
      C   13    0.41437      0.99969     1.56009    0.02585     2.58563
      O   14   -0.29366      0.99986     3.28803    0.00577     4.29366
      C   15   -0.13691      0.99960     2.12584    0.01146     3.13691
      N   16   -0.42349      0.99977     2.91261    0.01111     3.92349
      H   17    0.09771      0.00000     0.40052    0.00177     0.40229
      H   18    0.08774      0.00000     0.41054    0.00171     0.41226
      H   19    0.08498      0.00000     0.41299    0.00203     0.41502
      H   20    0.10495      0.00000     0.39417    0.00088     0.39505
      H   21    0.10303      0.00000     0.39570    0.00127     0.39697
      H   22    0.10855      0.00000     0.38960    0.00185     0.39145
      H   23    0.10511      0.00000     0.39365    0.00124     0.39489
      H   24    0.10960      0.00000     0.38858    0.00182     0.39040
      H   25    0.09333      0.00000     0.40566    0.00100     0.40667
      H   26    0.09216      0.00000     0.40693    0.00091     0.40784
      H   27    0.08962      0.00000     0.40918    0.00120     0.41038
      H   28    0.09952      0.00000     0.39908    0.00141     0.40048
      H   29    0.10254      0.00000     0.39483    0.00264     0.39746
      H   30    0.17723      0.00000     0.32012    0.00265     0.32277
      H   31    0.18343      0.00000     0.31452    0.00206     0.31657
 =======================================================================
   * Total *   -0.00000     15.99358    42.80917    0.19725    59.00000

 Normal termination of Gaussian 16 at Thu Dec 10 23:20:18 2020.
