 Gaussian 16, Revision A.03,

 -----------------------------------------------------------
 # opt freq B3LYP/6-31G(d) empiricaldispersion=gd3bj scf=xqc
 -----------------------------------------------------------

 --------------------------------
 CID_115788212_JID_10853_neutraal
 --------------------------------
 Symbolic Z-matrix:
 Charge =  0 Multiplicity = 1

 SCF Done:  E(RB3LYP) =  -1568.63464156     A.U. after   14 cycles
 SCF Done:  E(RB3LYP) =  -1568.64374932     A.U. after   13 cycles
 SCF Done:  E(RB3LYP) =  -1568.64546362     A.U. after   13 cycles
 SCF Done:  E(RB3LYP) =  -1568.64686622     A.U. after   13 cycles
 SCF Done:  E(RB3LYP) =  -1568.64757369     A.U. after   12 cycles
 SCF Done:  E(RB3LYP) =  -1568.64714460     A.U. after   12 cycles
 SCF Done:  E(RB3LYP) =  -1568.64789777     A.U. after   12 cycles
 SCF Done:  E(RB3LYP) =  -1568.64801766     A.U. after   10 cycles
 SCF Done:  E(RB3LYP) =  -1568.64806345     A.U. after   11 cycles
 SCF Done:  E(RB3LYP) =  -1568.64808861     A.U. after   11 cycles
 SCF Done:  E(RB3LYP) =  -1568.64810117     A.U. after   10 cycles
 SCF Done:  E(RB3LYP) =  -1568.64811375     A.U. after   10 cycles
 SCF Done:  E(RB3LYP) =  -1568.64811475     A.U. after    9 cycles
 SCF Done:  E(RB3LYP) =  -1568.64811503     A.U. after    8 cycles
 Optimization completed.
    -- Stationary point found.
 Normal termination of Gaussian 16 at Sun Dec 13 13:28:13 2020.

 --------------------------------------------------------------------
 #N Geom=AllCheck Guess=TCheck SCRF=Check GenChk RB3LYP/6-31G(d) Freq
 --------------------------------------------------------------------

 Structure from the checkpoint file:  "JID_10853.chk"
 --------------------------------
 CID_115788212_JID_10853_neutraal
 --------------------------------
 Charge =  0 Multiplicity = 1

 SCF Done:  E(RB3LYP) =  -1568.64811503     A.U. after    1 cycles

  Exact polarizability: 282.804  -5.969 191.799   9.916   3.579 136.052
 Approx polarizability: 360.203 -17.307 335.511  17.813   8.878 221.024

                      1                      2                      3
                      A                      A                      A
 Frequencies --     21.5693                31.3976                52.2133
 Red. masses --      6.3680                 4.1739                 5.6091
 Frc consts  --      0.0017                 0.0024                 0.0090
 IR Inten    --      0.4528                 0.3202                 0.0542

                      4                      5                      6
                      A                      A                      A
 Frequencies --     56.7356                83.0676                96.4769
 Red. masses --      3.7312                 4.7806                 4.9305
 Frc consts  --      0.0071                 0.0194                 0.0270
 IR Inten    --      0.8473                 0.8020                 0.5877

                      7                      8                      9
                      A                      A                      A
 Frequencies --    116.0718               155.6813               169.4831
 Red. masses --      6.0720                 2.2382                 2.8410
 Frc consts  --      0.0482                 0.0320                 0.0481
 IR Inten    --      1.3668                 0.2322                 0.2344

                     10                     11                     12
                      A                      A                      A
 Frequencies --    189.7921               198.2378               221.1089
 Red. masses --      3.5852                 3.0715                 3.5232
 Frc consts  --      0.0761                 0.0711                 0.1015
 IR Inten    --      0.5019                 3.2065                 2.3617

                     13                     14                     15
                      A                      A                      A
 Frequencies --    254.7077               277.8847               290.2381
 Red. masses --      4.1405                 2.0392                 4.7580
 Frc consts  --      0.1583                 0.0928                 0.2361
 IR Inten    --      4.6013                 0.4805                 1.7183

                     16                     17                     18
                      A                      A                      A
 Frequencies --    328.1673               354.0589               375.6543
 Red. masses --      3.2471                 4.1925                 2.5215
 Frc consts  --      0.2060                 0.3097                 0.2096
 IR Inten    --      0.3493                 2.0123                18.0908

                     19                     20                     21
                      A                      A                      A
 Frequencies --    389.9837               428.6744               443.0170
 Red. masses --      3.1874                 5.0276                 3.4340
 Frc consts  --      0.2856                 0.5443                 0.3971
 IR Inten    --      3.9172                 2.0810                 5.1203

                     22                     23                     24
                      A                      A                      A
 Frequencies --    491.0119               492.9023               532.1913
 Red. masses --      3.7508                 5.3699                 5.7070
 Frc consts  --      0.5328                 0.7687                 0.9523
 IR Inten    --     11.8983                 4.1890                 0.7028

                     25                     26                     27
                      A                      A                      A
 Frequencies --    535.8309               557.8299               602.5014
 Red. masses --      4.3366                 3.7617                 3.0259
 Frc consts  --      0.7336                 0.6897                 0.6472
 IR Inten    --      0.6959                 6.0493                 2.1709

                     28                     29                     30
                      A                      A                      A
 Frequencies --    624.5211               652.6111               672.8908
 Red. masses --      3.2531                 2.2824                 4.0060
 Frc consts  --      0.7475                 0.5727                 1.0687
 IR Inten    --      3.8952                 2.4618                 0.2249

                     31                     32                     33
                      A                      A                      A
 Frequencies --    690.2189               718.0829               735.6091
 Red. masses --      3.8694                 4.0345                 3.2972
 Frc consts  --      1.0861                 1.2257                 1.0512
 IR Inten    --      1.7370                 8.7132                 0.4621

                     34                     35                     36
                      A                      A                      A
 Frequencies --    745.5516               750.6236               773.7543
 Red. masses --      4.9724                 4.5802                 2.9433
 Frc consts  --      1.6284                 1.5205                 1.0382
 IR Inten    --     19.3066                 3.6603                 5.0495

                     37                     38                     39
                      A                      A                      A
 Frequencies --    842.5366               844.4901               851.6665
 Red. masses --      1.7441                 2.9095                 2.4803
 Frc consts  --      0.7295                 1.2225                 1.0600
 IR Inten    --      6.4798                 5.9864                 0.5597

                     40                     41                     42
                      A                      A                      A
 Frequencies --    868.5771               878.1087               896.6557
 Red. masses --      1.5207                 2.7945                 1.9811
 Frc consts  --      0.6759                 1.2696                 0.9385
 IR Inten    --     11.1701                15.0964                 9.9800

                     43                     44                     45
                      A                      A                      A
 Frequencies --    908.0762               912.9694               936.5550
 Red. masses --      1.5287                 2.2963                 2.0602
 Frc consts  --      0.7427                 1.1277                 1.0647
 IR Inten    --      2.5962                 1.2331                10.8743

                     46                     47                     48
                      A                      A                      A
 Frequencies --    949.8078               979.3105               994.9445
 Red. masses --      2.5490                 2.1424                 2.5978
 Frc consts  --      1.3548                 1.2106                 1.5151
 IR Inten    --     11.9681                 1.3278                 2.4166

                     49                     50                     51
                      A                      A                      A
 Frequencies --   1003.6263              1018.3539              1031.5348
 Red. masses --      2.7537                 2.1194                 2.1798
 Frc consts  --      1.6342                 1.2949                 1.3666
 IR Inten    --      6.3491                 2.8051                20.5643

                     52                     53                     54
                      A                      A                      A
 Frequencies --   1056.1393              1068.2360              1071.9813
 Red. masses --      2.0629                 1.6960                 1.8772
 Frc consts  --      1.3557                 1.1403                 1.2710
 IR Inten    --      1.5773                 3.5685                 8.8979

                     55                     56                     57
                      A                      A                      A
 Frequencies --   1101.5978              1124.6889              1136.0864
 Red. masses --      1.5833                 6.2320                 1.5398
 Frc consts  --      1.1321                 4.6446                 1.1709
 IR Inten    --      1.2792               107.6727                 4.4695

                     58                     59                     60
                      A                      A                      A
 Frequencies --   1144.3842              1164.8477              1174.5279
 Red. masses --      2.0826                 1.2365                 1.7268
 Frc consts  --      1.6070                 0.9885                 1.4035
 IR Inten    --     54.7147                 0.9106                15.2980

                     61                     62                     63
                      A                      A                      A
 Frequencies --   1191.7197              1195.1172              1220.9558
 Red. masses --      2.8036                 1.5000                 1.2552
 Frc consts  --      2.3460                 1.2623                 1.1024
 IR Inten    --     52.4569                66.4456                 0.3436

                     64                     65                     66
                      A                      A                      A
 Frequencies --   1229.2681              1237.7671              1243.2661
 Red. masses --      1.5347                 1.3528                 1.2912
 Frc consts  --      1.3664                 1.2211                 1.1759
 IR Inten    --      6.6252                 8.7074                 4.0902

                     67                     68                     69
                      A                      A                      A
 Frequencies --   1250.2531              1264.0504              1280.2639
 Red. masses --      1.7111                 1.9121                 1.2897
 Frc consts  --      1.5759                 1.8001                 1.2455
 IR Inten    --     41.0840               116.9010                26.2093

                     70                     71                     72
                      A                      A                      A
 Frequencies --   1298.8933              1319.1833              1320.1428
 Red. masses --      1.3174                 1.3181                 1.3440
 Frc consts  --      1.3095                 1.3514                 1.3800
 IR Inten    --     18.7089                 5.7813                 3.2339

                     73                     74                     75
                      A                      A                      A
 Frequencies --   1333.0942              1338.8137              1344.0055
 Red. masses --      1.2813                 1.6076                 1.6567
 Frc consts  --      1.3416                 1.6977                 1.7632
 IR Inten    --      8.1131                15.2736                13.4606

                     76                     77                     78
                      A                      A                      A
 Frequencies --   1358.1825              1359.2403              1369.6286
 Red. masses --      1.4304                 1.5039                 1.6213
 Frc consts  --      1.5546                 1.6371                 1.7919
 IR Inten    --      8.6839                 4.6241                 0.4264

                     79                     80                     81
                      A                      A                      A
 Frequencies --   1395.9105              1403.3098              1426.8384
 Red. masses --      1.4502                 1.4216                 1.4036
 Frc consts  --      1.6650                 1.6495                 1.6836
 IR Inten    --      4.1770                 3.6987                41.1682

                     82                     83                     84
                      A                      A                      A
 Frequencies --   1446.3876              1488.6994              1493.4626
 Red. masses --      5.6274                 4.2875                 1.1229
 Frc consts  --      6.9363                 5.5984                 1.4757
 IR Inten    --     60.6997               139.4074                 2.5916

                     85                     86                     87
                      A                      A                      A
 Frequencies --   1503.8798              1511.3024              1513.6553
 Red. masses --      1.0902                 1.0864                 1.1588
 Frc consts  --      1.4527                 1.4619                 1.5643
 IR Inten    --      0.4374                11.4600                17.8743

                     88                     89                     90
                      A                      A                      A
 Frequencies --   1517.8175              1518.8768              1519.4354
 Red. masses --      1.0946                 1.1063                 1.0915
 Frc consts  --      1.4857                 1.5038                 1.4846
 IR Inten    --      1.8482                 3.8664                 7.1473

                     91                     92                     93
                      A                      A                      A
 Frequencies --   1535.5455              1543.0600              1593.1604
 Red. masses --      1.1378                 1.0872                 5.0904
 Frc consts  --      1.5807                 1.5252                 7.6124
 IR Inten    --      5.5551                 3.4930                 4.9369

                     94                     95                     96
                      A                      A                      A
 Frequencies --   1741.0578              3000.1693              3035.7689
 Red. masses --     11.7589                 1.0713                 1.0694
 Frc consts  --     21.0012                 5.6813                 5.8064
 IR Inten    --    249.2037                41.8446                46.7761

                     97                     98                     99
                      A                      A                      A
 Frequencies --   3036.0745              3036.8065              3049.1592
 Red. masses --      1.0801                 1.0683                 1.0601
 Frc consts  --      5.8660                 5.8049                 5.8069
 IR Inten    --     12.0209                32.1992                12.2604

                    100                    101                    102
                      A                      A                      A
 Frequencies --   3057.2235              3063.3267              3072.3902
 Red. masses --      1.0649                 1.0691                 1.0700
 Frc consts  --      5.8643                 5.9107                 5.9512
 IR Inten    --     33.6548                44.9900                14.7042

                    103                    104                    105
                      A                      A                      A
 Frequencies --   3087.5804              3088.9103              3095.1835
 Red. masses --      1.0822                 1.0926                 1.0894
 Frc consts  --      6.0782                 6.1422                 6.1490
 IR Inten    --     13.2053                29.9529                40.2900

                    106                    107                    108
                      A                      A                      A
 Frequencies --   3097.1445              3102.4097              3112.6332
 Red. masses --      1.0787                 1.0958                 1.0993
 Frc consts  --      6.0963                 6.2139                 6.2751
 IR Inten    --     42.3002                28.1834                31.7373

                    109                    110                    111
                      A                      A                      A
 Frequencies --   3120.3637              3126.7030              3128.2734
 Red. masses --      1.0699                 1.1053                 1.0860
 Frc consts  --      6.1377                 6.3667                 6.2615
 IR Inten    --     16.3112                39.5716                16.6416

                    112                    113                    114
                      A                      A                      A
 Frequencies --   3145.0991              3187.6380              3230.3795
 Red. masses --      1.1101                 1.1056                 1.0924
 Frc consts  --      6.4698                 6.6190                 6.7163
 IR Inten    --     15.7778                 5.0492                 6.1005

 - Thermochemistry -
 -------------------
 Temperature   298.150 Kelvin.  Pressure   1.00000 Atm.
 Atom     1 has atomic number  6 and mass  12.00000

 Molecular mass:   308.09047 amu.
 Principal axes and moments of inertia in atomic units:
                           1         2         3
     Eigenvalues --  2153.17370********************
           X            0.99998   0.00259   0.00628
           Y           -0.00259   1.00000  -0.00047
           Z           -0.00628   0.00045   0.99998
 This molecule is an asymmetric top.
 Rotational symmetry number  1.
 Warning -- assumption of classical behavior for rotation
           may cause significant error
 Rotational temperatures (Kelvin)      0.04023     0.00596     0.00551
 Rotational constants (GHZ):           0.83818     0.12409     0.11489
 Zero-point vibrational energy     880747.8 (Joules/Mol)
                                  210.50378 (Kcal/Mol)
 Warning -- explicit consideration of  27 degrees of freedom as
           vibrations may cause significant error
 Vibrational temperatures:     31.03    45.17    75.12    81.63   119.52
          (Kelvin)            138.81   167.00   223.99   243.85   273.07
                              285.22   318.13   366.47   399.81   417.59
                              472.16   509.41   540.48   561.10   616.77
                              637.40   706.46   709.18   765.70   770.94
                              802.59   866.87   898.55   938.96   968.14
                              993.07  1033.16  1058.38  1072.68  1079.98
                             1113.26  1212.22  1215.03  1225.36  1249.69
                             1263.40  1290.09  1306.52  1313.56  1347.49
                             1366.56  1409.01  1431.50  1443.99  1465.18
                             1484.15  1519.55  1536.95  1542.34  1584.95
                             1618.18  1634.57  1646.51  1675.96  1689.88
                             1714.62  1719.51  1756.68  1768.64  1780.87
                             1788.78  1798.84  1818.69  1842.01  1868.82
                             1898.01  1899.39  1918.03  1926.25  1933.72
                             1954.12  1955.64  1970.59  2008.40  2019.05
                             2052.90  2081.03  2141.91  2148.76  2163.75
                             2174.43  2177.81  2183.80  2185.32  2186.13
                             2209.31  2220.12  2292.20  2504.99  4316.57
                             4367.79  4368.23  4369.29  4387.06  4398.66
                             4407.44  4420.48  4442.34  4444.25  4453.28
                             4456.10  4463.68  4478.38  4489.51  4498.63
                             4500.89  4525.10  4586.30  4647.80

 Zero-point correction=                           0.335459 (Hartree/Particle)
 Thermal correction to Energy=                    0.353613
 Thermal correction to Enthalpy=                  0.354557
 Thermal correction to Gibbs Free Energy=         0.287422
 Sum of electronic and zero-point Energies=          -1568.312656
 Sum of electronic and thermal Energies=             -1568.294502
 Sum of electronic and thermal Enthalpies=           -1568.293558
 Sum of electronic and thermal Free Energies=        -1568.360693

                     E (Thermal)             CV                S
                      KCal/Mol        Cal/Mol-Kelvin    Cal/Mol-Kelvin
 Total                  221.896             71.035            141.298
 Electronic               0.000              0.000              0.000
 Translational            0.889              2.981             43.072
 Rotational               0.889              2.981             34.552
 Vibrational            220.118             65.074             63.674
 Vibration     1          0.593              1.985              6.484
 Vibration     2          0.594              1.983              5.739
 Vibration     3          0.596              1.977              4.732
 Vibration     4          0.596              1.975              4.568
 Vibration     5          0.600              1.961              3.817
 Vibration     6          0.603              1.952              3.524
 Vibration     7          0.608              1.936              3.165
 Vibration     8          0.620              1.896              2.602
 Vibration     9          0.625              1.880              2.441
 Vibration    10          0.633              1.854              2.230
 Vibration    11          0.637              1.842              2.149
 Vibration    12          0.648              1.809              1.950
 Vibration    13          0.665              1.755              1.698
 Vibration    14          0.679              1.714              1.547
 Vibration    15          0.686              1.692              1.473
 Vibration    16          0.711              1.619              1.269
 Vibration    17          0.730              1.567              1.148
 Vibration    18          0.746              1.522              1.057
 Vibration    19          0.758              1.492              1.000
 Vibration    20          0.790              1.408              0.863
 Vibration    21          0.803              1.376              0.817
 Vibration    22          0.847              1.270              0.681
 Vibration    23          0.849              1.266              0.676
 Vibration    24          0.887              1.179              0.582
 Vibration    25          0.891              1.171              0.574
 Vibration    26          0.913              1.123              0.528
 Vibration    27          0.961              1.026              0.445

                           ! Non-Optimized Parameters !
 Normal termination of Gaussian 16 at Sun Dec 13 13:49:00 2020.

 ----------------------------------------------------------------------
 # B3LYP/6-311++G(d,p) empiricaldispersion=gd3bj scf=xqc pop=npa geom=c
 heck
 ----------------------------------------------------------------------

 ----------------------------------------
 CID_115788212_JID_10853_Energie_neutraal
 ----------------------------------------
 Structure from the checkpoint file:  "JID_10853.chk"
 Charge =  0 Multiplicity = 1

 SCF Done:  E(RB3LYP) =  -1568.90355963     A.U. after   16 cycles
 Normal termination of Gaussian 16 at Sun Dec 13 13:58:20 2020.

 ----------------------------------------------------------------------
 # B3LYP/6-311++G(d,p) empiricaldispersion=gd3bj scf=xqc pop=npa geom=c
 heck
 ----------------------------------------------------------------------

 --------------------------------------
 CID_115788212_JID_10853_Energie_kation
 --------------------------------------
 Structure from the checkpoint file:  "JID_10853.chk"
 Charge =  1 Multiplicity = 2

 SCF Done:  E(UB3LYP) =  -1568.63072323     A.U. after   27 cycles
 Normal termination of Gaussian 16 at Sun Dec 13 14:19:58 2020.
 Gaussian 16:  ES64L-G16RevA.03 25-Dec-2016

 ----------------------------------------------------------------------
 # B3LYP/6-311++G(d,p) empiricaldispersion=gd3bj scf=xqc pop=npa geom=c
 heck
 ----------------------------------------------------------------------

 -------------------------------------
 CID_115788212_JID_10853_Energie_anion
 -------------------------------------
 Structure from the checkpoint file:  "JID_10853.chk"
 Charge = -1 Multiplicity = 2

                         Standard orientation:
 ---------------------------------------------------------------------
 Center     Atomic      Atomic             Coordinates (Angstroms)
 Number     Number       Type             X           Y           Z
 ---------------------------------------------------------------------
      1          6           0       -6.121537    0.328343   -0.733619
      2          6           0       -5.186184    1.379531   -0.063663
      3          6           0       -3.887551    0.622345    0.064756
      4          6           0       -4.087805   -0.724454   -0.130069
      5          6           0       -5.521277   -1.073416   -0.409008
      6         16           0       -2.648511   -1.652531    0.059691
      7          6           0       -1.732902   -0.186856    0.398294
      8          6           0       -2.541010    0.936490    0.370059
      9          6           0       -0.300088   -0.325001    0.677939
     10          8           0        0.212190   -1.436641    0.754193
     11          6           0        0.504512    0.957139    0.899465
     12          6           0        0.497957    1.874211   -0.366728
     13          6           0        1.921243    2.123324   -0.860347
     14          8           0        2.605754    0.891057   -0.984836
     15          6           0        2.954639    0.290601    0.278836
     16          6           0        1.936341    0.663908    1.384507
     17          6           0        4.373409    0.753751    0.657774
     18          6           0        5.325227    0.188229   -0.390809
     19         16           0        4.747592   -1.537251   -0.698070
     20          6           0        3.063686   -1.217574   -0.000025
     21          1           0       -6.103374    0.476111   -1.818429
     22          1           0       -7.160701    0.420647   -0.405892
     23          1           0       -5.103576    2.294338   -0.660827
     24          1           0       -5.563410    1.677178    0.924589
     25          1           0       -5.991426   -1.519974    0.478272
     26          1           0       -5.651294   -1.784349   -1.231769
     27          1           0       -2.169143    1.937205    0.557283
     28          1           0       -0.009512    1.487639    1.711376
     29          1           0       -0.063043    1.393579   -1.173810
     30          1           0        0.001649    2.829177   -0.157177
     31          1           0        1.912530    2.573060   -1.857521
     32          1           0        2.459765    2.813837   -0.192102
     33          1           0        2.297386    1.566805    1.890499
     34          1           0        1.914427   -0.129727    2.135020
     35          1           0        4.425027    1.848719    0.701908
     36          1           0        4.623355    0.364526    1.652512
     37          1           0        6.363221    0.164604   -0.050983
     38          1           0        5.261419    0.763344   -1.317435
     39          1           0        2.938287   -1.792258    0.918136
     40          1           0        2.297596   -1.526710   -0.708626
 ---------------------------------------------------------------------

 SCF Done:  E(UB3LYP) =  -1568.92156818     A.U. after   30 cycles

 The electronic state is 2-A.
 Alpha  occ. eigenvalues --  -88.72999 -88.71897 -19.02001 -18.92664 -10.13375
 Alpha  occ. eigenvalues --  -10.11576 -10.10202 -10.08263 -10.07994 -10.07372
 Alpha  occ. eigenvalues --  -10.06855 -10.06471 -10.06412 -10.06337 -10.05746
 Alpha  occ. eigenvalues --  -10.05691 -10.04232 -10.03772 -10.03388 -10.02141
 Alpha  occ. eigenvalues --   -7.81629  -7.80503  -5.78025  -5.77671  -5.76992
 Alpha  occ. eigenvalues --   -5.76798  -5.76443  -5.76111  -0.93823  -0.86975
 Alpha  occ. eigenvalues --   -0.75003  -0.74216  -0.69270  -0.68434  -0.65599
 Alpha  occ. eigenvalues --   -0.62735  -0.61418  -0.58824  -0.57284  -0.56106
 Alpha  occ. eigenvalues --   -0.54361  -0.50380  -0.48264  -0.47640  -0.45134
 Alpha  occ. eigenvalues --   -0.43222  -0.40503  -0.39181  -0.37898  -0.37054
 Alpha  occ. eigenvalues --   -0.36696  -0.36230  -0.35653  -0.34506  -0.33342
 Alpha  occ. eigenvalues --   -0.32098  -0.30290  -0.29623  -0.29596  -0.28320
 Alpha  occ. eigenvalues --   -0.28117  -0.27721  -0.26569  -0.25611  -0.25495
 Alpha  occ. eigenvalues --   -0.25405  -0.24614  -0.24243  -0.23881  -0.23307
 Alpha  occ. eigenvalues --   -0.22811  -0.22116  -0.21776  -0.20711  -0.19800
 Alpha  occ. eigenvalues --   -0.19324  -0.18850  -0.15402  -0.11837  -0.11167
 Alpha  occ. eigenvalues --   -0.09444  -0.08769   0.03701
 Alpha virt. eigenvalues --    0.06596   0.07449   0.07760   0.08546   0.09197
 Alpha virt. eigenvalues --    0.09647   0.09739   0.10102   0.10648   0.10892
 Alpha virt. eigenvalues --    0.11146   0.11990   0.12236   0.12573   0.12581

  Beta  occ. eigenvalues --  -88.72999 -88.71849 -19.01997 -18.92150 -10.13375
  Beta  occ. eigenvalues --  -10.11576 -10.10202 -10.08262 -10.07993 -10.07028
  Beta  occ. eigenvalues --  -10.06854 -10.06498 -10.06402 -10.06334 -10.05778
  Beta  occ. eigenvalues --  -10.05657 -10.03911 -10.03681 -10.03509 -10.01848
  Beta  occ. eigenvalues --   -7.81629  -7.80461  -5.78025  -5.77672  -5.76992
  Beta  occ. eigenvalues --   -5.76779  -5.76424  -5.75952  -0.93816  -0.86032
  Beta  occ. eigenvalues --   -0.74755  -0.74213  -0.69116  -0.68334  -0.65590
  Beta  occ. eigenvalues --   -0.62732  -0.61184  -0.58569  -0.57115  -0.55876
  Beta  occ. eigenvalues --   -0.54228  -0.50097  -0.48249  -0.47492  -0.44782
  Beta  occ. eigenvalues --   -0.43113  -0.40428  -0.39127  -0.37706  -0.36867
  Beta  occ. eigenvalues --   -0.36589  -0.36197  -0.35518  -0.34380  -0.33119
  Beta  occ. eigenvalues --   -0.32045  -0.30110  -0.29527  -0.29455  -0.28127
  Beta  occ. eigenvalues --   -0.27828  -0.27502  -0.26540  -0.25487  -0.25306
  Beta  occ. eigenvalues --   -0.25215  -0.24534  -0.24203  -0.23781  -0.23120
  Beta  occ. eigenvalues --   -0.22005  -0.21689  -0.21607  -0.20676  -0.19279
  Beta  occ. eigenvalues --   -0.19060  -0.17692  -0.15331  -0.11829  -0.10000
  Beta  occ. eigenvalues --   -0.08982  -0.07224
  Beta virt. eigenvalues --    0.06531   0.07339   0.07746   0.08419   0.09015
  Beta virt. eigenvalues --    0.09195   0.09647   0.10096   0.10438   0.10739
  Beta virt. eigenvalues --    0.10933   0.11125   0.12043   0.12153   0.12512

 Mulliken charges and spin densities:
               1          2
     1  C   -0.167795   0.039091
     2  C   -0.903194  -0.101036
     3  C    0.273830  -0.017377
     4  C    0.493552   0.128201
     5  C   -0.605680  -0.085924
     6  S   -0.693716   0.104688
     7  C    0.456625  -0.137683
     8  C    0.259227   0.440396
     9  C   -0.761587   0.264224
    10  O   -0.345548   0.183506
    11  C    0.673907   0.144772
    12  C   -0.356536  -0.056778
    13  C   -0.417549  -0.111703
    14  O    0.044890   0.000972
    15  C    0.080110   0.070634
    16  C   -0.119653  -0.284534
    17  C   -0.546575  -0.033604
    18  C   -0.242400  -0.001187
    19  S   -0.318950   0.000526
    20  C   -0.593057   0.019371
    21  H    0.120893  -0.000255
    22  H    0.110456   0.009975
    23  H    0.140642  -0.009367
    24  H    0.075349   0.041358
    25  H    0.048669   0.090476
    26  H    0.128306   0.004129
    27  H    0.044522   0.039950
    28  H    0.065692   0.158639
    29  H    0.214691  -0.001907
    30  H    0.083042   0.036424
    31  H    0.171249  -0.004886
    32  H    0.092172   0.027024
    33  H    0.130999   0.040978
    34  H    0.215725  -0.007531
    35  H    0.116820   0.001314
    36  H    0.157892  -0.000640
    37  H    0.177922   0.000073
    38  H    0.188856  -0.000073
    39  H    0.232880   0.006548
    40  H    0.273325   0.001217
 Sum of Mulliken charges =  -1.00000   1.00000

 Dipole moment (field-independent basis, Debye):
    X=              3.0253    Y=              5.2092    Z=             -0.2541  Tot=              6.0293
 Quadrupole moment (field-independent basis, Debye-Ang):
   XX=           -195.0590   YY=           -155.3349   ZZ=           -148.4882
   XY=              8.1862   XZ=              9.8236   YZ=             -0.8420

 Summary of Natural Population Analysis:

                                       Natural Population
                Natural  -----------------------------------------------
    Atom  No    Charge         Core      Valence    Rydberg      Total
 -----------------------------------------------------------------------
      C    1   -0.17930      0.99966     2.17356    0.00608     3.17930
      C    2   -0.18735      0.99961     2.18108    0.00666     3.18735
      C    3   -0.08188      0.99941     2.07086    0.01162     3.08188
      C    4   -0.05228      0.99936     2.03953    0.01339     3.05228
      C    5   -0.19865      0.99959     2.19237    0.00668     3.19865
      S    6    0.23313      4.99938     2.74668    0.02081     7.76687
      C    7   -0.12141      0.99946     2.10964    0.01232     3.12141
      C    8   -0.06143      0.99945     2.05262    0.00937     3.06143
      C    9    0.29622      0.99954     1.67958    0.02466     2.70378
      O   10   -0.26067      0.99988     3.25556    0.00523     4.26067
      C   11   -0.14369      0.99956     2.13378    0.01035     3.14369
      C   12   -0.19783      0.99962     2.18723    0.01098     3.19783
      C   13   -0.00877      0.99958     1.99861    0.01058     3.00877
      O   14   -0.31421      0.99987     3.30341    0.01093     4.31421
      C   15    0.13794      0.99949     1.84212    0.02044     2.86206
      C   16   -0.20377      0.99957     2.19158    0.01262     3.20377
      C   17   -0.20619      0.99956     2.19814    0.00849     3.20619
      C   18   -0.24334      0.99961     2.23599    0.00775     3.24334
      S   19    0.05746      4.99968     2.92551    0.01735     7.94254
      C   20   -0.24039      0.99951     2.23192    0.00896     3.24039
      H   21    0.09239      0.00000     0.40660    0.00101     0.40761
      H   22    0.08865      0.00000     0.40950    0.00185     0.41135
      H   23    0.09379      0.00000     0.40489    0.00132     0.40621
      H   24    0.09067      0.00000     0.40732    0.00201     0.40933
      H   25    0.09723      0.00000     0.40105    0.00171     0.40277
      H   26    0.09902      0.00000     0.39997    0.00102     0.40098
      H   27    0.09619      0.00000     0.40240    0.00140     0.40381
      H   28    0.10827      0.00000     0.38953    0.00219     0.39173
      H   29    0.10821      0.00000     0.39085    0.00094     0.39179
      H   30    0.09591      0.00000     0.40310    0.00099     0.40409
      H   31    0.08849      0.00000     0.41050    0.00101     0.41151
      H   32    0.07166      0.00000     0.42680    0.00153     0.42834
      H   33    0.09346      0.00000     0.40558    0.00096     0.40654
      H   34    0.11625      0.00000     0.38255    0.00121     0.38375
      H   35    0.10116      0.00000     0.39766    0.00118     0.39884
      H   36    0.10090      0.00000     0.39812    0.00097     0.39910
      H   37    0.09877      0.00000     0.40007    0.00115     0.40123
      H   38    0.10063      0.00000     0.39773    0.00164     0.39937
      H   39    0.10918      0.00000     0.38976    0.00106     0.39082
      H   40    0.12557      0.00000     0.37336    0.00107     0.37443
 =======================================================================
   * Total *    0.00000     27.99139    53.74715    0.26146    82.00000

 Normal termination of Gaussian 16 at Sun Dec 13 14:44:28 2020.
