 Gaussian 16, Revision A.03,

 -----------------------------------------------------------
 # opt freq B3LYP/6-31G(d) empiricaldispersion=gd3bj scf=xqc
 -----------------------------------------------------------

 -------------------------------
 CID_115410453_JID_1307_neutraal
 -------------------------------
 Symbolic Z-matrix:
 Charge =  0 Multiplicity = 1

 SCF Done:  E(RB3LYP) =  -496.786696417     A.U. after   14 cycles
 SCF Done:  E(RB3LYP) =  -496.790119091     A.U. after   12 cycles
 SCF Done:  E(RB3LYP) =  -496.790379796     A.U. after   11 cycles
 SCF Done:  E(RB3LYP) =  -496.790486959     A.U. after   11 cycles
 SCF Done:  E(RB3LYP) =  -496.790541441     A.U. after   11 cycles
 SCF Done:  E(RB3LYP) =  -496.790596136     A.U. after   11 cycles
 SCF Done:  E(RB3LYP) =  -496.790614081     A.U. after   10 cycles
 SCF Done:  E(RB3LYP) =  -496.790617648     A.U. after   10 cycles
 SCF Done:  E(RB3LYP) =  -496.790661624     A.U. after   10 cycles
 SCF Done:  E(RB3LYP) =  -496.790775744     A.U. after   11 cycles
 SCF Done:  E(RB3LYP) =  -496.792890572     A.U. after    9 cycles
 SCF Done:  E(RB3LYP) =  -496.792892447     A.U. after    9 cycles
 SCF Done:  E(RB3LYP) =  -496.792892724     A.U. after    8 cycles
 SCF Done:  E(RB3LYP) =  -496.792892818     A.U. after    8 cycles
 SCF Done:  E(RB3LYP) =  -496.792892876     A.U. after    8 cycles
 SCF Done:  E(RB3LYP) =  -496.792892893     A.U. after    7 cycles
 Optimization completed.
    -- Stationary point found.
 Normal termination of Gaussian 16 at Tue Dec  8 19:52:01 2020.

 --------------------------------------------------------------------
 #N Geom=AllCheck Guess=TCheck SCRF=Check GenChk RB3LYP/6-31G(d) Freq
 --------------------------------------------------------------------

 Structure from the checkpoint file:  "JID_1307.chk"
 -------------------------------
 CID_115410453_JID_1307_neutraal
 -------------------------------
 Charge =  0 Multiplicity = 1

 SCF Done:  E(RB3LYP) =  -496.792892893     A.U. after    1 cycles

  Exact polarizability: 106.579   2.720 100.250   4.030  -6.967  70.585
 Approx polarizability: 150.645   7.734 150.810  12.150 -15.849 106.047

                      1                      2                      3
                      A                      A                      A
 Frequencies --     30.5030                47.8601                80.4197
 Red. masses --      3.0980                 3.6437                 2.5315
 Frc consts  --      0.0017                 0.0049                 0.0096
 IR Inten    --      1.7784                 2.9619                 0.2098

                      4                      5                      6
                      A                      A                      A
 Frequencies --    103.8053               134.3827               212.4839
 Red. masses --      4.4884                 3.6916                 1.2413
 Frc consts  --      0.0285                 0.0393                 0.0330
 IR Inten    --      0.8431                 1.3609                 0.0726

                      7                      8                      9
                      A                      A                      A
 Frequencies --    260.4786               306.2249               355.2626
 Red. masses --      2.6870                 3.0743                 4.0994
 Frc consts  --      0.1074                 0.1699                 0.3048
 IR Inten    --      2.8583                 8.8001                 2.7522

                     10                     11                     12
                      A                      A                      A
 Frequencies --    395.5955               431.8833               450.5087
 Red. masses --      2.7140                 1.9655                 3.4983
 Frc consts  --      0.2502                 0.2160                 0.4183
 IR Inten    --      0.7076                 2.2863                 7.0442

                     13                     14                     15
                      A                      A                      A
 Frequencies --    635.3476               659.7600               702.7529
 Red. masses --      4.1351                 3.7955                 2.3814
 Frc consts  --      0.9835                 0.9734                 0.6929
 IR Inten    --      3.0345                 4.4487                19.5726

                     16                     17                     18
                      A                      A                      A
 Frequencies --    724.1064               775.9304               807.6586
 Red. masses --      1.6461                 3.4817                 1.2477
 Frc consts  --      0.5085                 1.2351                 0.4795
 IR Inten    --     14.8340                12.0884                 0.4623

                     19                     20                     21
                      A                      A                      A
 Frequencies --    833.4661               845.1035               877.9532
 Red. masses --      3.6194                 1.3233                 2.2972
 Frc consts  --      1.4814                 0.5568                 1.0433
 IR Inten    --     24.8121                 5.8465                18.6881

                     22                     23                     24
                      A                      A                      A
 Frequencies --    896.3842               939.5362               977.9881
 Red. masses --      1.7864                 5.4273                 2.2288
 Frc consts  --      0.8457                 2.8227                 1.2560
 IR Inten    --     10.1217                 1.5615                 3.7120

                     25                     26                     27
                      A                      A                      A
 Frequencies --    989.6588              1061.6873              1090.9860
 Red. masses --      2.3485                 1.5403                 1.8273
 Frc consts  --      1.3552                 1.0229                 1.2815
 IR Inten    --     26.2454                12.6283                 2.1892

                     28                     29                     30
                      A                      A                      A
 Frequencies --   1111.4237              1111.9126              1123.5346
 Red. masses --      1.5300                 1.6757                 1.4024
 Frc consts  --      1.1135                 1.2207                 1.0430
 IR Inten    --      1.7898                 6.5813                 7.3277

                     31                     32                     33
                      A                      A                      A
 Frequencies --   1151.9402              1175.2025              1187.5886
 Red. masses --      1.3571                 1.6014                 1.8227
 Frc consts  --      1.0610                 1.3031                 1.5146
 IR Inten    --      1.1845                 8.3053                 1.5962

                     34                     35                     36
                      A                      A                      A
 Frequencies --   1210.9658              1243.5977              1299.6926
 Red. masses --      2.7960                 1.4623                 1.6845
 Frc consts  --      2.4157                 1.3324                 1.6765
 IR Inten    --      8.1062                 4.7310                 4.3120

                     37                     38                     39
                      A                      A                      A
 Frequencies --   1304.4339              1319.3924              1350.6636
 Red. masses --      1.6930                 1.8584                 1.5617
 Frc consts  --      1.6973                 1.9061                 1.6786
 IR Inten    --      8.0022                41.8923                 3.8212

                     40                     41                     42
                      A                      A                      A
 Frequencies --   1403.6272              1421.7969              1442.4943
 Red. masses --      1.5257                 2.1302                 1.2888
 Frc consts  --      1.7710                 2.5371                 1.5800
 IR Inten    --     21.0016                 0.6233                10.3500

                     43                     44                     45
                      A                      A                      A
 Frequencies --   1458.2680              1477.8051              1504.1315
 Red. masses --      1.7409                 2.9028                 1.1714
 Frc consts  --      2.1812                 3.7351                 1.5615
 IR Inten    --     27.0733                28.3392                16.2404

                     46                     47                     48
                      A                      A                      A
 Frequencies --   1515.7942              1520.1792              1530.7972
 Red. masses --      1.3256                 1.1231                 1.5858
 Frc consts  --      1.7945                 1.5292                 2.1894
 IR Inten    --      8.9610                 4.8725                14.2061

                     49                     50                     51
                      A                      A                      A
 Frequencies --   1541.9195              1559.1694              1574.3202
 Red. masses --      1.3312                 1.3498                 5.4721
 Frc consts  --      1.8647                 1.9334                 7.9908
 IR Inten    --     18.8471                 5.7476                 9.7917

                     52                     53                     54
                      A                      A                      A
 Frequencies --   3052.9619              3061.0101              3072.0926
 Red. masses --      1.0679                 1.0352                 1.0662
 Frc consts  --      5.8644                 5.7148                 5.9284
 IR Inten    --     19.6555                14.7669                31.2651

                     55                     56                     57
                      A                      A                      A
 Frequencies --   3107.4722              3114.4442              3120.7914
 Red. masses --      1.0778                 1.0600                 1.0996
 Frc consts  --      6.1320                 6.0580                 6.3098
 IR Inten    --     30.4206                16.7649                 1.8001

                     58                     59                     60
                      A                      A                      A
 Frequencies --   3131.3841              3134.5216              3144.3921
 Red. masses --      1.0959                 1.1016                 1.1035
 Frc consts  --      6.3315                 6.3772                 6.4281
 IR Inten    --     21.5214                27.6579                29.9257

                     61                     62                     63
                      A                      A                      A
 Frequencies --   3199.8860              3257.3731              3284.1451
 Red. masses --      1.1216                 1.0910                 1.1042
 Frc consts  --      6.7663                 6.8206                 7.0166
 IR Inten    --     24.9968                 8.0573                 5.2355

 - Thermochemistry -
 -------------------
 Temperature   298.150 Kelvin.  Pressure   1.00000 Atm.
 Atom     1 has atomic number  6 and mass  12.00000

 Molecular mass:   152.09496 amu.
 Principal axes and moments of inertia in atomic units:
                           1         2         3
     Eigenvalues --  1104.662882230.805052930.61453
           X            0.99922   0.03954  -0.00092
           Y           -0.03954   0.99921   0.00329
           Z            0.00105  -0.00325   0.99999
 This molecule is an asymmetric top.
 Rotational symmetry number  1.
 Warning -- assumption of classical behavior for rotation
           may cause significant error
 Rotational temperatures (Kelvin)      0.07841     0.03883     0.02955
 Rotational constants (GHZ):           1.63375     0.80901     0.61582
 Zero-point vibrational energy     513490.2 (Joules/Mol)
                                  122.72710 (Kcal/Mol)
 Warning -- explicit consideration of  12 degrees of freedom as
           vibrations may cause significant error
 Vibrational temperatures:     43.89    68.86   115.71   149.35   193.35
          (Kelvin)            305.72   374.77   440.59   511.14   569.17
                              621.38   648.18   914.12   949.25  1011.10
                             1041.83  1116.39  1162.04  1199.17  1215.92
                             1263.18  1289.70  1351.78  1407.11  1423.90
                             1527.53  1569.69  1599.09  1599.79  1616.52
                             1657.39  1690.85  1708.68  1742.31  1789.26
                             1869.97  1876.79  1898.31  1943.30  2019.51
                             2045.65  2075.43  2098.12  2126.23  2164.11
                             2180.89  2187.20  2202.48  2218.48  2243.30
                             2265.10  4392.53  4404.11  4420.06  4470.96
                             4480.99  4490.12  4505.36  4509.88  4524.08
                             4603.92  4686.63  4725.15

 Zero-point correction=                           0.195578 (Hartree/Particle)
 Thermal correction to Energy=                    0.206272
 Thermal correction to Enthalpy=                  0.207216
 Thermal correction to Gibbs Free Energy=         0.157562
 Sum of electronic and zero-point Energies=           -496.597315
 Sum of electronic and thermal Energies=              -496.586621
 Sum of electronic and thermal Enthalpies=            -496.585676
 Sum of electronic and thermal Free Energies=         -496.635331

                     E (Thermal)             CV                S
                      KCal/Mol        Cal/Mol-Kelvin    Cal/Mol-Kelvin
 Total                  129.438             38.977            104.508
 Electronic               0.000              0.000              0.000
 Translational            0.889              2.981             40.968
 Rotational               0.889              2.981             30.358
 Vibrational            127.660             33.015             33.182
 Vibration     1          0.594              1.984              5.796
 Vibration     2          0.595              1.978              4.904
 Vibration     3          0.600              1.962              3.881
 Vibration     4          0.605              1.946              3.382
 Vibration     5          0.613              1.919              2.882
 Vibration     6          0.644              1.822              2.022
 Vibration     7          0.669              1.745              1.659
 Vibration     8          0.697              1.662              1.383
 Vibration     9          0.731              1.564              1.143
 Vibration    10          0.762              1.480              0.979
 Vibration    11          0.793              1.401              0.853
 Vibration    12          0.809              1.360              0.794

 Optimization completed.
    -- Stationary point found.
 Normal termination of Gaussian 16 at Tue Dec  8 19:57:00 2020.

 ----------------------------------------------------------------------
 # B3LYP/6-311++G(d,p) empiricaldispersion=gd3bj scf=xqc pop=npa geom=c
 heck
 ----------------------------------------------------------------------

 ---------------------------------------
 CID_115410453_JID_1307_Energie_neutraal
 ---------------------------------------
 Structure from the checkpoint file:  "JID_1307.chk"
 Charge =  0 Multiplicity = 1

 SCF Done:  E(RB3LYP) =  -496.931383289     A.U. after   14 cycles
 Normal termination of Gaussian 16 at Tue Dec  8 19:59:16 2020.

 ----------------------------------------------------------------------
 # B3LYP/6-311++G(d,p) empiricaldispersion=gd3bj scf=xqc pop=npa geom=c
 heck
 ----------------------------------------------------------------------

 -------------------------------------
 CID_115410453_JID_1307_Energie_kation
 -------------------------------------
 Structure from the checkpoint file:  "JID_1307.chk"
 Charge =  1 Multiplicity = 2

 SCF Done:  E(UB3LYP) =  -496.626216712     A.U. after   22 cycles
 Normal termination of Gaussian 16 at Tue Dec  8 20:04:14 2020.
 Gaussian 16:  ES64L-G16RevA.03 25-Dec-2016

 ----------------------------------------------------------------------
 # B3LYP/6-311++G(d,p) empiricaldispersion=gd3bj scf=xqc pop=npa geom=c
 heck
 ----------------------------------------------------------------------

 ------------------------------------
 CID_115410453_JID_1307_Energie_anion
 ------------------------------------
 Structure from the checkpoint file:  "JID_1307.chk"
 Charge = -1 Multiplicity = 2

                         Standard orientation:
 ---------------------------------------------------------------------
 Center     Atomic      Atomic             Coordinates (Angstroms)
 Number     Number       Type             X           Y           Z
 ---------------------------------------------------------------------
      1          6           0       -1.475552   -2.370647   -0.675405
      2          6           0       -1.515196   -1.506081    0.585408
      3          7           0       -1.376268   -0.084401    0.294807
      4          6           0       -2.356484    0.707527   -0.277696
      5          6           0       -1.790094    1.946869   -0.430338
      6          7           0       -0.492069    1.942794    0.027222
      7          6           0       -0.266468    0.713336    0.458185
      8          6           0        1.045322    0.243945    1.006636
      9          6           0        1.900336   -0.446213   -0.041206
     10          6           0        2.770689    0.332344   -0.926455
     11          8           0        3.314292   -0.419260    0.172623
     12          1           0       -2.290941   -2.105239   -1.355668
     13          1           0       -1.576265   -3.429403   -0.413759
     14          1           0       -0.531359   -2.233108   -1.211623
     15          1           0       -2.458885   -1.654534    1.121727
     16          1           0       -0.711203   -1.788009    1.269684
     17          1           0       -3.338503    0.316977   -0.500098
     18          1           0       -2.242799    2.843125   -0.832279
     19          1           0        1.583626    1.126578    1.361216
     20          1           0        0.909772   -0.422354    1.868121
     21          1           0        1.525412   -1.405684   -0.404882
     22          1           0        3.020501   -0.045176   -1.917626
     23          1           0        2.799351    1.415678   -0.814774
 ---------------------------------------------------------------------

 SCF Done:  E(UB3LYP) =  -496.918712402     A.U. after   31 cycles

 The electronic state is 2-A.
 Alpha  occ. eigenvalues --  -19.04767 -14.26727 -14.19103 -10.13944 -10.13251
 Alpha  occ. eigenvalues --  -10.12856 -10.11109 -10.09302 -10.09199 -10.08129
 Alpha  occ. eigenvalues --  -10.05841  -0.98807  -0.91661  -0.78648  -0.69739
 Alpha  occ. eigenvalues --   -0.65877  -0.61661  -0.57661  -0.54647  -0.51800
 Alpha  occ. eigenvalues --   -0.50016  -0.45215  -0.42615  -0.41527  -0.38907
 Alpha  occ. eigenvalues --   -0.36062  -0.35677  -0.33932  -0.32803  -0.32113
 Alpha  occ. eigenvalues --   -0.30477  -0.29165  -0.28548  -0.27741  -0.27256
 Alpha  occ. eigenvalues --   -0.25426  -0.22027  -0.19102  -0.17494  -0.16999
 Alpha  occ. eigenvalues --   -0.12705   0.04715
 Alpha virt. eigenvalues --    0.07350   0.07681   0.08298   0.09286   0.09984
 Alpha virt. eigenvalues --    0.10188   0.10871   0.11573   0.12187   0.12459
 Alpha virt. eigenvalues --    0.13196   0.13948   0.14535   0.14847   0.15475

  Beta  occ. eigenvalues --  -19.04764 -14.26731 -14.19103 -10.13927 -10.13243
  Beta  occ. eigenvalues --  -10.12851 -10.11062 -10.09293 -10.09172 -10.08125
  Beta  occ. eigenvalues --  -10.05776  -0.98797  -0.91652  -0.78633  -0.69720
  Beta  occ. eigenvalues --   -0.65812  -0.61628  -0.57638  -0.54530  -0.51761
  Beta  occ. eigenvalues --   -0.49996  -0.45160  -0.42557  -0.41488  -0.38882
  Beta  occ. eigenvalues --   -0.36012  -0.35624  -0.33908  -0.32759  -0.32081
  Beta  occ. eigenvalues --   -0.30441  -0.29145  -0.28506  -0.27695  -0.27169
  Beta  occ. eigenvalues --   -0.25369  -0.22010  -0.19085  -0.17489  -0.16984
  Beta  occ. eigenvalues --   -0.12674
  Beta virt. eigenvalues --    0.07346   0.08182   0.08467   0.08709   0.10028
  Beta virt. eigenvalues --    0.10377   0.10912   0.11036   0.11846   0.12749
  Beta virt. eigenvalues --    0.12915   0.13820   0.13937   0.14819   0.15230

 Mulliken charges and spin densities:
               1          2
     1  C    2.827866  -3.261358
     2  C   -1.345768   1.152589
     3  N    0.059052   0.081319
     4  C    0.013360  -0.066045
     5  C    0.801611  -0.899180
     6  N   -0.141715   0.062415
     7  C   -0.143825  -0.091402
     8  C    0.879705  -1.457346
     9  C   -0.473833   0.466831
    10  C    0.198387  -0.564116
    11  O   -0.137351   0.011325
    12  H   -0.370317   0.522605
    13  H   -0.920261   1.079483
    14  H   -0.093608   0.215776
    15  H   -0.758637   0.960854
    16  H   -0.465519   0.599271
    17  H   -1.018762   1.194505
    18  H   -0.008467   0.151143
    19  H    0.205260  -0.022289
    20  H    0.055281   0.144398
    21  H   -0.234857   0.499785
    22  H   -0.059736   0.203542
    23  H    0.132134   0.015896
 Sum of Mulliken charges =  -1.00000   1.00000

 Dipole moment (field-independent basis, Debye):
    X=              5.9925    Y=              6.8942    Z=             -0.0159  Tot=              9.1345
 Quadrupole moment (field-independent basis, Debye-Ang):
   XX=           -130.3446   YY=           -123.8044   ZZ=            -93.8926
   XY=            -12.1372   XZ=             -1.0431   YZ=              0.5262

 Summary of Natural Population Analysis:

                                       Natural Population
                Natural  -----------------------------------------------
    Atom  No    Charge         Core      Valence    Rydberg      Total
 -----------------------------------------------------------------------
      C    1   -0.28657      0.99966     2.28134    0.00557     3.28657
      C    2   -0.08425      0.99962     2.07280    0.01183     3.08425
      N    3   -0.20679      0.99962     2.69533    0.01184     3.70679
      C    4   -0.03054      0.99954     2.01904    0.01196     3.03054
      C    5   -0.03772      0.99958     2.02407    0.01406     3.03772
      N    6   -0.26535      0.99970     2.75636    0.00929     3.76535
      C    7    0.19162      0.99959     1.79004    0.01875     2.80838
      C    8   -0.22440      0.99958     2.21435    0.01047     3.22440
      C    9    0.04738      0.99957     1.93849    0.01456     2.95262
      C   10   -0.03310      0.99957     2.02265    0.01088     3.03310
      O   11   -0.28176      0.99992     3.27447    0.00736     4.28176
      H   12    0.10266      0.00000     0.39486    0.00248     0.39734
      H   13    0.10922      0.00000     0.38570    0.00508     0.39078
      H   14    0.09614      0.00000     0.40205    0.00181     0.40386
      H   15    0.10492      0.00000     0.39073    0.00435     0.39508
      H   16    0.10062      0.00000     0.39728    0.00210     0.39938
      H   17    0.10825      0.00000     0.38994    0.00181     0.39175
      H   18    0.09434      0.00000     0.40472    0.00094     0.40566
      H   19    0.11581      0.00000     0.38279    0.00140     0.38419
      H   20    0.10887      0.00000     0.38991    0.00123     0.39113
      H   21    0.09377      0.00000     0.40429    0.00194     0.40623
      H   22    0.08795      0.00000     0.41109    0.00096     0.41205
      H   23    0.08893      0.00000     0.41002    0.00105     0.41107
 =======================================================================
   * Total *   -0.00000     10.99595    29.85233    0.15173    41.00000

 Normal termination of Gaussian 16 at Tue Dec  8 20:11:30 2020.
