 Gaussian 16, Revision A.03,

 -----------------------------------------------------------
 # opt freq B3LYP/6-31G(d) empiricaldispersion=gd3bj scf=xqc
 -----------------------------------------------------------

 -------------------------------
 CID_148701960_JID_4806_neutraal
 -------------------------------
 Symbolic Z-matrix:
 Charge =  0 Multiplicity = 1

 SCF Done:  E(RB3LYP) =  -548.001233629     A.U. after   13 cycles
 SCF Done:  E(RB3LYP) =  -548.003923510     A.U. after   11 cycles
 SCF Done:  E(RB3LYP) =  -548.004388279     A.U. after   11 cycles
 SCF Done:  E(RB3LYP) =  -548.004552506     A.U. after   11 cycles
 SCF Done:  E(RB3LYP) =  -548.004612697     A.U. after   10 cycles
 SCF Done:  E(RB3LYP) =  -548.004651318     A.U. after    9 cycles
 SCF Done:  E(RB3LYP) =  -548.004673807     A.U. after    9 cycles
 SCF Done:  E(RB3LYP) =  -548.004688104     A.U. after    9 cycles
 SCF Done:  E(RB3LYP) =  -548.004702246     A.U. after   10 cycles
 SCF Done:  E(RB3LYP) =  -548.004713657     A.U. after   10 cycles
 SCF Done:  E(RB3LYP) =  -548.004723934     A.U. after    8 cycles
 SCF Done:  E(RB3LYP) =  -548.004725306     A.U. after    7 cycles
 SCF Done:  E(RB3LYP) =  -548.004725368     A.U. after    6 cycles
 Optimization completed.
    -- Stationary point found.
 Normal termination of Gaussian 16 at Thu Dec 10 10:20:18 2020.

 --------------------------------------------------------------------
 #N Geom=AllCheck Guess=TCheck SCRF=Check GenChk RB3LYP/6-31G(d) Freq
 --------------------------------------------------------------------

 Structure from the checkpoint file:  "JID_4806.chk"
 -------------------------------
 CID_148701960_JID_4806_neutraal
 -------------------------------
 Charge =  0 Multiplicity = 1

 SCF Done:  E(RB3LYP) =  -548.004725368     A.U. after    1 cycles

  Exact polarizability: 177.972   2.228 150.117   2.377   2.324 111.530
 Approx polarizability: 238.755   3.478 224.103   4.037   5.044 168.336

                      1                      2                      3
                      A                      A                      A
 Frequencies --     39.8476                71.5307                92.8918
 Red. masses --      2.8127                 2.9416                 2.4554
 Frc consts  --      0.0026                 0.0089                 0.0125
 IR Inten    --      0.0058                 0.2634                 0.0307

                      4                      5                      6
                      A                      A                      A
 Frequencies --    104.4488               129.9982               178.9413
 Red. masses --      1.0866                 2.6047                 2.9566
 Frc consts  --      0.0070                 0.0259                 0.0558
 IR Inten    --      0.2597                 0.5178                 0.1493

                      7                      8                      9
                      A                      A                      A
 Frequencies --    184.7447               219.3771               235.0560
 Red. masses --      1.1191                 1.4258                 1.2267
 Frc consts  --      0.0225                 0.0404                 0.0399
 IR Inten    --      0.1771                 0.2266                 0.0956

                     10                     11                     12
                      A                      A                      A
 Frequencies --    251.2486               255.0253               274.4993
 Red. masses --      2.1505                 1.2217                 2.1034
 Frc consts  --      0.0800                 0.0468                 0.0934
 IR Inten    --      0.2743                 0.1933                 0.1155

                     13                     14                     15
                      A                      A                      A
 Frequencies --    279.9181               283.8605               308.8029
 Red. masses --      1.1181                 2.2167                 2.4260
 Frc consts  --      0.0516                 0.1052                 0.1363
 IR Inten    --      0.0278                 0.8959                 0.2726

                     16                     17                     18
                      A                      A                      A
 Frequencies --    321.0796               328.6015               333.6408
 Red. masses --      1.4123                 2.2005                 1.1466
 Frc consts  --      0.0858                 0.1400                 0.0752
 IR Inten    --      0.1264                 0.0019                 0.2367

                     19                     20                     21
                      A                      A                      A
 Frequencies --    369.1748               380.1239               404.2417
 Red. masses --      2.5911                 2.6380                 2.5935
 Frc consts  --      0.2081                 0.2246                 0.2497
 IR Inten    --      0.4781                 0.0432                 0.4363

                     22                     23                     24
                      A                      A                      A
 Frequencies --    412.2111               452.6643               509.7766
 Red. masses --      2.7025                 3.4491                 2.9217
 Frc consts  --      0.2706                 0.4164                 0.4474
 IR Inten    --      0.1519                 1.4117                 2.3362

                     25                     26                     27
                      A                      A                      A
 Frequencies --    510.5734               548.2669               573.3277
 Red. masses --      2.9292                 3.0774                 3.1678
 Frc consts  --      0.4499                 0.5450                 0.6135
 IR Inten    --      2.4946                 1.0375                 0.5254

                     28                     29                     30
                      A                      A                      A
 Frequencies --    651.5151               673.7927               716.1733
 Red. masses --      3.1835                 3.1481                 3.1517
 Frc consts  --      0.7962                 0.8421                 0.9524
 IR Inten    --      2.5636                 4.0244                 1.0157

                     31                     32                     33
                      A                      A                      A
 Frequencies --    805.0423               829.0519               868.3302
 Red. masses --      3.0187                 2.3408                 2.4856
 Frc consts  --      1.1527                 0.9479                 1.1042
 IR Inten    --      1.0948                 1.3913                 1.2805

                     34                     35                     36
                      A                      A                      A
 Frequencies --    909.0621               924.6407               940.2189
 Red. masses --      1.5021                 2.1874                 1.6835
 Frc consts  --      0.7314                 1.1019                 0.8769
 IR Inten    --      6.1652                 3.7052                 2.0704

                     37                     38                     39
                      A                      A                      A
 Frequencies --    950.5017               973.5237               980.0818
 Red. masses --      1.6940                 1.1954                 1.6183
 Frc consts  --      0.9017                 0.6675                 0.9159
 IR Inten    --      1.1548                 0.0990                 2.9000

                     40                     41                     42
                      A                      A                      A
 Frequencies --   1015.0216              1016.3203              1038.8006
 Red. masses --      1.4527                 1.4521                 1.5005
 Frc consts  --      0.8818                 0.8837                 0.9540
 IR Inten    --      0.8102                 1.8867                 3.0490

                     43                     44                     45
                      A                      A                      A
 Frequencies --   1047.2331              1063.4057              1067.3634
 Red. masses --      1.5618                 1.3896                 2.0569
 Frc consts  --      1.0092                 0.9258                 1.3807
 IR Inten    --      1.1984                 1.0284                 6.3631

                     46                     47                     48
                      A                      A                      A
 Frequencies --   1072.2516              1080.2113              1111.4608
 Red. masses --      1.4638                 1.6405                 1.7351
 Frc consts  --      0.9915                 1.1278                 1.2629
 IR Inten    --      1.3726                 1.1178                 1.7620

                     49                     50                     51
                      A                      A                      A
 Frequencies --   1142.6340              1161.9688              1188.4862
 Red. masses --      1.9323                 2.0743                 2.8214
 Frc consts  --      1.4864                 1.6501                 2.3480
 IR Inten    --      1.0039                 1.2757                 9.1238

                     52                     53                     54
                      A                      A                      A
 Frequencies --   1221.0842              1239.3313              1253.9240
 Red. masses --      2.8480                 2.6621                 2.4106
 Frc consts  --      2.5020                 2.4091                 2.2331
 IR Inten    --      0.3176                 3.9481                 2.1908

                     55                     56                     57
                      A                      A                      A
 Frequencies --   1277.8748              1289.0323              1324.9814
 Red. masses --      2.1549                 2.1859                 1.6755
 Frc consts  --      2.0732                 2.1400                 1.7331
 IR Inten    --      5.2905                21.8196                 3.5831

                     58                     59                     60
                      A                      A                      A
 Frequencies --   1339.9727              1361.6188              1393.6243
 Red. masses --      1.4798                 1.4547                 1.6030
 Frc consts  --      1.5655                 1.5890                 1.8343
 IR Inten    --      2.9442                 1.2310                 4.6760

                     61                     62                     63
                      A                      A                      A
 Frequencies --   1405.3833              1424.9722              1428.5627
 Red. masses --      1.7258                 1.2269                 1.2670
 Frc consts  --      2.0083                 1.4679                 1.5235
 IR Inten    --      5.0874                 2.3644                10.0072

                     64                     65                     66
                      A                      A                      A
 Frequencies --   1430.0915              1434.7411              1440.4797
 Red. masses --      1.2261                 1.3789                 1.2287
 Frc consts  --      1.4774                 1.6724                 1.5022
 IR Inten    --      8.0339                 3.4607                 3.4780

                     67                     68                     69
                      A                      A                      A
 Frequencies --   1453.8776              1458.6863              1509.8060
 Red. masses --      1.2099                 1.2163                 1.0467
 Frc consts  --      1.5068                 1.5249                 1.4057
 IR Inten    --      0.1826                 1.6586                 0.5843

                     70                     71                     72
                      A                      A                      A
 Frequencies --   1510.5779              1513.7724              1515.0633
 Red. masses --      1.0498                 1.0502                 1.0464
 Frc consts  --      1.4113                 1.4179                 1.4152
 IR Inten    --      0.7995                 3.6285                 1.4422

                     73                     74                     75
                      A                      A                      A
 Frequencies --   1516.2362              1519.1157              1525.0665
 Red. masses --      1.0463                 1.0475                 1.0563
 Frc consts  --      1.4173                 1.4243                 1.4475
 IR Inten    --      5.7222                 1.0945                 3.0968

                     76                     77                     78
                      A                      A                      A
 Frequencies --   1526.8442              1531.0175              1534.9213
 Red. masses --      1.0589                 1.0659                 1.0524
 Frc consts  --      1.4544                 1.4721                 1.4608
 IR Inten    --      7.3818                 3.2821                 8.4030

                     79                     80                     81
                      A                      A                      A
 Frequencies --   1537.3388              1540.9384              1548.5200
 Red. masses --      1.0565                 1.0507                 1.0559
 Frc consts  --      1.4712                 1.4700                 1.4918
 IR Inten    --      3.4984                10.0941                 3.2384

                     82                     83                     84
                      A                      A                      A
 Frequencies --   1549.2564              1669.3024              1730.5516
 Red. masses --      1.0560                 7.0658                 6.5047
 Frc consts  --      1.4933                11.6006                11.4774
 IR Inten    --      3.3452                 0.1920                10.6045

                     85                     86                     87
                      A                      A                      A
 Frequencies --   2946.7190              3028.2555              3033.5959
 Red. masses --      1.0813                 1.0457                 1.0439
 Frc consts  --      5.5317                 5.6497                 5.6600
 IR Inten    --     30.0782                48.0684                31.5096

                     88                     89                     90
                      A                      A                      A
 Frequencies --   3041.1936              3044.3926              3051.6358
 Red. masses --      1.0367                 1.0360                 1.0374
 Frc consts  --      5.6490                 5.6574                 5.6920
 IR Inten    --     27.4670                25.9646                27.1423

                     91                     92                     93
                      A                      A                      A
 Frequencies --   3053.3592              3058.9391              3072.1986
 Red. masses --      1.0369                 1.0355                 1.0949
 Frc consts  --      5.6955                 5.7089                 6.0888
 IR Inten    --     24.8539                27.5155                16.0760

                     94                     95                     96
                      A                      A                      A
 Frequencies --   3074.4350              3074.5017              3107.5414
 Red. masses --      1.0924                 1.0894                 1.1001
 Frc consts  --      6.0837                 6.0669                 6.2593
 IR Inten    --     32.0809                20.6492                10.5000

                     97                     98                     99
                      A                      A                      A
 Frequencies --   3108.3969              3115.6975              3116.0040
 Red. masses --      1.1013                 1.1007                 1.1009
 Frc consts  --      6.2695                 6.2955                 6.2981
 IR Inten    --      4.7595                50.3784                83.7581

                    100                    101                    102
                      A                      A                      A
 Frequencies --   3120.2038              3122.7186              3126.4773
 Red. masses --      1.1018                 1.1020                 1.1019
 Frc consts  --      6.3203                 6.3313                 6.3462
 IR Inten    --     51.4501                 9.9974                42.4504

                    103                    104                    105
                      A                      A                      A
 Frequencies --   3128.1426              3130.4116              3133.7743
 Red. masses --      1.1012                 1.1014                 1.1022
 Frc consts  --      6.3486                 6.3592                 6.3776
 IR Inten    --     22.8804                 8.8679                40.3380

                    106                    107                    108
                      A                      A                      A
 Frequencies --   3144.8268              3158.6984              3162.7203
 Red. masses --      1.0965                 1.0883                 1.0910
 Frc consts  --      6.3890                 6.3976                 6.4298
 IR Inten    --     11.1416                39.2029                41.7701

 - Thermochemistry -
 -------------------
 Temperature   298.150 Kelvin.  Pressure   1.00000 Atm.
 Atom     1 has atomic number  6 and mass  12.00000

 Molecular mass:   192.18780 amu.
 Principal axes and moments of inertia in atomic units:
                           1         2         3
     Eigenvalues --  1772.702263628.484644552.06046
           X            0.99999   0.00432  -0.00110
           Y           -0.00432   0.99999   0.00091
           Z            0.00110  -0.00090   1.00000
 This molecule is an asymmetric top.
 Rotational symmetry number  1.
 Warning -- assumption of classical behavior for rotation
           may cause significant error
 Rotational temperatures (Kelvin)      0.04886     0.02387     0.01903
 Rotational constants (GHZ):           1.01807     0.49738     0.39647
 Zero-point vibrational energy     917490.1 (Joules/Mol)
                                  219.28540 (Kcal/Mol)
 Warning -- explicit consideration of  27 degrees of freedom as
           vibrations may cause significant error
 Vibrational temperatures:     57.33   102.92   133.65   150.28   187.04
          (Kelvin)            257.46   265.81   315.63   338.19   361.49
                              366.92   394.94   402.74   408.41   444.30
                              461.96   472.78   480.03   531.16   546.91
                              581.61   593.08   651.28   733.45   734.60
                              788.83   824.89   937.38   969.44  1030.41
                             1158.28  1192.82  1249.33  1307.94  1330.35
                             1352.77  1367.56  1400.68  1410.12  1460.39
                             1462.26  1494.60  1506.73  1530.00  1535.70
                             1542.73  1554.18  1599.14  1644.00  1671.81
                             1709.97  1756.87  1783.12  1804.12  1838.58
                             1854.63  1906.35  1927.92  1959.07  2005.11
                             2022.03  2050.22  2055.38  2057.58  2064.27
                             2072.53  2091.81  2098.72  2172.27  2173.38
                             2177.98  2179.84  2181.53  2185.67  2194.23
                             2196.79  2202.79  2208.41  2211.89  2217.07
                             2227.97  2229.03  2401.75  2489.88  4239.67
                             4356.98  4364.67  4375.60  4380.20  4390.62
                             4393.10  4401.13  4420.21  4423.43  4423.52
                             4471.06  4472.29  4482.79  4483.23  4489.28
                             4492.90  4498.30  4500.70  4503.96  4508.80
                             4524.70  4544.66  4550.45

 Zero-point correction=                           0.349454 (Hartree/Particle)
 Thermal correction to Energy=                    0.365902
 Thermal correction to Enthalpy=                  0.366846
 Thermal correction to Gibbs Free Energy=         0.307444
 Sum of electronic and zero-point Energies=           -547.655272
 Sum of electronic and thermal Energies=              -547.638823
 Sum of electronic and thermal Enthalpies=            -547.637879
 Sum of electronic and thermal Free Energies=         -547.697281

                     E (Thermal)             CV                S
                      KCal/Mol        Cal/Mol-Kelvin    Cal/Mol-Kelvin
 Total                  229.607             63.967            125.022
 Electronic               0.000              0.000              0.000
 Translational            0.889              2.981             41.665
 Rotational               0.889              2.981             31.749
 Vibrational            227.830             58.005             51.607
 Vibration     1          0.594              1.981              5.267
 Vibration     2          0.598              1.968              4.111
 Vibration     3          0.602              1.954              3.598
 Vibration     4          0.605              1.946              3.370
 Vibration     5          0.612              1.923              2.946
 Vibration     6          0.629              1.868              2.339
 Vibration     7          0.631              1.861              2.280
 Vibration     8          0.647              1.812              1.964
 Vibration     9          0.655              1.787              1.840
 Vibration    10          0.663              1.761              1.722
 Vibration    11          0.665              1.754              1.696
 Vibration    12          0.677              1.720              1.568
 Vibration    13          0.680              1.711              1.534
 Vibration    14          0.682              1.704              1.510
 Vibration    15          0.698              1.657              1.369
 Vibration    16          0.707              1.633              1.305
 Vibration    17          0.712              1.618              1.267
 Vibration    18          0.715              1.608              1.242
 Vibration    19          0.741              1.536              1.083
 Vibration    20          0.750              1.513              1.039
 Vibration    21          0.769              1.461              0.947
 Vibration    22          0.776              1.444              0.919
 Vibration    23          0.811              1.355              0.788
 Vibration    24          0.865              1.228              0.634
 Vibration    25          0.866              1.227              0.632
 Vibration    26          0.904              1.143              0.548
 Vibration    27          0.930              1.089              0.498

 Optimization completed.
    -- Stationary point found.
 Normal termination of Gaussian 16 at Thu Dec 10 10:33:52 2020.

 ----------------------------------------------------------------------
 # B3LYP/6-311++G(d,p) empiricaldispersion=gd3bj scf=xqc pop=npa geom=c
 heck
 ----------------------------------------------------------------------

 ---------------------------------------
 CID_148701960_JID_4806_Energie_neutraal
 ---------------------------------------
 Structure from the checkpoint file:  "JID_4806.chk"
 Charge =  0 Multiplicity = 1

 SCF Done:  E(RB3LYP) =  -548.149954167     A.U. after   14 cycles
 Normal termination of Gaussian 16 at Thu Dec 10 10:40:51 2020.

 ----------------------------------------------------------------------
 # B3LYP/6-311++G(d,p) empiricaldispersion=gd3bj scf=xqc pop=npa geom=c
 heck
 ----------------------------------------------------------------------

 -------------------------------------
 CID_148701960_JID_4806_Energie_kation
 -------------------------------------
 Structure from the checkpoint file:  "JID_4806.chk"
 Charge =  1 Multiplicity = 2

 SCF Done:  E(UB3LYP) =  -547.889122072     A.U. after   17 cycles
 Normal termination of Gaussian 16 at Thu Dec 10 10:53:36 2020.
 Gaussian 16:  ES64L-G16RevA.03 25-Dec-2016

 ----------------------------------------------------------------------
 # B3LYP/6-311++G(d,p) empiricaldispersion=gd3bj scf=xqc pop=npa geom=c
 heck
 ----------------------------------------------------------------------

 ------------------------------------
 CID_148701960_JID_4806_Energie_anion
 ------------------------------------
 Structure from the checkpoint file:  "JID_4806.chk"
 Charge = -1 Multiplicity = 2

                         Standard orientation:
 ---------------------------------------------------------------------
 Center     Atomic      Atomic             Coordinates (Angstroms)
 Number     Number       Type             X           Y           Z
 ---------------------------------------------------------------------
      1          6           0       -2.181703   -2.302260   -0.478743
      2          6           0       -1.348277   -1.020496   -0.612276
      3          6           0        0.017070   -1.158439    0.095988
      4          6           0        0.828090    0.112268   -0.103536
      5          6           0        0.142161    1.270387   -0.114113
      6          6           0       -1.318369    1.360145    0.015597
      7          6           0       -2.074255    0.258526   -0.196587
      8          6           0       -3.577550    0.231876   -0.163697
      9          6           0       -1.837027    2.736553    0.355015
     10          6           0        2.365077    0.090114   -0.154530
     11          6           0        2.862985    0.937424   -1.345074
     12          6           0        2.931142    0.685478    1.155174
     13          6           0        2.928756   -1.332646   -0.324559
     14          6           0       -0.101403   -1.470210    1.602449
     15          1           0       -3.065189   -2.278316   -1.123626
     16          1           0       -2.525726   -2.465737    0.547612
     17          1           0       -1.582656   -3.172357   -0.771321
     18          1           0       -1.111404   -0.902986   -1.685900
     19          1           0        0.525359   -2.002671   -0.380334
     20          1           0        0.673875    2.218057   -0.180919
     21          1           0       -3.952480   -0.514167    0.548513
     22          1           0       -4.012556    1.194534    0.109192
     23          1           0       -3.987679   -0.047021   -1.144824
     24          1           0       -1.543389    3.459562   -0.418353
     25          1           0       -2.922350    2.783657    0.455994
     26          1           0       -1.399245    3.092641    1.297028
     27          1           0        2.555022    1.983515   -1.256968
     28          1           0        3.958447    0.915428   -1.396374
     29          1           0        2.467198    0.550540   -2.290427
     30          1           0        2.610853    0.102668    2.025421
     31          1           0        4.028262    0.690599    1.134829
     32          1           0        2.586602    1.714471    1.298061
     33          1           0        2.646291   -1.991260    0.503123
     34          1           0        2.588494   -1.793717   -1.258576
     35          1           0        4.023401   -1.292587   -0.354774
     36          1           0       -0.616392   -2.420169    1.779703
     37          1           0        0.889108   -1.541494    2.062590
     38          1           0       -0.654023   -0.675514    2.113672
 ---------------------------------------------------------------------

 SCF Done:  E(UB3LYP) =  -548.135587176     A.U. after   33 cycles
 SCF Done:  E(UB3LYP) =  -548.135587176     a.u. after    1 cycles

 The electronic state is 2-A.
 Alpha  occ. eigenvalues --  -10.08844 -10.06852 -10.06783 -10.06486 -10.06402
 Alpha  occ. eigenvalues --  -10.06354 -10.06290 -10.06050 -10.05841 -10.05822
 Alpha  occ. eigenvalues --  -10.05760 -10.05301 -10.05240 -10.05172  -0.75515
 Alpha  occ. eigenvalues --   -0.71790  -0.67970  -0.65739  -0.60998  -0.60765
 Alpha  occ. eigenvalues --   -0.58636  -0.58418  -0.56085  -0.53896  -0.48324
 Alpha  occ. eigenvalues --   -0.46514  -0.42512  -0.38629  -0.37448  -0.37259
 Alpha  occ. eigenvalues --   -0.34552  -0.34009  -0.32937  -0.32227  -0.31410
 Alpha  occ. eigenvalues --   -0.30599  -0.30247  -0.29708  -0.29440  -0.28900
 Alpha  occ. eigenvalues --   -0.28136  -0.27897  -0.27044  -0.26655  -0.26019
 Alpha  occ. eigenvalues --   -0.25492  -0.24621  -0.23783  -0.23226  -0.22617
 Alpha  occ. eigenvalues --   -0.20352  -0.18981  -0.17705  -0.09655   0.04396
 Alpha virt. eigenvalues --    0.06397   0.06887   0.07965   0.08125   0.08363
 Alpha virt. eigenvalues --    0.08764   0.09289   0.09680   0.10120   0.10663
 Alpha virt. eigenvalues --    0.10844   0.11351   0.11886   0.12450   0.12771

  Beta  occ. eigenvalues --  -10.08844 -10.06847 -10.06780 -10.06452 -10.06383
  Beta  occ. eigenvalues --  -10.06336 -10.06273 -10.06024 -10.05824 -10.05795
  Beta  occ. eigenvalues --  -10.05735 -10.05265 -10.05229 -10.05140  -0.75470
  Beta  occ. eigenvalues --   -0.71760  -0.67933  -0.65692  -0.60957  -0.60714
  Beta  occ. eigenvalues --   -0.58590  -0.58373  -0.56024  -0.53836  -0.48270
  Beta  occ. eigenvalues --   -0.46466  -0.42453  -0.38594  -0.37410  -0.37213
  Beta  occ. eigenvalues --   -0.34520  -0.33970  -0.32906  -0.32181  -0.31370
  Beta  occ. eigenvalues --   -0.30555  -0.30211  -0.29672  -0.29407  -0.28870
  Beta  occ. eigenvalues --   -0.28099  -0.27862  -0.27014  -0.26629  -0.25984
  Beta  occ. eigenvalues --   -0.25455  -0.24587  -0.23745  -0.23195  -0.22578
  Beta  occ. eigenvalues --   -0.20323  -0.18951  -0.17592  -0.09529
  Beta virt. eigenvalues --    0.06345   0.07075   0.07363   0.08362   0.08561
  Beta virt. eigenvalues --    0.08872   0.09124   0.09620   0.09976   0.10404
  Beta virt. eigenvalues --    0.10993   0.11181   0.11613   0.12151   0.12710

 Mulliken charges and spin densities:
               1          2
     1  C    0.991000  -1.826437
     2  C   -0.506502   0.506558
     3  C   -0.296021   0.394329
     4  C    0.044125   0.642200
     5  C   -0.794337   0.579677
     6  C    0.302893  -0.173845
     7  C   -0.479430   0.282543
     8  C    1.530664  -2.007659
     9  C    0.448704  -1.063502
    10  C   -1.878726   2.290938
    11  C    0.058843  -0.696023
    12  C    0.354306  -0.955421
    13  C    0.205493  -0.705565
    14  C    0.216766  -1.085844
    15  H   -0.207573   0.358948
    16  H    0.179684  -0.022934
    17  H   -0.473389   0.614861
    18  H   -0.151890   0.363089
    19  H    0.683755  -0.433977
    20  H    0.413154  -0.265745
    21  H   -0.122405   0.275105
    22  H    0.074684   0.027718
    23  H   -0.220614   0.383733
    24  H   -0.094806   0.254506
    25  H   -0.035780   0.141930
    26  H   -0.078226   0.237443
    27  H   -0.261730   0.395063
    28  H   -0.069512   0.211786
    29  H    0.089792   0.056824
    30  H    0.003431   0.133581
    31  H   -0.197124   0.342273
    32  H   -0.075567   0.227984
    33  H   -0.170954   0.322092
    34  H   -0.226240   0.362486
    35  H   -0.122602   0.278052
    36  H   -0.335412   0.461476
    37  H    0.077306   0.036042
    38  H    0.124239   0.055716
 Sum of Mulliken charges =  -1.00000   1.00000

 Dipole moment (field-independent basis, Debye):
    X=              0.3405    Y=              1.9011    Z=              0.7903  Tot=              2.0868
 Quadrupole moment (field-independent basis, Debye-Ang):
   XX=           -160.2036   YY=           -140.4665   ZZ=           -127.3991
   XY=             -3.4527   XZ=             -4.3638   YZ=             -2.0714

 Summary of Natural Population Analysis:

                                       Natural Population
                Natural  -----------------------------------------------
    Atom  No    Charge         Core      Valence    Rydberg      Total
 -----------------------------------------------------------------------
      C    1   -0.28592      0.99965     2.27992    0.00635     3.28592
      C    2   -0.11457      0.99956     2.10325    0.01177     3.11457
      C    3   -0.12193      0.99955     2.11094    0.01144     3.12193
      C    4    0.03078      0.99945     1.95542    0.01435     2.96922
      C    5   -0.11154      0.99942     2.10196    0.01016     3.11154
      C    6   -0.03417      0.99942     2.02411    0.01063     3.03417
      C    7    0.00419      0.99943     1.98521    0.01117     2.99581
      C    8   -0.29724      0.99963     2.29191    0.00571     3.29724
      C    9   -0.28813      0.99963     2.28398    0.00452     3.28813
      C   10   -0.06124      0.99954     2.04949    0.01220     3.06124
      C   11   -0.27638      0.99963     2.27072    0.00603     3.27638
      C   12   -0.27731      0.99963     2.27065    0.00703     3.27731
      C   13   -0.28521      0.99964     2.27790    0.00767     3.28521
      C   14   -0.28486      0.99964     2.27897    0.00626     3.28486
      H   15    0.10164      0.00000     0.39723    0.00113     0.39836
      H   16    0.09725      0.00000     0.40160    0.00115     0.40275
      H   17    0.10103      0.00000     0.39775    0.00123     0.39897
      H   18    0.10292      0.00000     0.39512    0.00197     0.39708
      H   19    0.10373      0.00000     0.39405    0.00222     0.39627
      H   20    0.09549      0.00000     0.40330    0.00121     0.40451
      H   21    0.10263      0.00000     0.39625    0.00112     0.39737
      H   22    0.10053      0.00000     0.39859    0.00088     0.39947
      H   23    0.10383      0.00000     0.39484    0.00132     0.39617
      H   24    0.09995      0.00000     0.39884    0.00121     0.40005
      H   25    0.10020      0.00000     0.39896    0.00084     0.39980
      H   26    0.10083      0.00000     0.39794    0.00124     0.39917
      H   27    0.09914      0.00000     0.39981    0.00105     0.40086
      H   28    0.09604      0.00000     0.40299    0.00097     0.40396
      H   29    0.10105      0.00000     0.39792    0.00103     0.39895
      H   30    0.10018      0.00000     0.39884    0.00098     0.39982
      H   31    0.09643      0.00000     0.40262    0.00095     0.40357
      H   32    0.09989      0.00000     0.39911    0.00099     0.40011
      H   33    0.10144      0.00000     0.39753    0.00103     0.39856
      H   34    0.10094      0.00000     0.39793    0.00112     0.39906
      H   35    0.09960      0.00000     0.39948    0.00092     0.40040
      H   36    0.09931      0.00000     0.39980    0.00089     0.40069
      H   37    0.09800      0.00000     0.40106    0.00094     0.40200
      H   38    0.10151      0.00000     0.39737    0.00113     0.39849
 =======================================================================
   * Total *    0.00000     13.99382    39.85336    0.15282    54.00000

 Normal termination of Gaussian 16 at Thu Dec 10 11:18:29 2020.
