 Gaussian 16, Revision A.03,

 -----------------------------------------------------------
 # opt freq B3LYP/6-31G(d) empiricaldispersion=gd3bj scf=xqc
 -----------------------------------------------------------

 --------------------------------
 CID_105845452_JID_10671_neutraal
 --------------------------------
 Symbolic Z-matrix:
 Charge =  0 Multiplicity = 1

 SCF Done:  E(RB3LYP) =  -881.721136260     A.U. after   14 cycles
 SCF Done:  E(RB3LYP) =  -881.734290447     A.U. after   12 cycles
 SCF Done:  E(RB3LYP) =  -881.736097408     A.U. after   12 cycles
 SCF Done:  E(RB3LYP) =  -881.736734816     A.U. after   12 cycles
 SCF Done:  E(RB3LYP) =  -881.736937551     A.U. after   11 cycles
 SCF Done:  E(RB3LYP) =  -881.737015832     A.U. after   11 cycles
 SCF Done:  E(RB3LYP) =  -881.737043971     A.U. after   10 cycles
 SCF Done:  E(RB3LYP) =  -881.737054925     A.U. after   10 cycles
 SCF Done:  E(RB3LYP) =  -881.737058618     A.U. after    8 cycles
 SCF Done:  E(RB3LYP) =  -881.737061784     A.U. after    9 cycles
 SCF Done:  E(RB3LYP) =  -881.737063119     A.U. after    8 cycles
 SCF Done:  E(RB3LYP) =  -881.737063658     A.U. after    8 cycles
 SCF Done:  E(RB3LYP) =  -881.737063922     A.U. after    7 cycles
 SCF Done:  E(RB3LYP) =  -881.737063957     A.U. after    7 cycles
 Optimization completed.
    -- Stationary point found.
 Normal termination of Gaussian 16 at Mon Dec 14 13:57:19 2020.

 --------------------------------------------------------------------
 #N Geom=AllCheck Guess=TCheck SCRF=Check GenChk RB3LYP/6-31G(d) Freq
 --------------------------------------------------------------------

 Structure from the checkpoint file:  "JID_10671.chk"
 --------------------------------
 CID_105845452_JID_10671_neutraal
 --------------------------------
 Charge =  0 Multiplicity = 1

 SCF Done:  E(RB3LYP) =  -881.737063957     A.U. after    1 cycles

  Exact polarizability: 248.454 -17.728 210.550 -26.527 -13.451 116.719
 Approx polarizability: 345.512 -29.473 349.803 -56.287 -35.708 186.367

                      1                      2                      3
                      A                      A                      A
 Frequencies --     21.6981                33.8064                48.6624
 Red. masses --      4.2047                 4.1138                 4.0434
 Frc consts  --      0.0012                 0.0028                 0.0056
 IR Inten    --      0.7064                 0.5155                 1.0859

                      4                      5                      6
                      A                      A                      A
 Frequencies --     62.4244                67.7563                90.1284
 Red. masses --      2.0394                 3.2768                 3.8843
 Frc consts  --      0.0047                 0.0089                 0.0186
 IR Inten    --      0.3169                 1.5260                 3.9840

                      7                      8                      9
                      A                      A                      A
 Frequencies --    109.0044               141.6382               161.1429
 Red. masses --      1.7294                 4.1835                 3.8777
 Frc consts  --      0.0121                 0.0494                 0.0593
 IR Inten    --      1.4676                 0.6688                 1.4275

                     10                     11                     12
                      A                      A                      A
 Frequencies --    191.6572               205.4446               225.1116
 Red. masses --      2.9816                 2.5096                 3.5641
 Frc consts  --      0.0645                 0.0624                 0.1064
 IR Inten    --      1.7286                 0.2299                 0.2698

                     13                     14                     15
                      A                      A                      A
 Frequencies --    246.2484               256.4309               265.7458
 Red. masses --      2.0526                 2.4504                 1.5370
 Frc consts  --      0.0733                 0.0949                 0.0640
 IR Inten    --      4.7094                 2.2966                 0.4950

                     16                     17                     18
                      A                      A                      A
 Frequencies --    309.9603               347.4192               355.1493
 Red. masses --      2.5638                 3.8462                 4.3701
 Frc consts  --      0.1451                 0.2735                 0.3248
 IR Inten    --      2.2190                 6.5289                 3.6222

                     19                     20                     21
                      A                      A                      A
 Frequencies --    383.8696               400.3337               438.1632
 Red. masses --      2.1000                 4.1795                 3.2178
 Frc consts  --      0.1823                 0.3947                 0.3640
 IR Inten    --      1.3473                 9.2050                 1.0557

                     22                     23                     24
                      A                      A                      A
 Frequencies --    446.2375               479.3240               504.7309
 Red. masses --      3.8490                 2.8586                 4.6489
 Frc consts  --      0.4516                 0.3870                 0.6978
 IR Inten    --      3.0162                 8.4992                 6.0116

                     25                     26                     27
                      A                      A                      A
 Frequencies --    529.5635               543.1218               551.7152
 Red. masses --      1.9648                 4.4247                 4.2899
 Frc consts  --      0.3246                 0.7690                 0.7693
 IR Inten    --     66.6485                 4.4484                10.0052

                     28                     29                     30
                      A                      A                      A
 Frequencies --    574.2168               587.0039               656.5671
 Red. masses --      3.3608                 2.9689                 3.8475
 Frc consts  --      0.6529                 0.6027                 0.9772
 IR Inten    --     27.5190                23.0984                12.3209

                     31                     32                     33
                      A                      A                      A
 Frequencies --    679.6333               697.0169               721.5660
 Red. masses --      3.0993                 4.6013                 4.8738
 Frc consts  --      0.8435                 1.3171                 1.4951
 IR Inten    --     17.8701                 7.5522                 4.9989

                     34                     35                     36
                      A                      A                      A
 Frequencies --    727.3322               768.9908               779.4349
 Red. masses --      1.4391                 1.9164                 2.6292
 Frc consts  --      0.4485                 0.6677                 0.9411
 IR Inten    --      1.0485                 9.7207                 0.2243

                     37                     38                     39
                      A                      A                      A
 Frequencies --    786.3286               793.5125               842.9195
 Red. masses --      2.3679                 1.2957                 1.6765
 Frc consts  --      0.8626                 0.4807                 0.7018
 IR Inten    --      5.2543                 0.2591                40.2068

                     40                     41                     42
                      A                      A                      A
 Frequencies --    852.8232               866.3144               873.9038
 Red. masses --      2.5029                 1.6597                 2.4074
 Frc consts  --      1.0725                 0.7339                 1.0833
 IR Inten    --      1.7798                27.3261                14.6472

                     43                     44                     45
                      A                      A                      A
 Frequencies --    892.6531               923.8413               951.0587
 Red. masses --      5.3084                 4.1901                 1.2964
 Frc consts  --      2.4922                 2.1070                 0.6909
 IR Inten    --     15.4523                 1.2943                 0.3670

                     46                     47                     48
                      A                      A                      A
 Frequencies --    957.2241               957.6628               968.2058
 Red. masses --      2.5249                 1.3255                 2.0603
 Frc consts  --      1.3631                 0.7162                 1.1379
 IR Inten    --      0.4944                 0.1908                 6.0136

                     49                     50                     51
                      A                      A                      A
 Frequencies --    973.7474              1046.5826              1056.9387
 Red. masses --      2.6805                 2.4900                 1.3914
 Frc consts  --      1.4975                 1.6069                 0.9158
 IR Inten    --      1.9801                 1.4248                 2.9642

                     52                     53                     54
                      A                      A                      A
 Frequencies --   1090.8320              1094.8939              1112.2384
 Red. masses --      3.5845                 4.8328                 2.2581
 Frc consts  --      2.5130                 3.4135                 1.6458
 IR Inten    --     19.4960                65.4462                 4.1275

                     55                     56                     57
                      A                      A                      A
 Frequencies --   1134.3682              1152.7985              1169.1368
 Red. masses --      4.1780                 2.4579                 2.4637
 Frc consts  --      3.1675                 1.9245                 1.9841
 IR Inten    --     95.9093                70.1418                38.2307

                     58                     59                     60
                      A                      A                      A
 Frequencies --   1185.8111              1189.7556              1190.8692
 Red. masses --      1.2691                 1.2977                 1.2790
 Frc consts  --      1.0514                 1.0823                 1.0687
 IR Inten    --      0.7623                 7.2635                 1.0706

                     61                     62                     63
                      A                      A                      A
 Frequencies --   1211.2430              1214.3541              1222.1793
 Red. masses --      1.8402                 1.4940                 1.2891
 Frc consts  --      1.5907                 1.2981                 1.1345
 IR Inten    --     28.0978                10.6288                 0.9604

                     64                     65                     66
                      A                      A                      A
 Frequencies --   1235.0757              1257.4090              1263.7145
 Red. masses --      1.4256                 2.1541                 1.5263
 Frc consts  --      1.2812                 2.0066                 1.4361
 IR Inten    --     16.1999                30.2234                26.4778

                     67                     68                     69
                      A                      A                      A
 Frequencies --   1270.8808              1283.3960              1288.9521
 Red. masses --      1.2345                 2.0288                 1.4891
 Frc consts  --      1.1748                 1.9689                 1.4576
 IR Inten    --      0.8191                77.3617                 0.3496

                     70                     71                     72
                      A                      A                      A
 Frequencies --   1303.1137              1319.9381              1330.4049
 Red. masses --      2.1910                 1.7818                 2.1421
 Frc consts  --      2.1921                 1.8291                 2.2339
 IR Inten    --    162.3945                72.4275                10.2031

                     73                     74                     75
                      A                      A                      A
 Frequencies --   1338.5346              1357.3014              1393.2775
 Red. masses --      1.9595                 1.8578                 1.8888
 Frc consts  --      2.0685                 2.0165                 2.1603
 IR Inten    --     14.9377               126.0088                13.8652

                     76                     77                     78
                      A                      A                      A
 Frequencies --   1416.0419              1453.6643              1461.0838
 Red. masses --      4.3981                 2.5799                 3.0511
 Frc consts  --      5.1959                 3.2120                 3.8375
 IR Inten    --      9.0441                62.1857               127.1134

                     79                     80                     81
                      A                      A                      A
 Frequencies --   1491.0749              1495.0178              1497.5885
 Red. masses --      1.5761                 1.1471                 1.1718
 Frc consts  --      2.0646                 1.5106                 1.5485
 IR Inten    --     16.4021                 3.5281                 6.0502

                     82                     83                     84
                      A                      A                      A
 Frequencies --   1503.9125              1506.0808              1511.9419
 Red. masses --      1.1698                 1.3205                 1.0955
 Frc consts  --      1.5589                 1.7648                 1.4755
 IR Inten    --      2.8796                 4.4034                 4.4680

                     85                     86                     87
                      A                      A                      A
 Frequencies --   1522.3167              1529.3005              1535.9549
 Red. masses --      1.0480                 1.0592                 1.0663
 Frc consts  --      1.4309                 1.4596                 1.4822
 IR Inten    --      5.3062                 6.8099                48.8050

                     88                     89                     90
                      A                      A                      A
 Frequencies --   1538.8063              1540.2602              1557.2856
 Red. masses --      1.1057                 1.0895                 2.1411
 Frc consts  --      1.5426                 1.5229                 3.0593
 IR Inten    --      5.6665                32.4746               162.4993

                     91                     92                     93
                      A                      A                      A
 Frequencies --   1586.5859              1615.9445              1646.4503
 Red. masses --      2.7756                 8.4336                 5.1694
 Frc consts  --      4.1166                12.9752                 8.2563
 IR Inten    --    269.5496               128.3827               135.2166

                     94                     95                     96
                      A                      A                      A
 Frequencies --   1688.1060              3020.5953              3024.0630
 Red. masses --      6.0916                 1.0349                 1.0350
 Frc consts  --     10.2277                 5.5631                 5.5768
 IR Inten    --     29.0770                55.3935                73.7094

                     97                     98                     99
                      A                      A                      A
 Frequencies --   3054.0656              3069.3624              3073.5425
 Red. masses --      1.0711                 1.0924                 1.0618
 Frc consts  --      5.8861                 6.0636                 5.9099
 IR Inten    --     52.3221                 6.8435                47.0340

                    100                    101                    102
                      A                      A                      A
 Frequencies --   3076.9301              3082.4011              3095.1067
 Red. masses --      1.0697                 1.1067                 1.0625
 Frc consts  --      5.9666                 6.1951                 5.9967
 IR Inten    --     72.3175                44.6267                22.3198

                    103                    104                    105
                      A                      A                      A
 Frequencies --   3114.6491              3129.7562              3135.1167
 Red. masses --      1.1063                 1.1071                 1.0994
 Frc consts  --      6.3234                 6.3891                 6.3664
 IR Inten    --      8.8823                41.7210                24.8085

                    106                    107                    108
                      A                      A                      A
 Frequencies --   3149.2567              3158.4186              3169.9485
 Red. masses --      1.1062                 1.0994                 1.0937
 Frc consts  --      6.4638                 6.4615                 6.4750
 IR Inten    --     17.5012                28.1015                 5.6340

                    109                    110                    111
                      A                      A                      A
 Frequencies --   3173.5813              3188.5383              3205.6697
 Red. masses --      1.0880                 1.0892                 1.0947
 Frc consts  --      6.4561                 6.5245                 6.6280
 IR Inten    --     26.0335                 8.5284                35.1296

                    112                    113                    114
                      A                      A                      A
 Frequencies --   3217.1901              3228.9534              3624.4030
 Red. masses --      1.0895                 1.0916                 1.0747
 Frc consts  --      6.6443                 6.7057                 8.3177
 IR Inten    --      3.8154                15.7479                30.2087

 - Thermochemistry -
 -------------------
 Temperature   298.150 Kelvin.  Pressure   1.00000 Atm.
 Atom     1 has atomic number  6 and mass  12.00000

 Molecular mass:   272.15248 amu.
 Principal axes and moments of inertia in atomic units:
                           1         2         3
     Eigenvalues --  3237.941169214.08927**********
           X            1.00000  -0.00283   0.00137
           Y            0.00283   0.99999   0.00251
           Z           -0.00138  -0.00251   1.00000
 This molecule is an asymmetric top.
 Rotational symmetry number  1.
 Warning -- assumption of classical behavior for rotation
           may cause significant error
 Rotational temperatures (Kelvin)      0.02675     0.00940     0.00756
 Rotational constants (GHZ):           0.55737     0.19587     0.15750
 Zero-point vibrational energy     891525.4 (Joules/Mol)
                                  213.07969 (Kcal/Mol)
 Warning -- explicit consideration of  29 degrees of freedom as
           vibrations may cause significant error
 Vibrational temperatures:     31.22    48.64    70.01    89.81    97.49
          (Kelvin)            129.67   156.83   203.79   231.85   275.75
                              295.59   323.89   354.30   368.95   382.35
                              445.96   499.86   510.98   552.30   575.99
                              630.42   642.04   689.64   726.20   761.92
                              781.43   793.80   826.17   844.57   944.65
                              977.84  1002.85  1038.17  1046.47  1106.41
                             1121.43  1131.35  1141.69  1212.77  1227.02
                             1246.43  1257.35  1284.33  1329.20  1368.36
                             1377.23  1377.86  1393.03  1401.01  1505.80
                             1520.70  1569.46  1575.31  1600.26  1632.10
                             1658.62  1682.13  1706.12  1711.79  1713.40
                             1742.71  1747.18  1758.44  1777.00  1809.13
                             1818.20  1828.51  1846.52  1854.51  1874.89
                             1899.10  1914.16  1925.85  1952.85  2004.62
                             2037.37  2091.50  2102.17  2145.32  2151.00
                             2154.70  2163.79  2166.91  2175.35  2190.27
                             2200.32  2209.90  2214.00  2216.09  2240.59
                             2282.74  2324.98  2368.87  2428.81  4345.96
                             4350.95  4394.12  4416.13  4422.14  4427.02
                             4434.89  4453.17  4481.29  4503.02  4510.73
                             4531.08  4544.26  4560.85  4566.08  4587.60
                             4612.24  4628.82  4645.74  5214.71

 Zero-point correction=                           0.339564 (Hartree/Particle)
 Thermal correction to Energy=                    0.358128
 Thermal correction to Enthalpy=                  0.359072
 Thermal correction to Gibbs Free Energy=         0.291374
 Sum of electronic and zero-point Energies=           -881.397500
 Sum of electronic and thermal Energies=              -881.378936
 Sum of electronic and thermal Enthalpies=            -881.377992
 Sum of electronic and thermal Free Energies=         -881.445690

                     E (Thermal)             CV                S
                      KCal/Mol        Cal/Mol-Kelvin    Cal/Mol-Kelvin
 Total                  224.729             71.713            142.483
 Electronic               0.000              0.000              0.000
 Translational            0.889              2.981             42.702
 Rotational               0.889              2.981             34.191
 Vibrational            222.951             65.752             65.590
 Vibration     1          0.593              1.985              6.472
 Vibration     2          0.594              1.983              5.593
 Vibration     3          0.595              1.978              4.871
 Vibration     4          0.597              1.972              4.379
 Vibration     5          0.598              1.970              4.218
 Vibration     6          0.602              1.956              3.657
 Vibration     7          0.606              1.942              3.287
 Vibration     8          0.615              1.912              2.782
 Vibration     9          0.622              1.890              2.536
 Vibration    10          0.634              1.851              2.212
 Vibration    11          0.640              1.832              2.084
 Vibration    12          0.650              1.803              1.918
 Vibration    13          0.661              1.769              1.757
 Vibration    14          0.666              1.752              1.686
 Vibration    15          0.672              1.736              1.624
 Vibration    16          0.699              1.655              1.363
 Vibration    17          0.725              1.581              1.178
 Vibration    18          0.731              1.565              1.143
 Vibration    19          0.753              1.505              1.024
 Vibration    20          0.766              1.469              0.961
 Vibration    21          0.798              1.387              0.832
 Vibration    22          0.805              1.369              0.807
 Vibration    23          0.836              1.296              0.712
 Vibration    24          0.860              1.240              0.646
 Vibration    25          0.885              1.185              0.588
 Vibration    26          0.898              1.155              0.559
 Vibration    27          0.907              1.136              0.541
 Vibration    28          0.931              1.087              0.496
 Vibration    29          0.944              1.060              0.473

                           ! Non-Optimized Parameters !
 Normal termination of Gaussian 16 at Mon Dec 14 14:19:37 2020.

 ----------------------------------------------------------------------
 # B3LYP/6-311++G(d,p) empiricaldispersion=gd3bj scf=xqc pop=npa geom=c
 heck
 ----------------------------------------------------------------------

 ----------------------------------------
 CID_105845452_JID_10671_Energie_neutraal
 ----------------------------------------
 Structure from the checkpoint file:  "JID_10671.chk"
 Charge =  0 Multiplicity = 1

 SCF Done:  E(RB3LYP) =  -881.974057417     A.U. after   15 cycles
 Normal termination of Gaussian 16 at Mon Dec 14 14:29:06 2020.

 ----------------------------------------------------------------------
 # B3LYP/6-311++G(d,p) empiricaldispersion=gd3bj scf=xqc pop=npa geom=c
 heck
 ----------------------------------------------------------------------

 --------------------------------------
 CID_105845452_JID_10671_Energie_kation
 --------------------------------------
 Structure from the checkpoint file:  "JID_10671.chk"
 Charge =  1 Multiplicity = 2

 SCF Done:  E(UB3LYP) =  -881.721910885     A.U. after   21 cycles
 Normal termination of Gaussian 16 at Mon Dec 14 14:47:26 2020.
 Gaussian 16:  ES64L-G16RevA.03 25-Dec-2016

 ----------------------------------------------------------------------
 # B3LYP/6-311++G(d,p) empiricaldispersion=gd3bj scf=xqc pop=npa geom=c
 heck
 ----------------------------------------------------------------------

 -------------------------------------
 CID_105845452_JID_10671_Energie_anion
 -------------------------------------
 Structure from the checkpoint file:  "JID_10671.chk"
 Charge = -1 Multiplicity = 2

                         Standard orientation:
 ---------------------------------------------------------------------
 Center     Atomic      Atomic             Coordinates (Angstroms)
 Number     Number       Type             X           Y           Z
 ---------------------------------------------------------------------
      1          6           0        4.996601   -2.506240   -0.150786
      2          8           0        3.664374   -2.203065    0.225442
      3          6           0        3.211991   -0.928066    0.030459
      4          6           0        1.911360   -0.673051    0.435100
      5          6           0        1.344245    0.606732    0.280223
      6          6           0        2.126952    1.660939   -0.276636
      7          6           0        3.449227    1.369025   -0.681948
      8          6           0        3.988012    0.106614   -0.540627
      9          6           0        1.548952    2.956574   -0.387429
     10          6           0        0.262038    3.136009    0.043688
     11          7           0       -0.522179    2.146781    0.547819
     12          6           0       -0.018838    0.928235    0.661273
     13          7           0       -0.812059   -0.060607    1.195496
     14          6           0       -2.240655    0.114611    1.397019
     15          6           0       -3.049981   -0.473780    0.247128
     16          6           0       -4.580742   -0.186027    0.286810
     17          6           0       -4.508529    0.362279   -1.164696
     18          6           0       -2.958052    0.288560   -1.111541
     19          8           0       -2.672034   -1.851966    0.232197
     20          6           0       -3.225600   -2.671104   -0.776920
     21          1           0        5.145263   -3.558204    0.098679
     22          1           0        5.722758   -1.896978    0.403541
     23          1           0        5.156198   -2.364612   -1.228021
     24          1           0        1.366014   -1.490018    0.894239
     25          1           0        4.051636    2.165218   -1.111230
     26          1           0        5.005989   -0.079354   -0.862067
     27          1           0        2.125409    3.778740   -0.799891
     28          1           0       -0.212357    4.113453   -0.013762
     29          1           0       -0.565119   -1.009780    0.953016
     30          1           0       -2.534651   -0.390016    2.325986
     31          1           0       -2.437848    1.181553    1.495735
     32          1           0       -5.222210   -1.055185    0.458206
     33          1           0       -4.835354    0.574621    1.032059
     34          1           0       -4.934913    1.356702   -1.322327
     35          1           0       -4.947765   -0.319482   -1.899824
     36          1           0       -2.472538    1.259078   -0.989003
     37          1           0       -2.460705   -0.240479   -1.928921
     38          1           0       -4.322456   -2.712115   -0.724094
     39          1           0       -2.935803   -2.347122   -1.785578
     40          1           0       -2.832494   -3.676856   -0.607766
 ---------------------------------------------------------------------

 SCF Done:  E(UB3LYP) =  -881.968865172     A.U. after   33 cycles
 SCF Done:  E(UB3LYP) =  -881.968865173     a.u. after    2 cycles

 The electronic state is 2-A.
 Alpha  occ. eigenvalues --  -19.04510 -19.02975 -14.20004 -14.16112 -10.12912
 Alpha  occ. eigenvalues --  -10.12610 -10.11502 -10.10969 -10.10602 -10.08655
 Alpha  occ. eigenvalues --  -10.07322 -10.07191 -10.06931 -10.06076 -10.05611
 Alpha  occ. eigenvalues --  -10.05456 -10.04697 -10.03987 -10.03632 -10.03432
 Alpha  occ. eigenvalues --   -0.96026  -0.94115  -0.84097  -0.77602  -0.73899
 Alpha  occ. eigenvalues --   -0.72956  -0.66050  -0.64783  -0.63007  -0.61646
 Alpha  occ. eigenvalues --   -0.58208  -0.57227  -0.56883  -0.52496  -0.50959
 Alpha  occ. eigenvalues --   -0.49786  -0.46910  -0.44780  -0.43078  -0.41911
 Alpha  occ. eigenvalues --   -0.40300  -0.39517  -0.38644  -0.37052  -0.36997
 Alpha  occ. eigenvalues --   -0.35903  -0.35828  -0.33829  -0.33368  -0.33155
 Alpha  occ. eigenvalues --   -0.32592  -0.30616  -0.29914  -0.29328  -0.28895
 Alpha  occ. eigenvalues --   -0.28497  -0.27817  -0.26623  -0.26256  -0.25585
 Alpha  occ. eigenvalues --   -0.24978  -0.23785  -0.23469  -0.22607  -0.21480
 Alpha  occ. eigenvalues --   -0.21216  -0.19913  -0.17978  -0.15903  -0.13480
 Alpha  occ. eigenvalues --   -0.13235  -0.12338  -0.07441   0.04480
 Alpha virt. eigenvalues --    0.05844   0.06282   0.07600   0.08323   0.08526
 Alpha virt. eigenvalues --    0.08793   0.09633   0.10248   0.10308   0.10520
 Alpha virt. eigenvalues --    0.10740   0.11175   0.11540   0.11972   0.12234

  Beta  occ. eigenvalues --  -19.04519 -19.02970 -14.19967 -14.16047 -10.12898
  Beta  occ. eigenvalues --  -10.12607 -10.11469 -10.10987 -10.10414 -10.08656
  Beta  occ. eigenvalues --  -10.07309 -10.07182 -10.06941 -10.06070 -10.05659
  Beta  occ. eigenvalues --  -10.05455 -10.04557 -10.03743 -10.03404 -10.03323
  Beta  occ. eigenvalues --   -0.96028  -0.94103  -0.83910  -0.77486  -0.73879
  Beta  occ. eigenvalues --   -0.72704  -0.65881  -0.64632  -0.62732  -0.61545
  Beta  occ. eigenvalues --   -0.58013  -0.57168  -0.56847  -0.52333  -0.50678
  Beta  occ. eigenvalues --   -0.49629  -0.46753  -0.44736  -0.42988  -0.41802
  Beta  occ. eigenvalues --   -0.40268  -0.39459  -0.38548  -0.37007  -0.36940
  Beta  occ. eigenvalues --   -0.35797  -0.35786  -0.33793  -0.33289  -0.33047
  Beta  occ. eigenvalues --   -0.32494  -0.30485  -0.29810  -0.29219  -0.28649
  Beta  occ. eigenvalues --   -0.28250  -0.27740  -0.26566  -0.26203  -0.25262
  Beta  occ. eigenvalues --   -0.24899  -0.23726  -0.23427  -0.22584  -0.21363
  Beta  occ. eigenvalues --   -0.20896  -0.19648  -0.17576  -0.15890  -0.13120
  Beta  occ. eigenvalues --   -0.12504  -0.11712  -0.06660
  Beta virt. eigenvalues --    0.06287   0.06544   0.07767   0.08357   0.08537
  Beta virt. eigenvalues --    0.08669   0.08942   0.09772   0.10297   0.10389
  Beta virt. eigenvalues --    0.10406   0.10820   0.11165   0.11597   0.11933

 Mulliken charges and spin densities:
               1          2
     1  C   -0.132314  -0.170525
     2  O   -0.161723   0.009241
     3  C   -0.692402  -0.019526
     4  C   -0.881667   0.183034
     5  C    0.814174   0.072361
     6  C    0.381842  -0.052231
     7  C   -0.219753   0.045969
     8  C    0.384796   0.178905
     9  C   -0.282867   0.027717
    10  C   -0.474646  -0.018211
    11  N   -0.080399   0.041126
    12  C   -0.411367   0.127354
    13  N    0.283632   0.011953
    14  C   -0.895313   0.082678
    15  C   -0.367708   0.770202
    16  C    0.018767  -0.548658
    17  C    0.118272  -0.229807
    18  C   -0.239892  -0.226541
    19  O   -0.121191   0.012558
    20  C    0.749318  -0.985761
    21  H    0.027387   0.127474
    22  H    0.025219   0.113154
    23  H    0.125137   0.006677
    24  H    0.151395  -0.029366
    25  H    0.075352   0.003339
    26  H    0.105353   0.031020
    27  H    0.104214  -0.006306
    28  H    0.110660   0.011588
    29  H    0.250684   0.011988
    30  H    0.120757   0.023277
    31  H    0.249811  -0.014883
    32  H   -0.029927   0.170080
    33  H    0.126885  -0.003269
    34  H    0.019990   0.126816
    35  H   -0.063376   0.183577
    36  H    0.227646  -0.073080
    37  H    0.078896   0.076936
    38  H   -0.293151   0.429511
    39  H   -0.123838   0.272989
    40  H   -0.078655   0.226638
 Sum of Mulliken charges =  -1.00000   1.00000

 Dipole moment (field-independent basis, Debye):
    X=              1.2464    Y=              0.7266    Z=              0.2468  Tot=              1.4637
 Quadrupole moment (field-independent basis, Debye-Ang):
   XX=           -182.0589   YY=           -156.6049   ZZ=           -140.9643
   XY=            -12.0911   XZ=             -9.3045   YZ=             -4.1245

 Summary of Natural Population Analysis:

                                       Natural Population
                Natural  -----------------------------------------------
    Atom  No    Charge         Core      Valence    Rydberg      Total
 -----------------------------------------------------------------------
      C    1   -0.09789      0.99961     2.09005    0.00823     3.09789
      O    2   -0.27781      0.99985     3.26873    0.00922     4.27781
      C    3    0.15243      0.99938     1.83620    0.01199     2.84757
      C    4   -0.07866      0.99951     2.06901    0.01014     3.07866
      C    5   -0.04292      0.99941     2.03553    0.00797     3.04292
      C    6   -0.03355      0.99951     2.02580    0.00824     3.03355
      C    7   -0.04669      0.99955     2.03868    0.00847     3.04669
      C    8   -0.11600      0.99952     2.10825    0.00823     3.11600
      C    9   -0.12072      0.99952     2.11277    0.00843     3.12072
      C   10    0.01134      0.99958     1.97496    0.01412     2.98866
      N   11   -0.28117      0.99967     2.77064    0.01086     3.78117
      C   12    0.24907      0.99953     1.73642    0.01499     2.75093
      N   13   -0.30799      0.99967     2.79769    0.01063     3.80799
      C   14   -0.09502      0.99954     2.08256    0.01292     3.09502
      C   15    0.14086      0.99949     1.84201    0.01764     2.85914
      C   16   -0.20582      0.99960     2.19780    0.00842     3.20582
      C   17   -0.19551      0.99966     2.18788    0.00797     3.19551
      C   18   -0.21036      0.99959     2.20235    0.00842     3.21036
      O   19   -0.30830      0.99986     3.29809    0.01035     4.30830
      C   20   -0.09910      0.99960     2.08960    0.00990     3.09910
      H   21    0.08801      0.00000     0.41083    0.00117     0.41199
      H   22    0.08094      0.00000     0.41675    0.00231     0.41906
      H   23    0.08028      0.00000     0.41802    0.00170     0.41972
      H   24    0.09761      0.00000     0.40109    0.00130     0.40239
      H   25    0.08810      0.00000     0.41028    0.00163     0.41190
      H   26    0.09495      0.00000     0.40384    0.00121     0.40505
      H   27    0.09278      0.00000     0.40576    0.00146     0.40722
      H   28    0.08123      0.00000     0.41764    0.00114     0.41877
      H   29    0.19342      0.00000     0.30422    0.00236     0.30658
      H   30    0.09276      0.00000     0.40618    0.00106     0.40724
      H   31    0.11471      0.00000     0.38411    0.00117     0.38529
      H   32    0.10062      0.00000     0.39829    0.00109     0.39938
      H   33    0.09959      0.00000     0.39943    0.00099     0.40041
      H   34    0.09473      0.00000     0.40440    0.00087     0.40527
      H   35    0.09607      0.00000     0.40246    0.00148     0.40393
      H   36    0.11675      0.00000     0.38179    0.00146     0.38325
      H   37    0.10098      0.00000     0.39804    0.00098     0.39902
      H   38    0.07843      0.00000     0.41981    0.00176     0.42157
      H   39    0.08064      0.00000     0.41789    0.00147     0.41936
      H   40    0.09124      0.00000     0.40772    0.00105     0.40876
 =======================================================================
   * Total *    0.00000     19.99165    52.77354    0.23480    73.00000

 Normal termination of Gaussian 16 at Mon Dec 14 15:46:22 2020.
