 Gaussian 16, Revision A.03,

 -----------------------------------------------------------
 # opt freq B3LYP/6-31G(d) empiricaldispersion=gd3bj scf=xqc
 -----------------------------------------------------------

 -------------------------------
 CID_106561645_JID_7641_neutraal
 -------------------------------
 Symbolic Z-matrix:
 Charge =  0 Multiplicity = 1

 SCF Done:  E(RB3LYP) =  -712.885068354     A.U. after   14 cycles
 SCF Done:  E(RB3LYP) =  -712.889584756     A.U. after   12 cycles
 SCF Done:  E(RB3LYP) =  -712.890459265     A.U. after   11 cycles
 SCF Done:  E(RB3LYP) =  -712.890883087     A.U. after   11 cycles
 SCF Done:  E(RB3LYP) =  -712.891081242     A.U. after   10 cycles
 SCF Done:  E(RB3LYP) =  -712.891322672     A.U. after   11 cycles
 SCF Done:  E(RB3LYP) =  -712.891489827     A.U. after   11 cycles
 SCF Done:  E(RB3LYP) =  -712.891501460     A.U. after   10 cycles
 SCF Done:  E(RB3LYP) =  -712.891513297     A.U. after    9 cycles
 SCF Done:  E(RB3LYP) =  -712.891515741     A.U. after    9 cycles
 SCF Done:  E(RB3LYP) =  -712.891516327     A.U. after    9 cycles
 SCF Done:  E(RB3LYP) =  -712.891516983     A.U. after    8 cycles
 SCF Done:  E(RB3LYP) =  -712.891517034     A.U. after    7 cycles
 Optimization completed.
    -- Stationary point found.
 Normal termination of Gaussian 16 at Sun Dec 13 12:32:53 2020.

 --------------------------------------------------------------------
 #N Geom=AllCheck Guess=TCheck SCRF=Check GenChk RB3LYP/6-31G(d) Freq
 --------------------------------------------------------------------

 Structure from the checkpoint file:  "JID_7641.chk"
 -------------------------------
 CID_106561645_JID_7641_neutraal
 -------------------------------
 Charge =  0 Multiplicity = 1

 SCF Done:  E(RB3LYP) =  -712.891517034     A.U. after    1 cycles

  Exact polarizability: 190.822   0.568 164.275   6.235  -9.719 126.794
 Approx polarizability: 248.290   4.936 233.085   8.601 -21.559 198.216

                      1                      2                      3
                      A                      A                      A
 Frequencies --     16.0504                25.7545                44.3926
 Red. masses --      3.5503                 3.3727                 2.6232
 Frc consts  --      0.0005                 0.0013                 0.0030
 IR Inten    --      0.0767                 0.3796                 0.3934

                      4                      5                      6
                      A                      A                      A
 Frequencies --     66.2152                74.2357                94.6455
 Red. masses --      3.4543                 3.6617                 4.3855
 Frc consts  --      0.0089                 0.0119                 0.0231
 IR Inten    --      0.6860                 0.0315                 1.7886

                      7                      8                      9
                      A                      A                      A
 Frequencies --    126.6112               174.4926               209.7226
 Red. masses --      3.9674                 2.8882                 2.5100
 Frc consts  --      0.0375                 0.0518                 0.0650
 IR Inten    --      1.7401                 1.6297                 0.1765

                     10                     11                     12
                      A                      A                      A
 Frequencies --    227.4145               234.9977               258.1481
 Red. masses --      1.1531                 2.2334                 2.5289
 Frc consts  --      0.0351                 0.0727                 0.0993
 IR Inten    --      0.2549                 0.5393                 2.2473

                     13                     14                     15
                      A                      A                      A
 Frequencies --    262.9028               293.7159               315.9691
 Red. masses --      1.2356                 2.4089                 2.3768
 Frc consts  --      0.0503                 0.1224                 0.1398
 IR Inten    --      0.9342                 1.7188                 2.9760

                     16                     17                     18
                      A                      A                      A
 Frequencies --    334.0097               347.6943               389.5125
 Red. masses --      2.1139                 2.5383                 2.2363
 Frc consts  --      0.1389                 0.1808                 0.1999
 IR Inten    --      1.8500                 4.0700                 0.4610

                     19                     20                     21
                      A                      A                      A
 Frequencies --    410.0032               426.2144               434.1395
 Red. masses --      2.1935                 2.0900                 2.5516
 Frc consts  --      0.2173                 0.2237                 0.2833
 IR Inten    --      1.2455                 0.1708                 0.6811

                     22                     23                     24
                      A                      A                      A
 Frequencies --    469.8717               478.5824               568.1392
 Red. masses --      2.5397                 2.0468                 2.5131
 Frc consts  --      0.3304                 0.2762                 0.4779
 IR Inten    --      4.2097                 1.0416                60.9662

                     25                     26                     27
                      A                      A                      A
 Frequencies --    592.9503               611.5841               621.4213
 Red. masses --      2.1765                 2.2024                 4.2553
 Frc consts  --      0.4509                 0.4854                 0.9682
 IR Inten    --     15.6989                13.3189                 8.3454

                     28                     29                     30
                      A                      A                      A
 Frequencies --    666.7850               710.3216               731.5911
 Red. masses --      1.2364                 2.9044                 6.7501
 Frc consts  --      0.3239                 0.8634                 2.1286
 IR Inten    --     44.7772                 0.7678                 4.8337

                     31                     32                     33
                      A                      A                      A
 Frequencies --    780.7671               800.7626               814.3971
 Red. masses --      3.2201                 1.4986                 2.8529
 Frc consts  --      1.1566                 0.5662                 1.1148
 IR Inten    --      6.6152                 0.5255                12.4125

                     34                     35                     36
                      A                      A                      A
 Frequencies --    825.1817               830.7784               839.6800
 Red. masses --      1.3591                 2.4163                 1.9884
 Frc consts  --      0.5452                 0.9826                 0.8260
 IR Inten    --      7.5087                 2.7611                 2.2345

                     37                     38                     39
                      A                      A                      A
 Frequencies --    864.2483               881.0337               910.4819
 Red. masses --      1.9073                 2.4071                 1.5897
 Frc consts  --      0.8393                 1.1009                 0.7764
 IR Inten    --      5.0058                 1.3662                 1.2724

                     40                     41                     42
                      A                      A                      A
 Frequencies --    939.2623               944.3387               950.1906
 Red. masses --      3.2166                 1.2195                 1.4632
 Frc consts  --      1.6719                 0.6407                 0.7784
 IR Inten    --      1.6387                 2.9788                 1.8150

                     43                     44                     45
                      A                      A                      A
 Frequencies --    961.7269               967.2270               983.0678
 Red. masses --      1.9007                 2.0466                 1.5087
 Frc consts  --      1.0358                 1.1281                 0.8590
 IR Inten    --      4.3223                 6.3492                 0.7341

                     46                     47                     48
                      A                      A                      A
 Frequencies --    989.4351              1048.0303              1055.2685
 Red. masses --      1.7454                 1.9256                 1.9864
 Frc consts  --      1.0068                 1.2461                 1.3033
 IR Inten    --      3.2049                 1.0629                 1.6432

                     49                     50                     51
                      A                      A                      A
 Frequencies --   1070.3448              1082.4979              1107.1443
 Red. masses --      1.8306                 2.5591                 1.6617
 Frc consts  --      1.2356                 1.7668                 1.2001
 IR Inten    --      0.8068                 2.5167                 0.3746

                     52                     53                     54
                      A                      A                      A
 Frequencies --   1113.5515              1124.9114              1149.0842
 Red. masses --      1.5005                 1.9339                 1.0463
 Frc consts  --      1.0962                 1.4419                 0.8140
 IR Inten    --     15.8403                30.5777                 0.4869

                     55                     56                     57
                      A                      A                      A
 Frequencies --   1156.8098              1166.2125              1179.7612
 Red. masses --      2.1373                 1.7845                 1.9338
 Frc consts  --      1.6852                 1.4300                 1.5858
 IR Inten    --      2.1280                 2.3567                11.1228

                     58                     59                     60
                      A                      A                      A
 Frequencies --   1194.6424              1211.5202              1236.2960
 Red. masses --      2.4117                 1.7823                 2.8722
 Frc consts  --      2.0280                 1.5413                 2.5865
 IR Inten    --     17.7635                 2.9222                 8.4030

                     61                     62                     63
                      A                      A                      A
 Frequencies --   1260.6368              1284.1146              1306.4184
 Red. masses --      1.4634                 1.6725                 1.3121
 Frc consts  --      1.3702                 1.6249                 1.3195
 IR Inten    --      3.1849                 1.9014                 7.8647

                     64                     65                     66
                      A                      A                      A
 Frequencies --   1307.1231              1312.2769              1319.7408
 Red. masses --      1.3089                 1.3341                 1.7573
 Frc consts  --      1.3176                 1.3536                 1.8033
 IR Inten    --     10.2969                10.2941                32.6641

                     67                     68                     69
                      A                      A                      A
 Frequencies --   1342.6250              1343.0796              1369.9721
 Red. masses --      1.3264                 1.3611                 1.3131
 Frc consts  --      1.4087                 1.4466                 1.4520
 IR Inten    --      5.0252                 4.3511                 0.1105

                     70                     71                     72
                      A                      A                      A
 Frequencies --   1379.7966              1382.9795              1399.1487
 Red. masses --      1.8549                 1.4658                 1.4623
 Frc consts  --      2.0807                 1.6518                 1.6866
 IR Inten    --     16.1703                 1.9275                 5.2016

                     73                     74                     75
                      A                      A                      A
 Frequencies --   1400.6820              1407.2249              1407.8700
 Red. masses --      1.4608                 1.4691                 1.4566
 Frc consts  --      1.6886                 1.7141                 1.7011
 IR Inten    --     10.7141                 0.3827                 4.1487

                     76                     77                     78
                      A                      A                      A
 Frequencies --   1415.1583              1419.2207              1429.8392
 Red. masses --      1.7034                 1.4261                 1.3541
 Frc consts  --      2.0099                 1.6924                 1.6310
 IR Inten    --     18.3481                 0.6815                13.1580

                     79                     80                     81
                      A                      A                      A
 Frequencies --   1432.0725              1450.2828              1457.9716
 Red. masses --      1.2863                 1.3649                 1.5819
 Frc consts  --      1.5543                 1.6915                 1.9812
 IR Inten    --      4.5577                21.7297                 6.8355

                     82                     83                     84
                      A                      A                      A
 Frequencies --   1503.1668              1512.8374              1514.6540
 Red. masses --      1.1047                 1.0865                 1.0917
 Frc consts  --      1.4707                 1.4650                 1.4756
 IR Inten    --      5.2939                 2.0388                 3.3550

                     85                     86                     87
                      A                      A                      A
 Frequencies --   1516.1111              1519.6487              1524.2323
 Red. masses --      1.0907                 1.0507                 1.0986
 Frc consts  --      1.4771                 1.4296                 1.5037
 IR Inten    --      0.8565                 1.0590                 2.2407

                     88                     89                     90
                      A                      A                      A
 Frequencies --   1526.1705              1527.0190              1535.0898
 Red. masses --      1.0697                 1.0821                 1.0520
 Frc consts  --      1.4680                 1.4866                 1.4606
 IR Inten    --      2.7507                 9.8138                 4.4039

                     91                     92                     93
                      A                      A                      A
 Frequencies --   1539.9601              1541.6312              1557.8936
 Red. masses --      1.0972                 1.0562                 2.5657
 Frc consts  --      1.5330                 1.4790                 3.6688
 IR Inten    --      4.9776                14.2734                88.1014

                     94                     95                     96
                      A                      A                      A
 Frequencies --   1568.3720              1610.2932              3007.3466
 Red. masses --      2.9418                 6.8782                 1.0825
 Frc consts  --      4.2635                10.5083                 5.7685
 IR Inten    --     63.1150               230.5557                36.0432

                     97                     98                     99
                      A                      A                      A
 Frequencies --   3019.1912              3023.7894              3026.6418
 Red. masses --      1.0699                 1.0638                 1.0629
 Frc consts  --      5.7462                 5.7306                 5.7367
 IR Inten    --     12.7895                27.1946                29.2916

                    100                    101                    102
                      A                      A                      A
 Frequencies --   3029.5936              3033.1051              3040.4713
 Red. masses --      1.0634                 1.0630                 1.0372
 Frc consts  --      5.7509                 5.7617                 5.6494
 IR Inten    --     28.8219                14.9145                19.6764

                    103                    104                    105
                      A                      A                      A
 Frequencies --   3044.1788              3054.0415              3058.3299
 Red. masses --      1.0402                 1.0587                 1.0987
 Frc consts  --      5.6794                 5.8179                 6.0546
 IR Inten    --     23.7451                54.6520                65.4188

                    106                    107                    108
                      A                      A                      A
 Frequencies --   3066.8948              3069.7613              3071.1754
 Red. masses --      1.0981                 1.0941                 1.0984
 Frc consts  --      6.0852                 6.0747                 6.1040
 IR Inten    --     52.1479                48.4757                45.4721

                    109                    110                    111
                      A                      A                      A
 Frequencies --   3074.1042              3080.8027              3088.4332
 Red. masses --      1.0787                 1.0920                 1.0788
 Frc consts  --      6.0060                 6.1064                 6.0629
 IR Inten    --     49.7889                55.6510                57.5866

                    112                    113                    114
                      A                      A                      A
 Frequencies --   3099.4789              3104.8040              3110.0662
 Red. masses --      1.1045                 1.1008                 1.1006
 Frc consts  --      6.2516                 6.2521                 6.2719
 IR Inten    --      0.9195                21.1677                53.3286

                    115                    116                    117
                      A                      A                      A
 Frequencies --   3119.7896              3128.6201              3133.9358
 Red. masses --      1.1015                 1.1042                 1.1015
 Frc consts  --      6.3166                 6.3680                 6.3743
 IR Inten    --     35.0162                17.3439                22.0767

                    118                    119                    120
                      A                      A                      A
 Frequencies --   3258.0606              3290.1566              3568.9035
 Red. masses --      1.0916                 1.1035                 1.0743
 Frc consts  --      6.8269                 7.0381                 8.0617
 IR Inten    --     10.8687                 5.4517                 1.6461

 - Thermochemistry -
 -------------------
 Temperature   298.150 Kelvin.  Pressure   1.00000 Atm.
 Atom     1 has atomic number  6 and mass  12.00000

 Molecular mass:   235.20485 amu.
 Principal axes and moments of inertia in atomic units:
                           1         2         3
     Eigenvalues --  2548.956086683.856448284.05873
           X            0.99982   0.01855   0.00250
           Y           -0.01854   0.99982  -0.00470
           Z           -0.00258   0.00465   0.99999
 This molecule is an asymmetric top.
 Rotational symmetry number  1.
 Warning -- assumption of classical behavior for rotation
           may cause significant error
 Rotational temperatures (Kelvin)      0.03398     0.01296     0.01046
 Rotational constants (GHZ):           0.70803     0.27001     0.21786
 Zero-point vibrational energy    1006799.5 (Joules/Mol)
                                  240.63086 (Kcal/Mol)
 Warning -- explicit consideration of  26 degrees of freedom as
           vibrations may cause significant error
 Vibrational temperatures:     23.09    37.05    63.87    95.27   106.81
          (Kelvin)            136.17   182.17   251.06   301.74   327.20
                              338.11   371.42   378.26   422.59   454.61
                              480.57   500.25   560.42   589.90   613.23
                              624.63   676.04   688.57   817.43   853.12
                              879.93   894.09   959.35  1021.99  1052.60
                             1123.35  1152.12  1171.74  1187.25  1195.30
                             1208.11  1243.46  1267.61  1309.98  1351.39
                             1358.69  1367.11  1383.71  1391.62  1414.42
                             1423.58  1507.88  1518.30  1539.99  1557.47
                             1592.93  1602.15  1618.50  1653.28  1664.39
                             1677.92  1697.41  1718.82  1743.11  1778.75
                             1813.78  1847.55  1879.64  1880.66  1888.07
                             1898.81  1931.74  1932.39  1971.08  1985.22
                             1989.80  2013.06  2015.27  2024.68  2025.61
                             2036.10  2041.94  2057.22  2060.43  2086.63
                             2097.70  2162.72  2176.64  2179.25  2181.35
                             2186.44  2193.03  2195.82  2197.04  2208.65
                             2215.66  2218.06  2241.46  2256.54  2316.85
                             4326.90  4343.94  4350.56  4354.66  4358.91
                             4363.96  4374.56  4379.89  4394.08  4400.25
                             4412.58  4416.70  4418.74  4422.95  4432.59
                             4443.57  4459.46  4467.12  4474.69  4488.68
                             4501.39  4509.03  4687.62  4733.80  5134.86

 Zero-point correction=                           0.383470 (Hartree/Particle)
 Thermal correction to Energy=                    0.400766
 Thermal correction to Enthalpy=                  0.401710
 Thermal correction to Gibbs Free Energy=         0.336643
 Sum of electronic and zero-point Energies=           -712.508047
 Sum of electronic and thermal Energies=              -712.490751
 Sum of electronic and thermal Enthalpies=            -712.489807
 Sum of electronic and thermal Free Energies=         -712.554874

                     E (Thermal)             CV                S
                      KCal/Mol        Cal/Mol-Kelvin    Cal/Mol-Kelvin
 Total                  251.485             67.240            136.945
 Electronic               0.000              0.000              0.000
 Translational            0.889              2.981             42.267
 Rotational               0.889              2.981             33.312
 Vibrational            249.707             61.279             61.366
 Vibration     1          0.593              1.986              7.071
 Vibration     2          0.593              1.985              6.132
 Vibration     3          0.595              1.980              5.053
 Vibration     4          0.598              1.970              4.263
 Vibration     5          0.599              1.966              4.038
 Vibration     6          0.603              1.953              3.562
 Vibration     7          0.611              1.927              2.997
 Vibration     8          0.627              1.874              2.387
 Vibration     9          0.642              1.826              2.046
 Vibration    10          0.651              1.799              1.899
 Vibration    11          0.655              1.787              1.840
 Vibration    12          0.667              1.749              1.674
 Vibration    13          0.670              1.741              1.642
 Vibration    14          0.689              1.685              1.452
 Vibration    15          0.703              1.643              1.331
 Vibration    16          0.716              1.608              1.241
 Vibration    17          0.725              1.580              1.177
 Vibration    18          0.757              1.493              1.002
 Vibration    19          0.774              1.449              0.927
 Vibration    20          0.788              1.413              0.871
 Vibration    21          0.795              1.396              0.845
 Vibration    22          0.827              1.317              0.738
 Vibration    23          0.835              1.298              0.714
 Vibration    24          0.924              1.100              0.508
 Vibration    25          0.951              1.047              0.462
 Vibration    26          0.971              1.007              0.430

 Optimization completed.
    -- Stationary point found.
 Normal termination of Gaussian 16 at Sun Dec 13 12:52:45 2020.

 ----------------------------------------------------------------------
 # B3LYP/6-311++G(d,p) empiricaldispersion=gd3bj scf=xqc pop=npa geom=c
 heck
 ----------------------------------------------------------------------

 ---------------------------------------
 CID_106561645_JID_7641_Energie_neutraal
 ---------------------------------------
 Structure from the checkpoint file:  "JID_7641.chk"
 Charge =  0 Multiplicity = 1

 SCF Done:  E(RB3LYP) =  -713.085978032     A.U. after   14 cycles
 Normal termination of Gaussian 16 at Sun Dec 13 13:01:54 2020.

 ----------------------------------------------------------------------
 # B3LYP/6-311++G(d,p) empiricaldispersion=gd3bj scf=xqc pop=npa geom=c
 heck
 ----------------------------------------------------------------------

 -------------------------------------
 CID_106561645_JID_7641_Energie_kation
 -------------------------------------
 Structure from the checkpoint file:  "JID_7641.chk"
 Charge =  1 Multiplicity = 2

 SCF Done:  E(UB3LYP) =  -712.824556876     A.U. after   19 cycles
 Normal termination of Gaussian 16 at Sun Dec 13 13:20:01 2020.
 Gaussian 16:  ES64L-G16RevA.03 25-Dec-2016

 ----------------------------------------------------------------------
 # B3LYP/6-311++G(d,p) empiricaldispersion=gd3bj scf=xqc pop=npa geom=c
 heck
 ----------------------------------------------------------------------

 ------------------------------------
 CID_106561645_JID_7641_Energie_anion
 ------------------------------------
 Structure from the checkpoint file:  "JID_7641.chk"
 Charge = -1 Multiplicity = 2

                         Standard orientation:
 ---------------------------------------------------------------------
 Center     Atomic      Atomic             Coordinates (Angstroms)
 Number     Number       Type             X           Y           Z
 ---------------------------------------------------------------------
      1          6           0        3.275477    1.348594    1.446173
      2          6           0        2.656571    1.588807    0.066452
      3          6           0        3.232721    2.840368   -0.603995
      4          6           0        2.847688    0.370753   -0.856639
      5          7           0        2.246418   -0.849792   -0.351974
      6          6           0        2.882452   -1.887290    0.333761
      7          6           0        1.904341   -2.801638    0.603246
      8          7           0        0.677486   -2.369249    0.127593
      9          6           0        0.921416   -1.200241   -0.435211
     10          7           0        0.005771   -0.418909   -1.127587
     11          6           0       -1.406282   -0.789872   -1.024166
     12          6           0       -2.036174   -0.616338    0.373601
     13          6           0       -1.890816    0.812269    0.930060
     14          6           0       -2.767310    1.833150    0.190497
     15          6           0       -4.240930    1.403623    0.206376
     16          6           0       -4.418109   -0.008263   -0.369251
     17          6           0       -3.521979   -1.025918    0.354914
     18          1           0        4.361240    1.207753    1.363614
     19          1           0        2.854696    0.457972    1.922444
     20          1           0        3.100038    2.205343    2.105857
     21          1           0        1.574920    1.740519    0.204481
     22          1           0        4.313533    2.734436   -0.761994
     23          1           0        2.768372    3.026251   -1.579732
     24          1           0        3.074264    3.726673    0.019422
     25          1           0        2.421368    0.574965   -1.846303
     26          1           0        3.917501    0.181829   -0.998675
     27          1           0        3.940466   -1.851602    0.543474
     28          1           0        1.998766   -3.748433    1.117089
     29          1           0        0.159660    0.575801   -1.012817
     30          1           0       -1.937799   -0.200088   -1.777467
     31          1           0       -1.483465   -1.840822   -1.315613
     32          1           0       -1.495319   -1.301709    1.034335
     33          1           0       -2.181276    0.801965    1.989785
     34          1           0       -0.837390    1.123095    0.914372
     35          1           0       -2.431495    1.933202   -0.852062
     36          1           0       -2.655074    2.825034    0.646021
     37          1           0       -4.855981    2.123011   -0.348638
     38          1           0       -4.602671    1.415667    1.245189
     39          1           0       -4.180111    0.006707   -1.441747
     40          1           0       -5.467792   -0.318322   -0.294118
     41          1           0       -3.629029   -2.018743   -0.101080
     42          1           0       -3.869541   -1.122869    1.393026
 ---------------------------------------------------------------------

 SCF Done:  E(UB3LYP) =  -713.075231229     A.U. after   32 cycles

 The electronic state is 2-A.
 Alpha  occ. eigenvalues --  -14.26773 -14.23365 -14.18906 -10.15992 -10.12118
 Alpha  occ. eigenvalues --  -10.10347 -10.09840 -10.08900 -10.08841 -10.07541
 Alpha  occ. eigenvalues --  -10.07520 -10.07311 -10.07232 -10.06882 -10.06787
 Alpha  occ. eigenvalues --  -10.06561 -10.06351  -0.92973  -0.83162  -0.79278
 Alpha  occ. eigenvalues --   -0.74116  -0.71149  -0.66783  -0.65002  -0.63960
 Alpha  occ. eigenvalues --   -0.60909  -0.59348  -0.57777  -0.51840  -0.51197
 Alpha  occ. eigenvalues --   -0.50793  -0.49189  -0.47428  -0.44546  -0.43925
 Alpha  occ. eigenvalues --   -0.39942  -0.39330  -0.38124  -0.37203  -0.35874
 Alpha  occ. eigenvalues --   -0.35339  -0.34862  -0.34386  -0.32963  -0.32324
 Alpha  occ. eigenvalues --   -0.32171  -0.31181  -0.30775  -0.29418  -0.28853
 Alpha  occ. eigenvalues --   -0.28466  -0.28053  -0.26736  -0.26722  -0.25658
 Alpha  occ. eigenvalues --   -0.24946  -0.24787  -0.24266  -0.22992  -0.20979
 Alpha  occ. eigenvalues --   -0.20707  -0.19410  -0.17874  -0.17185  -0.10533
 Alpha  occ. eigenvalues --    0.04076
 Alpha virt. eigenvalues --    0.05843   0.06732   0.07181   0.07819   0.08061
 Alpha virt. eigenvalues --    0.08277   0.09063   0.09666   0.09812   0.10064
 Alpha virt. eigenvalues --    0.10583   0.10841   0.11148   0.11388   0.12052

  Beta  occ. eigenvalues --  -14.26772 -14.23350 -14.18904 -10.15990 -10.12097
  Beta  occ. eigenvalues --  -10.10339 -10.09833 -10.08883 -10.08840 -10.07536
  Beta  occ. eigenvalues --  -10.07512 -10.07311 -10.07219 -10.06869 -10.06761
  Beta  occ. eigenvalues --  -10.06534 -10.06301  -0.92966  -0.83141  -0.79267
  Beta  occ. eigenvalues --   -0.74096  -0.71114  -0.66763  -0.64974  -0.63941
  Beta  occ. eigenvalues --   -0.60871  -0.59271  -0.57750  -0.51801  -0.51177
  Beta  occ. eigenvalues --   -0.50762  -0.49113  -0.47397  -0.44513  -0.43883
  Beta  occ. eigenvalues --   -0.39909  -0.39291  -0.38089  -0.37174  -0.35846
  Beta  occ. eigenvalues --   -0.35316  -0.34842  -0.34364  -0.32940  -0.32295
  Beta  occ. eigenvalues --   -0.32146  -0.31150  -0.30746  -0.29377  -0.28824
  Beta  occ. eigenvalues --   -0.28429  -0.28031  -0.26715  -0.26705  -0.25618
  Beta  occ. eigenvalues --   -0.24920  -0.24737  -0.24205  -0.22962  -0.20955
  Beta  occ. eigenvalues --   -0.20683  -0.19395  -0.17865  -0.17176  -0.10520
  Beta virt. eigenvalues --    0.06069   0.06551   0.07291   0.07602   0.08167
  Beta virt. eigenvalues --    0.08301   0.08644   0.09298   0.10005   0.10164
  Beta virt. eigenvalues --    0.10420   0.10675   0.10921   0.11551   0.11648

 Mulliken charges and spin densities:
               1          2
     1  C    0.338077  -0.988824
     2  C   -1.528238   2.310477
     3  C    1.076804  -1.715088
     4  C    0.712813  -1.539845
     5  N    0.086475   0.116849
     6  C   -0.095055   0.012266
     7  C   -0.009130  -0.081031
     8  N   -0.109170   0.011528
     9  C   -0.545274  -0.073712
    10  N   -0.103262   0.130148
    11  C    0.240310  -0.974241
    12  C    0.297292   0.388491
    13  C   -0.528592  -0.013000
    14  C    0.603202  -0.720893
    15  C   -0.214151  -0.356577
    16  C    0.122580  -0.388605
    17  C   -0.479131  -0.044595
    18  H   -0.064192   0.214536
    19  H    0.178145  -0.022689
    20  H   -0.293582   0.448559
    21  H    0.593744  -0.510637
    22  H   -0.242716   0.371127
    23  H   -0.482628   0.627474
    24  H   -0.422224   0.582813
    25  H   -0.034931   0.250904
    26  H   -0.016811   0.196087
    27  H   -0.106221   0.257666
    28  H    0.119851   0.022859
    29  H    0.160710   0.105470
    30  H   -0.011016   0.215402
    31  H    0.224441  -0.020416
    32  H    0.262975   0.002118
    33  H   -0.117927   0.268602
    34  H   -0.130682   0.253153
    35  H   -0.256034   0.401096
    36  H   -0.358400   0.540090
    37  H   -0.221732   0.395088
    38  H    0.158585  -0.038208
    39  H    0.097515   0.020774
    40  H   -0.062750   0.228196
    41  H    0.125695   0.011781
    42  H    0.034633   0.104807
 Sum of Mulliken charges =  -1.00000   1.00000

 Dipole moment (field-independent basis, Debye):
    X=             -1.9849    Y=             -6.6830    Z=              1.1916  Tot=              7.0726
 Quadrupole moment (field-independent basis, Debye-Ang):
   XX=           -184.2033   YY=           -172.9100   ZZ=           -143.2576
   XY=             -7.2307   XZ=              0.2185   YZ=              1.2696

 Summary of Natural Population Analysis:

                                       Natural Population
                Natural  -----------------------------------------------
    Atom  No    Charge         Core      Valence    Rydberg      Total
 -----------------------------------------------------------------------
      C    1   -0.28650      0.99964     2.28087    0.00598     3.28650
      C    2   -0.11963      0.99961     2.11083    0.00919     3.11963
      C    3   -0.28481      0.99965     2.27902    0.00614     3.28481
      C    4   -0.08309      0.99959     2.07212    0.01138     3.08309
      N    5   -0.22011      0.99962     2.71078    0.00971     3.72011
      C    6   -0.04743      0.99955     2.03633    0.01154     3.04743
      C    7   -0.03504      0.99958     2.02234    0.01312     3.03504
      N    8   -0.28877      0.99969     2.78058    0.00850     3.78877
      C    9    0.28949      0.99959     1.69400    0.01692     2.71051
      N   10   -0.32341      0.99968     2.81415    0.00958     3.82341
      C   11   -0.08738      0.99959     2.07504    0.01275     3.08738
      C   12   -0.12323      0.99958     2.11496    0.00869     3.12323
      C   13   -0.19117      0.99961     2.18227    0.00929     3.19117
      C   14   -0.19324      0.99963     2.18406    0.00955     3.19324
      C   15   -0.18910      0.99963     2.18118    0.00828     3.18910
      C   16   -0.19232      0.99963     2.18441    0.00828     3.19232
      C   17   -0.18671      0.99962     2.17973    0.00736     3.18671
      H   18    0.09568      0.00000     0.40327    0.00105     0.40432
      H   19    0.10307      0.00000     0.39561    0.00132     0.39693
      H   20    0.10350      0.00000     0.39561    0.00089     0.39650
      H   21    0.09179      0.00000     0.40499    0.00322     0.40821
      H   22    0.09690      0.00000     0.40159    0.00151     0.40310
      H   23    0.10287      0.00000     0.39523    0.00190     0.39713
      H   24    0.10515      0.00000     0.39328    0.00158     0.39485
      H   25    0.10576      0.00000     0.39273    0.00151     0.39424
      H   26    0.10076      0.00000     0.39786    0.00138     0.39924
      H   27    0.10287      0.00000     0.39620    0.00093     0.39713
      H   28    0.09403      0.00000     0.40517    0.00080     0.40597
      H   29    0.18965      0.00000     0.30679    0.00356     0.31035
      H   30    0.09539      0.00000     0.40348    0.00112     0.40461
      H   31    0.10371      0.00000     0.39494    0.00135     0.39629
      H   32    0.11041      0.00000     0.38774    0.00186     0.38959
      H   33    0.09612      0.00000     0.40277    0.00111     0.40388
      H   34    0.09819      0.00000     0.39983    0.00199     0.40181
      H   35    0.09341      0.00000     0.40485    0.00174     0.40659
      H   36    0.10186      0.00000     0.39691    0.00124     0.39814
      H   37    0.09879      0.00000     0.40020    0.00101     0.40121
      H   38    0.09031      0.00000     0.40854    0.00115     0.40969
      H   39    0.09296      0.00000     0.40583    0.00121     0.40704
      H   40    0.09647      0.00000     0.40269    0.00085     0.40353
      H   41    0.09763      0.00000     0.40146    0.00091     0.40237
      H   42    0.09518      0.00000     0.40377    0.00105     0.40482
 =======================================================================
   * Total *    0.00000     16.99350    47.80399    0.20251    65.00000

 Normal termination of Gaussian 16 at Sun Dec 13 13:49:18 2020.
