 Gaussian 16, Revision A.03,

 -----------------------------------------------------------
 # opt freq B3LYP/6-31G(d) empiricaldispersion=gd3bj scf=xqc
 -----------------------------------------------------------

 ---------------------------
 CID_239799_JID_853_neutraal
 ---------------------------
 Symbolic Z-matrix:
 Charge =  0 Multiplicity = 1

 SCF Done:  E(RB3LYP) =  -497.272611668     A.U. after   14 cycles
 SCF Done:  E(RB3LYP) =  -497.281371338     A.U. after   13 cycles
 SCF Done:  E(RB3LYP) =  -497.282074490     A.U. after   11 cycles
 SCF Done:  E(RB3LYP) =  -497.282055947     A.U. after   12 cycles
 SCF Done:  E(RB3LYP) =  -497.282159996     A.U. after   11 cycles
 SCF Done:  E(RB3LYP) =  -497.282189216     A.U. after    9 cycles
 SCF Done:  E(RB3LYP) =  -497.282194268     A.U. after    9 cycles
 SCF Done:  E(RB3LYP) =  -497.282197682     A.U. after    9 cycles
 Optimization completed.
    -- Stationary point found.
 Normal termination of Gaussian 16 at Tue Dec  8 12:32:50 2020.

 --------------------------------------------------------------------
 #N Geom=AllCheck Guess=TCheck SCRF=Check GenChk RB3LYP/6-31G(d) Freq
 --------------------------------------------------------------------

 Structure from the checkpoint file:  "JID_853.chk"
 ---------------------------
 CID_239799_JID_853_neutraal
 ---------------------------
 Charge =  0 Multiplicity = 1

 SCF Done:  E(RB3LYP) =  -497.282197682     A.U. after    1 cycles

  Exact polarizability:  84.684  -0.004  72.487   0.002   0.700  59.691
 Approx polarizability: 132.953  -0.012 105.466   0.011   3.246  86.916

                      1                      2                      3
                      A                      A                      A
 Frequencies --     66.6260               121.0606               198.1891
 Red. masses --      3.4681                14.8646                 2.1101
 Frc consts  --      0.0091                 0.1284                 0.0488
 IR Inten    --      0.0233                 2.1199                 0.3600

                      4                      5                      6
                      A                      A                      A
 Frequencies --    245.2493               366.4161               391.3826
 Red. masses --      4.0622                 2.6296                 6.6656
 Frc consts  --      0.1440                 0.2080                 0.6016
 IR Inten    --      4.4490                 2.9324                 9.6323

                      7                      8                      9
                      A                      A                      A
 Frequencies --    416.9471               537.6232               546.9011
 Red. masses --      6.5301                 6.2137                 4.6395
 Frc consts  --      0.6689                 1.0582                 0.8176
 IR Inten    --      1.0912                 0.3213                28.6966

                     10                     11                     12
                      A                      A                      A
 Frequencies --    677.9049               679.4349               745.1644
 Red. masses --      7.0268                 4.2558                 3.4020
 Frc consts  --      1.9026                 1.1575                 1.1130
 IR Inten    --      3.4934                 1.1810                 9.8512

                     13                     14                     15
                      A                      A                      A
 Frequencies --    807.8405               818.3825               867.8636
 Red. masses --      5.5627                 1.6763                 3.7212
 Frc consts  --      2.1389                 0.6615                 1.6513
 IR Inten    --      0.8939                 1.4730                 1.9505

                     16                     17                     18
                      A                      A                      A
 Frequencies --    880.1596               903.4135               952.4528
 Red. masses --      3.1692                 2.5644                 2.7919
 Frc consts  --      1.4465                 1.2331                 1.4923
 IR Inten    --      2.3066                 0.7188                 4.6040

                     19                     20                     21
                      A                      A                      A
 Frequencies --    956.8590               989.9173              1006.0293
 Red. masses --      2.4173                 2.1639                 2.5280
 Frc consts  --      1.3040                 1.2494                 1.5075
 IR Inten    --      5.4732                67.1778                14.9316

                     22                     23                     24
                      A                      A                      A
 Frequencies --   1027.7403              1068.9428              1103.2690
 Red. masses --      2.3860                 2.0918                 1.6204
 Frc consts  --      1.4849                 1.4083                 1.1621
 IR Inten    --    266.0880                 3.0921                68.7215

                     25                     26                     27
                      A                      A                      A
 Frequencies --   1161.1933              1205.9434              1227.0237
 Red. masses --      1.3677                 1.6488                 1.5267
 Frc consts  --      1.0866                 1.4128                 1.3543
 IR Inten    --     54.8638                15.8039                44.1081

                     28                     29                     30
                      A                      A                      A
 Frequencies --   1240.3631              1271.1380              1291.0354
 Red. masses --      1.4457                 1.1821                 2.5823
 Frc consts  --      1.3105                 1.1253                 2.5359
 IR Inten    --      2.9677                13.9067                77.3794

                     31                     32                     33
                      A                      A                      A
 Frequencies --   1323.7356              1350.9286              1357.8969
 Red. masses --      1.3219                 1.5959                 1.4500
 Frc consts  --      1.3648                 1.7160                 1.5753
 IR Inten    --      0.0378                 0.0133                 2.6182

                     34                     35                     36
                      A                      A                      A
 Frequencies --   1363.9853              1371.3423              1521.7110
 Red. masses --      1.7695                 1.4980                 1.0745
 Frc consts  --      1.9396                 1.6598                 1.4659
 IR Inten    --      2.8701                23.8057                 3.0900

                     37                     38                     39
                      A                      A                      A
 Frequencies --   1526.1063              1546.9863              1861.7038
 Red. masses --      1.0917                 1.0965                12.6325
 Frc consts  --      1.4980                 1.5461                25.7965
 IR Inten    --      6.3942                 3.6584               451.6586

                     40                     41                     42
                      A                      A                      A
 Frequencies --   1904.8193              3075.4055              3080.3336
 Red. masses --     12.3392                 1.0598                 1.0614
 Frc consts  --     26.3781                 5.9059                 5.9337
 IR Inten    --    180.6666                21.6209                15.1162

                     43                     44                     45
                      A                      A                      A
 Frequencies --   3089.2228              3118.1073              3121.2029
 Red. masses --      1.0619                 1.1063                 1.1074
 Frc consts  --      5.9705                 6.3375                 6.3563
 IR Inten    --     26.1324                 1.1396                14.6162

                     46                     47                     48
                      A                      A                      A
 Frequencies --   3136.4120              3142.8292              3144.8081
 Red. masses --      1.1051                 1.0868                 1.0902
 Frc consts  --      6.4049                 6.3245                 6.3522
 IR Inten    --     18.3227                16.8686                 7.3356

 - Thermochemistry -
 -------------------
 Temperature   298.150 Kelvin.  Pressure   1.00000 Atm.
 Atom     1 has atomic number  6 and mass  12.00000

 Molecular mass:   140.04734 amu.
 Principal axes and moments of inertia in atomic units:
                           1         2         3
     Eigenvalues --   963.297971137.651271663.99835
           X            1.00000   0.00007  -0.00000
           Y           -0.00007   0.99991  -0.01373
           Z            0.00000   0.01373   0.99991
 This molecule is an asymmetric top.
 Rotational symmetry number  1.
 Warning -- assumption of classical behavior for rotation
           may cause significant error
 Rotational temperatures (Kelvin)      0.08991     0.07613     0.05205
 Rotational constants (GHZ):           1.87350     1.58637     1.08458
 Zero-point vibrational energy     381668.6 (Joules/Mol)
                                   91.22098 (Kcal/Mol)
 Warning -- explicit consideration of   9 degrees of freedom as
           vibrations may cause significant error
 Vibrational temperatures:     95.86   174.18   285.15   352.86   527.19
          (Kelvin)            563.11   599.89   773.52   786.87   975.35
                              977.56  1072.13  1162.30  1177.47  1248.66
                             1266.35  1299.81  1370.37  1376.71  1424.27
                             1447.45  1478.69  1537.97  1587.36  1670.70
                             1735.08  1765.41  1784.61  1828.88  1857.51
                             1904.56  1943.68  1953.71  1962.47  1973.06
                             2189.40  2195.73  2225.77  2678.58  2740.61
                             4424.82  4431.91  4444.70  4486.26  4490.71
                             4512.60  4521.83  4524.68

 Zero-point correction=                           0.145370 (Hartree/Particle)
 Thermal correction to Energy=                    0.153157
 Thermal correction to Enthalpy=                  0.154101
 Thermal correction to Gibbs Free Energy=         0.112370
 Sum of electronic and zero-point Energies=           -497.136828
 Sum of electronic and thermal Energies=              -497.129041
 Sum of electronic and thermal Enthalpies=            -497.128097
 Sum of electronic and thermal Free Energies=         -497.169828

                     E (Thermal)             CV                S
                      KCal/Mol        Cal/Mol-Kelvin    Cal/Mol-Kelvin
 Total                   96.107             30.093             87.831
 Electronic               0.000              0.000              0.000
 Translational            0.889              2.981             40.722
 Rotational               0.889              2.981             28.991
 Vibrational             94.330             24.131             18.118
 Vibration     1          0.598              1.970              4.251
 Vibration     2          0.609              1.932              3.083
 Vibration     3          0.637              1.842              2.150
 Vibration     4          0.660              1.771              1.764
 Vibration     5          0.739              1.541              1.095
 Vibration     6          0.759              1.489              0.995
 Vibration     7          0.780              1.433              0.902
 Vibration     8          0.893              1.167              0.570
 Vibration     9          0.902              1.146              0.551

                           ! Non-Optimized Parameters !
 Normal termination of Gaussian 16 at Tue Dec  8 12:42:16 2020.

 ----------------------------------------------------------------------
 # B3LYP/6-311++G(d,p) empiricaldispersion=gd3bj scf=xqc pop=npa geom=c
 heck
 ----------------------------------------------------------------------

 -----------------------------------
 CID_239799_JID_853_Energie_neutraal
 -----------------------------------
 Structure from the checkpoint file:  "JID_853.chk"
 Charge =  0 Multiplicity = 1

 SCF Done:  E(RB3LYP) =  -497.424953577     A.U. after   13 cycles
 Normal termination of Gaussian 16 at Tue Dec  8 12:43:43 2020.

 ----------------------------------------------------------------------
 # B3LYP/6-311++G(d,p) empiricaldispersion=gd3bj scf=xqc pop=npa geom=c
 heck
 ----------------------------------------------------------------------

 ---------------------------------
 CID_239799_JID_853_Energie_kation
 ---------------------------------
 Structure from the checkpoint file:  "JID_853.chk"
 Charge =  1 Multiplicity = 2

 SCF Done:  E(UB3LYP) =  -497.057406363     A.U. after   17 cycles
 Normal termination of Gaussian 16 at Tue Dec  8 12:49:37 2020.
 Gaussian 16:  ES64L-G16RevA.03 25-Dec-2016

 ----------------------------------------------------------------------
 # B3LYP/6-311++G(d,p) empiricaldispersion=gd3bj scf=xqc pop=npa geom=c
 heck
 ----------------------------------------------------------------------

 --------------------------------
 CID_239799_JID_853_Energie_anion
 --------------------------------
 Structure from the checkpoint file:  "JID_853.chk"
 Charge = -1 Multiplicity = 2

                         Standard orientation:
 ---------------------------------------------------------------------
 Center     Atomic      Atomic             Coordinates (Angstroms)
 Number     Number       Type             X           Y           Z
 ---------------------------------------------------------------------
      1          6           0        0.777477    1.544964   -0.808041
      2          6           0       -0.776248    1.545129   -0.808359
      3          6           0       -1.174954    0.674783    0.418845
      4          6           0        0.000230    0.881743    1.385694
      5          6           0        1.175376    0.674023    0.418948
      6          6           0        1.227967   -0.779942    0.003875
      7          8           0        2.225510   -1.419732   -0.182314
      8          8           0       -0.000489   -1.405666   -0.202101
      9          6           0       -1.228550   -0.779357    0.004571
     10          8           0       -2.226497   -1.418241   -0.182533
     11          1           0        1.170946    2.555977   -0.667621
     12          1           0        1.203925    1.159187   -1.738004
     13          1           0       -1.169518    2.556305   -0.668580
     14          1           0       -1.202377    1.159077   -1.738357
     15          1           0       -2.155694    0.931704    0.820996
     16          1           0       -0.000059    0.186002    2.231059
     17          1           0        0.000528    1.902716    1.781602
     18          1           0        2.156266    0.930086    0.821287
 ---------------------------------------------------------------------

 SCF Done:  E(UB3LYP) =  -497.418381459     A.U. after   32 cycles

 The electronic state is 2-A.
 Alpha  occ. eigenvalues --  -19.08898 -19.03031 -19.03026 -10.21912 -10.21904
 Alpha  occ. eigenvalues --  -10.09836 -10.09831 -10.08338 -10.08040 -10.08021
 Alpha  occ. eigenvalues --   -1.03491  -0.97704  -0.93084  -0.77018  -0.66188
 Alpha  occ. eigenvalues --   -0.63180  -0.57442  -0.54375  -0.49549  -0.42830
 Alpha  occ. eigenvalues --   -0.41767  -0.39768  -0.39133  -0.37613  -0.35481
 Alpha  occ. eigenvalues --   -0.34136  -0.31951  -0.30993  -0.27793  -0.26743
 Alpha  occ. eigenvalues --   -0.26279  -0.25403  -0.25057  -0.24774  -0.23063
 Alpha  occ. eigenvalues --   -0.20096  -0.18005   0.04424
 Alpha virt. eigenvalues --    0.06243   0.08162   0.08362   0.08848   0.10108
 Alpha virt. eigenvalues --    0.10992   0.10999   0.11669   0.12612   0.12887
 Alpha virt. eigenvalues --    0.15615   0.16041   0.17146   0.17986   0.18103

  Beta  occ. eigenvalues --  -19.08885 -19.03028 -19.03023 -10.21911 -10.21903
  Beta  occ. eigenvalues --  -10.09821 -10.09816 -10.08287 -10.08001 -10.07981
  Beta  occ. eigenvalues --   -1.03472  -0.97700  -0.93071  -0.76962  -0.66141
  Beta  occ. eigenvalues --   -0.63097  -0.57419  -0.54297  -0.49458  -0.42776
  Beta  occ. eigenvalues --   -0.41669  -0.39741  -0.39092  -0.37589  -0.35463
  Beta  occ. eigenvalues --   -0.34075  -0.31930  -0.30930  -0.27755  -0.26679
  Beta  occ. eigenvalues --   -0.26224  -0.25341  -0.25005  -0.24721  -0.23045
  Beta  occ. eigenvalues --   -0.20065  -0.17985
  Beta virt. eigenvalues --    0.06315   0.07516   0.08972   0.09387   0.09463
  Beta virt. eigenvalues --    0.10744   0.11535   0.11720   0.12688   0.13232
  Beta virt. eigenvalues --    0.13262   0.15873   0.16224   0.17378   0.18029

 Mulliken charges and spin densities:
               1          2
     1  C    1.188998  -1.622419
     2  C    1.187677  -1.621019
     3  C   -1.397094   1.721257
     4  C    1.937523  -2.540204
     5  C   -1.397057   1.721639
     6  C    0.679500  -0.798381
     7  O   -0.268344   0.010085
     8  O   -0.109401  -0.013356
     9  C    0.681542  -0.799930
    10  O   -0.268470   0.010262
    11  H   -0.529738   0.727595
    12  H   -0.047353   0.216136
    13  H   -0.534119   0.732161
    14  H   -0.045719   0.214569
    15  H   -0.517284   0.803083
    16  H   -0.218656   0.397868
    17  H   -0.827038   1.040027
    18  H   -0.514967   0.800627
 Sum of Mulliken charges =  -1.00000   1.00000

 Dipole moment (field-independent basis, Debye):
    X=              0.0146    Y=             -5.4433    Z=             -2.1057  Tot=              5.8364
 Quadrupole moment (field-independent basis, Debye-Ang):
   XX=           -100.3866   YY=           -116.5498   ZZ=            -87.1260
   XY=              0.0413   XZ=              0.0121   YZ=             -7.3229

 Summary of Natural Population Analysis:

                                       Natural Population
                Natural  -----------------------------------------------
    Atom  No    Charge         Core      Valence    Rydberg      Total
 -----------------------------------------------------------------------
      C    1   -0.18865      0.99962     2.17965    0.00938     3.18865
      C    2   -0.18868      0.99962     2.17968    0.00938     3.18868
      C    3   -0.16199      0.99955     2.14942    0.01302     3.16199
      C    4   -0.18878      0.99962     2.17823    0.01093     3.18878
      C    5   -0.16197      0.99955     2.14942    0.01301     3.16197
      C    6    0.41726      0.99962     1.55667    0.02645     2.58274
      O    7   -0.27961      0.99986     3.27334    0.00640     4.27961
      O    8   -0.28792      0.99984     3.27998    0.00811     4.28792
      C    9    0.41731      0.99962     1.55662    0.02645     2.58269
      O   10   -0.27958      0.99986     3.27331    0.00640     4.27958
      H   11    0.11506      0.00000     0.38012    0.00482     0.38494
      H   12    0.10215      0.00000     0.39652    0.00133     0.39785
      H   13    0.11514      0.00000     0.37997    0.00489     0.38486
      H   14    0.10216      0.00000     0.39651    0.00133     0.39784
      H   15    0.12262      0.00000     0.37552    0.00187     0.37738
      H   16    0.10454      0.00000     0.39331    0.00215     0.39546
      H   17    0.11836      0.00000     0.37299    0.00865     0.38164
      H   18    0.12257      0.00000     0.37558    0.00185     0.37743
 =======================================================================
   * Total *    0.00000      9.99676    26.84683    0.15641    37.00000

 Normal termination of Gaussian 16 at Tue Dec  8 13:04:47 2020.
