 Gaussian 16, Revision A.03,

 -----------------------------------------------------------
 # opt freq B3LYP/6-31G(d) empiricaldispersion=gd3bj scf=xqc
 -----------------------------------------------------------

 ------------------------------
 CID_148547950_JID_210_neutraal
 ------------------------------
 Symbolic Z-matrix:
 Charge =  0 Multiplicity = 1

 SCF Done:  E(RB3LYP) =  -616.918563991     A.U. after   17 cycles
 SCF Done:  E(RB3LYP) =  -616.927380522     A.U. after   15 cycles
 SCF Done:  E(RB3LYP) =  -616.929714943     A.U. after   14 cycles
 SCF Done:  E(RB3LYP) =  -616.930005364     A.U. after   12 cycles
 SCF Done:  E(RB3LYP) =  -616.930076042     A.U. after   11 cycles
 SCF Done:  E(RB3LYP) =  -616.929890870     A.U. after   13 cycles
 SCF Done:  E(RB3LYP) =  -616.930077906     A.U. after   12 cycles
 SCF Done:  E(RB3LYP) =  -616.930102671     A.U. after   12 cycles
 SCF Done:  E(RB3LYP) =  -616.930109593     A.U. after   10 cycles
 SCF Done:  E(RB3LYP) =  -616.930110193     A.U. after    9 cycles
 SCF Done:  E(RB3LYP) =  -616.930110340     A.U. after    8 cycles
 Optimization completed.
    -- Stationary point found.
 Normal termination of Gaussian 16 at Sun Dec 13 12:14:41 2020.

 --------------------------------------------------------------------
 #N Geom=AllCheck Guess=TCheck SCRF=Check GenChk RB3LYP/6-31G(d) Freq
 --------------------------------------------------------------------

 Structure from the checkpoint file:  "JID_210.chk"
 ------------------------------
 CID_148547950_JID_210_neutraal
 ------------------------------
 Charge =  0 Multiplicity = 1

 SCF Done:  E(RB3LYP) =  -616.930110340     A.U. after    1 cycles

  Exact polarizability:  73.199  -1.428  78.043   0.000  -0.003  24.299
 Approx polarizability: 103.921 -13.300 164.256  -0.001  -0.011  35.894

 ******    1 imaginary frequencies (negative Signs) ******

                      1                      2                      3
                      A                      A                      A
 Frequencies --    -44.7720                13.0045                47.5263
 Red. masses --      2.9270                 1.7609                 6.1264
 Frc consts  --      0.0035                 0.0002                 0.0082
 IR Inten    --     44.1065                95.0760                 9.4427

                      4                      5                      6
                      A                      A                      A
 Frequencies --    105.9473               146.8222               150.0324
 Red. masses --     14.2235                10.4205                13.3356
 Frc consts  --      0.0941                 0.1323                 0.1769
 IR Inten    --      3.3725                 2.9990                 2.2992

                      7                      8                      9
                      A                      A                      A
 Frequencies --    197.6685               307.9418               353.4517
 Red. masses --     12.0307                11.1339                12.3625
 Frc consts  --      0.2770                 0.6221                 0.9099
 IR Inten    --      0.6567                20.1781                 5.0984

                     10                     11                     12
                      A                      A                      A
 Frequencies --    409.4628               487.0635               487.2283
 Red. masses --     14.6119                12.9785                12.5121
 Frc consts  --      1.4434                 1.8140                 1.7500
 IR Inten    --      3.7011                22.9572                 7.1715

                     13                     14                     15
                      A                      A                      A
 Frequencies --    568.9028               698.9538               725.6122
 Red. masses --     13.5820                12.4970                14.3221
 Frc consts  --      2.5899                 3.5971                 4.4429
 IR Inten    --      1.7183                21.9753                11.9914

                     16                     17                     18
                      A                      A                      A
 Frequencies --    776.7487               832.8478               893.5724
 Red. masses --     12.8524                13.9624                 9.6334
 Frc consts  --      4.5687                 5.7061                 4.5320
 IR Inten    --     84.4097               186.8445                19.7190

                     19                     20                     21
                      A                      A                      A
 Frequencies --   1025.8411              1177.9334              1278.4892
 Red. masses --     14.2198                11.2808                13.2897
 Frc consts  --      8.8167                 9.2221                12.7985
 IR Inten    --    129.1402               482.3948               145.5794

                     22                     23                     24
                      A                      A                      A
 Frequencies --   1348.4319              1478.4326              1779.5643
 Red. masses --     15.0067                 1.1744                14.4898
 Frc consts  --     16.0766                 1.5124                27.0359
 IR Inten    --    139.8501               101.7645               168.2717

                     25                     26                     27
                      A                      A                      A
 Frequencies --   1929.2517              2358.4644              3699.5209
 Red. masses --     12.7640                12.6660                 1.0680
 Frc consts  --     27.9907                41.5095                 8.6120
 IR Inten    --    396.0937                37.3640                80.0728

 - Thermochemistry -
 -------------------
 Temperature   298.150 Kelvin.  Pressure   1.00000 Atm.
 Atom     1 has atomic number  6 and mass  12.00000

 Molecular mass:   146.99162 amu.
 Principal axes and moments of inertia in atomic units:
                           1         2         3
     Eigenvalues --   843.661791608.843952452.50571
           X            0.99993   0.01210   0.00000
           Y           -0.01210   0.99993   0.00000
           Z           -0.00000  -0.00000   1.00000
 This molecule is an asymmetric top.
 Rotational symmetry number  1.
 Warning -- assumption of classical behavior for rotation
           may cause significant error
 Rotational temperatures (Kelvin)      0.10266     0.05384     0.03532
 Rotational constants (GHZ):           2.13918     1.12176     0.73588
    1 imaginary frequencies ignored.
 Zero-point vibrational energy     139237.6 (Joules/Mol)
                                   33.27860 (Kcal/Mol)
 Warning -- explicit consideration of  12 degrees of freedom as
           vibrations may cause significant error
 Vibrational temperatures:     18.71    68.38   152.43   211.24   215.86
          (Kelvin)            284.40   443.06   508.54   589.13   700.78
                              701.01   818.52  1005.64  1043.99  1117.57
                             1198.28  1285.65  1475.96  1694.78  1839.46
                             1940.09  2127.13  2560.40  2775.76  3393.30
                             5322.79

 Zero-point correction=                           0.053033 (Hartree/Particle)
 Thermal correction to Energy=                    0.062421
 Thermal correction to Enthalpy=                  0.063365
 Thermal correction to Gibbs Free Energy=         0.015651
 Sum of electronic and zero-point Energies=           -616.877078
 Sum of electronic and thermal Energies=              -616.867690
 Sum of electronic and thermal Enthalpies=            -616.866746
 Sum of electronic and thermal Free Energies=         -616.914459

                     E (Thermal)             CV                S
                      KCal/Mol        Cal/Mol-Kelvin    Cal/Mol-Kelvin
 Total                   39.169             30.245            100.421
 Electronic               0.000              0.000              0.000
 Translational            0.889              2.981             40.866
 Rotational               0.889              2.981             29.589
 Vibrational             37.392             24.284             29.967
 Vibration     1          0.593              1.987              7.489
 Vibration     2          0.595              1.979              4.918
 Vibration     3          0.605              1.944              3.342
 Vibration     4          0.617              1.906              2.713
 Vibration     5          0.618              1.903              2.672
 Vibration     6          0.637              1.843              2.155
 Vibration     7          0.698              1.659              1.373
 Vibration     8          0.730              1.568              1.151
 Vibration     9          0.774              1.450              0.929
 Vibration    10          0.843              1.279              0.691
 Vibration    11          0.843              1.278              0.691
 Vibration    12          0.925              1.099              0.506

 Optimization completed.
    -- Stationary point found.
 Normal termination of Gaussian 16 at Sun Dec 13 12:16:01 2020.

 ----------------------------------------------------------------------
 # B3LYP/6-311++G(d,p) empiricaldispersion=gd3bj scf=xqc pop=npa geom=c
 heck
 ----------------------------------------------------------------------

 --------------------------------------
 CID_148547950_JID_210_Energie_neutraal
 --------------------------------------
 Structure from the checkpoint file:  "JID_210.chk"
 Charge =  0 Multiplicity = 1

 SCF Done:  E(RB3LYP) =  -617.124351926     A.U. after   15 cycles
 Normal termination of Gaussian 16 at Sun Dec 13 12:16:22 2020.

 ----------------------------------------------------------------------
 # B3LYP/6-311++G(d,p) empiricaldispersion=gd3bj scf=xqc pop=npa geom=c
 heck
 ----------------------------------------------------------------------

 ------------------------------------
 CID_148547950_JID_210_Energie_kation
 ------------------------------------
 Structure from the checkpoint file:  "JID_210.chk"
 Charge =  1 Multiplicity = 2

 SCF Done:  E(UB3LYP) =  -616.710331135     A.U. after   25 cycles
 Normal termination of Gaussian 16 at Sun Dec 13 12:17:11 2020.
 Gaussian 16:  ES64L-G16RevA.03 25-Dec-2016

 ----------------------------------------------------------------------
 # B3LYP/6-311++G(d,p) empiricaldispersion=gd3bj scf=xqc pop=npa geom=c
 heck
 ----------------------------------------------------------------------

 -----------------------------------
 CID_148547950_JID_210_Energie_anion
 -----------------------------------
 Structure from the checkpoint file:  "JID_210.chk"
 Charge = -1 Multiplicity = 2

                         Standard orientation:
 ---------------------------------------------------------------------
 Center     Atomic      Atomic             Coordinates (Angstroms)
 Number     Number       Type             X           Y           Z
 ---------------------------------------------------------------------
      1          6           0       -0.531001    1.525740    0.000274
      2          7           0       -0.622359    2.685721   -0.000347
      3          7           0       -0.401912    0.187291    0.000121
      4          6           0        0.864647   -0.483696    0.000023
      5          8           0        1.043728   -1.659496   -0.000128
      6          8           0        1.792400    0.508174    0.000110
      7          8           0        3.103094   -0.111622   -0.000015
      8          7           0       -1.691262   -0.573449    0.000025
      9          8           0       -2.658845    0.151313    0.000097
     10          8           0       -1.607624   -1.771258   -0.000120
     11          1           0        3.624836    0.713913    0.000069
 ---------------------------------------------------------------------

 SCF Done:  E(UB3LYP) =  -617.164645595     A.U. after   27 cycles

 The electronic state is 2-A.
 Alpha  occ. eigenvalues --  -19.10349 -19.08204 -19.00129 -18.97883 -18.97855
 Alpha  occ. eigenvalues --  -14.36304 -14.28430 -14.18718 -10.22509 -10.12080
 Alpha  occ. eigenvalues --   -1.08162  -1.05973  -0.95349  -0.91047  -0.87184
 Alpha  occ. eigenvalues --   -0.82114  -0.77244  -0.56937  -0.54441  -0.45051
 Alpha  occ. eigenvalues --   -0.42731  -0.40803  -0.39836  -0.36979  -0.35106
 Alpha  occ. eigenvalues --   -0.34627  -0.28797  -0.28386  -0.25624  -0.25366
 Alpha  occ. eigenvalues --   -0.22865  -0.20037  -0.17867  -0.16928  -0.16463
 Alpha  occ. eigenvalues --   -0.15845  -0.13382   0.03328
 Alpha virt. eigenvalues --    0.05865   0.09103   0.12280   0.12582   0.13746
 Alpha virt. eigenvalues --    0.15606   0.15990   0.18506   0.18764   0.20607
 Alpha virt. eigenvalues --    0.20885   0.21493   0.21847   0.22413   0.23514

  Beta  occ. eigenvalues --  -19.10148 -19.07941 -19.00075 -18.97381 -18.97354
  Beta  occ. eigenvalues --  -14.35185 -14.28468 -14.18668 -10.22475 -10.12072
  Beta  occ. eigenvalues --   -1.06839  -1.05376  -0.95131  -0.90137  -0.86946
  Beta  occ. eigenvalues --   -0.81795  -0.77136  -0.56010  -0.54059  -0.44680
  Beta  occ. eigenvalues --   -0.42162  -0.38911  -0.38891  -0.34966  -0.34937
  Beta  occ. eigenvalues --   -0.33724  -0.28100  -0.27986  -0.25365  -0.25263
  Beta  occ. eigenvalues --   -0.22671  -0.19861  -0.17556  -0.16191  -0.15538
  Beta  occ. eigenvalues --   -0.13534  -0.12893
  Beta virt. eigenvalues --    0.06884   0.10015   0.12289   0.12824   0.13507
  Beta virt. eigenvalues --    0.14149   0.15533   0.15979   0.18530   0.18742
  Beta virt. eigenvalues --    0.20599   0.20827   0.21735   0.22345   0.22566

 Mulliken charges and spin densities:
               1          2
     1  C    0.166110   0.012472
     2  N   -0.354484   0.024675
     3  N   -0.016172  -0.018215
     4  C    0.306042   0.009071
     5  O   -0.270373   0.007903
     6  O   -0.115893   0.065457
     7  O   -0.123477   0.015444
     8  N   -0.339843   0.333092
     9  O   -0.194565   0.183180
    10  O   -0.138517   0.201845
    11  H    0.081172   0.165075
 Sum of Mulliken charges =  -1.00000   1.00000

 Dipole moment (field-independent basis, Debye):
    X=              3.9322    Y=              0.8882    Z=             -0.0031  Tot=              4.0313
 Quadrupole moment (field-independent basis, Debye-Ang):
   XX=            -82.6175   YY=            -83.8922   ZZ=            -57.0144
   XY=              4.6987   XZ=              0.1809   YZ=              0.0409

 Summary of Natural Population Analysis:

                                       Natural Population
                Natural  -----------------------------------------------
    Atom  No    Charge         Core      Valence    Rydberg      Total
 -----------------------------------------------------------------------
      C    1    0.23219      0.99963     1.75043    0.01775     2.76781
      N    2   -0.19235      0.99978     2.68435    0.00822     3.69235
      N    3   -0.24168      0.99954     2.72940    0.01273     3.74168
      C    4    0.46368      0.99975     1.50924    0.02733     2.53632
      O    5   -0.26655      0.99986     3.26122    0.00548     4.26655
      O    6   -0.14538      0.99986     3.13647    0.00905     4.14538
      O    7   -0.18990      0.99991     3.18404    0.00595     4.18990
      N    8    0.43901      0.99981     2.03305    0.02813     3.06099
      O    9   -0.17840      0.99989     3.17057    0.00794     4.17840
      O   10   -0.14726      0.99989     3.13968    0.00769     4.14726
      H   11    0.22665      0.00000     0.26932    0.00404     0.27335
 =======================================================================
   * Total *    0.00000      9.99792    26.86776    0.13432    37.00000

 Normal termination of Gaussian 16 at Sun Dec 13 12:18:04 2020.
