 Gaussian 16, Revision A.03,

 -----------------------------------------------------------
 # opt freq B3LYP/6-31G(d) empiricaldispersion=gd3bj scf=xqc
 -----------------------------------------------------------

 -------------------------------
 CID_150988423_JID_7887_neutraal
 -------------------------------
 Symbolic Z-matrix:
 Charge =  0 Multiplicity = 1

 SCF Done:  E(RB3LYP) =  -711.551470020     A.U. after   16 cycles
 SCF Done:  E(RB3LYP) =  -711.557212159     A.U. after   13 cycles
 SCF Done:  E(RB3LYP) =  -711.548388242     A.U. after   13 cycles
 SCF Done:  E(RB3LYP) =  -711.558295154     A.U. after   13 cycles
 SCF Done:  E(RB3LYP) =  -711.550399460     A.U. after   12 cycles
 SCF Done:  E(RB3LYP) =  -711.558335327     A.U. after   14 cycles
 SCF Done:  E(RB3LYP) =  -711.559557529     A.U. after    9 cycles
 SCF Done:  E(RB3LYP) =  -711.560309715     A.U. after   12 cycles
 SCF Done:  E(RB3LYP) =  -711.560012203     A.U. after   13 cycles
 SCF Done:  E(RB3LYP) =  -711.560444236     A.U. after   13 cycles
 SCF Done:  E(RB3LYP) =  -711.560699865     A.U. after   10 cycles
 SCF Done:  E(RB3LYP) =  -711.560702829     A.U. after    8 cycles
 SCF Done:  E(RB3LYP) =  -711.560703969     A.U. after    8 cycles
 SCF Done:  E(RB3LYP) =  -711.560704285     A.U. after    8 cycles
 Optimization completed.
    -- Stationary point found.
 Normal termination of Gaussian 16 at Fri Dec 11 13:36:54 2020.

 --------------------------------------------------------------------
 #N Geom=AllCheck Guess=TCheck SCRF=Check GenChk RB3LYP/6-31G(d) Freq
 --------------------------------------------------------------------

 Structure from the checkpoint file:  "JID_7887.chk"
 -------------------------------
 CID_150988423_JID_7887_neutraal
 -------------------------------
 Charge =  0 Multiplicity = 1

 SCF Done:  E(RB3LYP) =  -711.560704285     A.U. after    1 cycles

  Exact polarizability: 156.807  -8.884 153.629  -0.399   4.084 165.381
 Approx polarizability: 216.058 -18.012 230.702  -6.009  23.944 310.305

                      1                      2                      3
                      A                      A                      A
 Frequencies --     52.9913                68.1366                98.2896
 Red. masses --      6.2381                 2.3522                 4.8504
 Frc consts  --      0.0103                 0.0064                 0.0276
 IR Inten    --      0.1349                 0.1258                 0.5364

                      4                      5                      6
                      A                      A                      A
 Frequencies --    138.2828               153.7568               175.5063
 Red. masses --      2.6981                 2.1386                 3.9456
 Frc consts  --      0.0304                 0.0298                 0.0716
 IR Inten    --      0.2257                 0.0902                 0.2023

                      7                      8                      9
                      A                      A                      A
 Frequencies --    181.5078               190.9177               217.1597
 Red. masses --      3.9174                 1.4719                 2.4329
 Frc consts  --      0.0760                 0.0316                 0.0676
 IR Inten    --      0.3649                 0.4852                 0.3036

                     10                     11                     12
                      A                      A                      A
 Frequencies --    241.2563               246.1471               264.9858
 Red. masses --      1.0829                 1.4418                 2.2512
 Frc consts  --      0.0371                 0.0515                 0.0931
 IR Inten    --      0.0784                 0.5116                 0.1972

                     13                     14                     15
                      A                      A                      A
 Frequencies --    270.7292               285.6500               298.6683
 Red. masses --      1.7869                 1.9468                 2.1834
 Frc consts  --      0.0772                 0.0936                 0.1148
 IR Inten    --      0.8468                 0.9129                 0.1326

                     16                     17                     18
                      A                      A                      A
 Frequencies --    304.3797               322.0086               342.5455
 Red. masses --      1.1203                 1.7229                 3.1268
 Frc consts  --      0.0612                 0.1053                 0.2162
 IR Inten    --      0.2128                 0.8289                 0.4186

                     19                     20                     21
                      A                      A                      A
 Frequencies --    349.9742               365.5746               381.3705
 Red. masses --      1.7897                 2.6145                 3.0260
 Frc consts  --      0.1291                 0.2059                 0.2593
 IR Inten    --      1.1023                 0.3176                 1.5341

                     22                     23                     24
                      A                      A                      A
 Frequencies --    384.1497               427.7295               429.6543
 Red. masses --      2.5595                 2.4157                 2.4819
 Frc consts  --      0.2225                 0.2604                 0.2699
 IR Inten    --      2.3586                 0.5003                 0.9646

                     25                     26                     27
                      A                      A                      A
 Frequencies --    452.1921               465.6189               493.6799
 Red. masses --      2.9003                 2.4728                 3.2299
 Frc consts  --      0.3494                 0.3159                 0.4638
 IR Inten    --      0.7865                 2.6407                 5.8616

                     28                     29                     30
                      A                      A                      A
 Frequencies --    516.7100               547.0824               552.0056
 Red. masses --      2.4749                 3.2880                 2.8134
 Frc consts  --      0.3893                 0.5798                 0.5051
 IR Inten    --      2.0320                 0.5543                 1.1886

                     31                     32                     33
                      A                      A                      A
 Frequencies --    569.8773               642.0937               650.4708
 Red. masses --     12.6663                 4.4017                 2.6807
 Frc consts  --      2.4236                 1.0692                 0.6683
 IR Inten    --      8.5972                 5.7011                14.1952

                     34                     35                     36
                      A                      A                      A
 Frequencies --    681.7547               722.6888               781.7089
 Red. masses --      4.2421                 2.8686                 1.9571
 Frc consts  --      1.1617                 0.8827                 0.7046
 IR Inten    --      0.1074                25.5086                 3.9774

                     37                     38                     39
                      A                      A                      A
 Frequencies --    808.9294               822.6715               873.1606
 Red. masses --      2.1714                 2.9105                 3.8367
 Frc consts  --      0.8372                 1.1606                 1.7234
 IR Inten    --     14.8734                 2.0464                52.8461

                     40                     41                     42
                      A                      A                      A
 Frequencies --    898.2323               933.5541               936.3199
 Red. masses --      3.5616                 1.9803                 1.8589
 Frc consts  --      1.6930                 1.0168                 0.9602
 IR Inten    --      2.6567                 2.4950                 2.2773

                     43                     44                     45
                      A                      A                      A
 Frequencies --    949.0601               954.3413               969.3679
 Red. masses --      1.7596                 1.6964                 1.9391
 Frc consts  --      0.9338                 0.9103                 1.0736
 IR Inten    --      1.2949                 0.2381                 4.4540

                     46                     47                     48
                      A                      A                      A
 Frequencies --    971.9435               972.0111               978.2226
 Red. masses --      1.8138                 1.4264                 1.3951
 Frc consts  --      1.0095                 0.7940                 0.7866
 IR Inten    --      0.8721                 0.8550                 0.4190

                     49                     50                     51
                      A                      A                      A
 Frequencies --    981.7159               994.6921              1010.5800
 Red. masses --      1.3263                 1.3241                 2.2251
 Frc consts  --      0.7531                 0.7719                 1.3389
 IR Inten    --      1.2643                 0.0815                 2.1531

                     52                     53                     54
                      A                      A                      A
 Frequencies --   1042.5221              1049.0026              1062.9277
 Red. masses --      1.8700                 2.1063                 1.3942
 Frc consts  --      1.1975                 1.3656                 0.9281
 IR Inten    --      8.5680                13.5820                 0.9098

                     55                     56                     57
                      A                      A                      A
 Frequencies --   1070.3909              1076.7991              1131.5163
 Red. masses --      1.4837                 1.6618                 2.0246
 Frc consts  --      1.0015                 1.1353                 1.5273
 IR Inten    --      5.8552                 3.8741                 5.9649

                     58                     59                     60
                      A                      A                      A
 Frequencies --   1212.7635              1229.8767              1234.9170
 Red. masses --      1.3003                 1.2665                 2.0985
 Frc consts  --      1.1268                 1.1287                 1.8855
 IR Inten    --      0.6533                 2.1640                 3.8815

                     61                     62                     63
                      A                      A                      A
 Frequencies --   1238.9692              1248.2360              1258.6745
 Red. masses --      2.1377                 2.4637                 2.4392
 Frc consts  --      1.9334                 2.2617                 2.2768
 IR Inten    --     11.1143                 1.2716                19.0210

                     64                     65                     66
                      A                      A                      A
 Frequencies --   1267.9877              1274.0824              1323.8883
 Red. masses --      2.3176                 2.7843                 1.5395
 Frc consts  --      2.1954                 2.6630                 1.5898
 IR Inten    --      8.0494                 9.1828                 5.4538

                     67                     68                     69
                      A                      A                      A
 Frequencies --   1338.6869              1385.8947              1409.5297
 Red. masses --     11.0979                 1.3058                 1.3954
 Frc consts  --     11.7179                 1.4777                 1.6334
 IR Inten    --     91.0722                 1.8087                 4.1759

                     70                     71                     72
                      A                      A                      A
 Frequencies --   1425.1843              1432.0037              1435.0470
 Red. masses --      1.2221                 1.2228                 1.2215
 Frc consts  --      1.4625                 1.4774                 1.4821
 IR Inten    --      0.9170                 5.8115                10.7252

                     73                     74                     75
                      A                      A                      A
 Frequencies --   1436.3947              1459.2274              1463.0512
 Red. masses --      1.2254                 1.4624                 1.2958
 Frc consts  --      1.4896                 1.8347                 1.6342
 IR Inten    --      4.8747                15.1613                12.9873

                     76                     77                     78
                      A                      A                      A
 Frequencies --   1472.8518              1508.9806              1513.2663
 Red. masses --      1.2522                 1.0499                 1.0507
 Frc consts  --      1.6004                 1.4085                 1.4176
 IR Inten    --      4.7627                 0.5633                 0.1809

                     79                     80                     81
                      A                      A                      A
 Frequencies --   1516.4812              1518.9717              1525.9612
 Red. masses --      1.0449                 1.0444                 1.0475
 Frc consts  --      1.4158                 1.4198                 1.4371
 IR Inten    --      1.0733                 0.2557                 1.2958

                     82                     83                     84
                      A                      A                      A
 Frequencies --   1531.5196              1533.5396              1541.4502
 Red. masses --      1.0530                 1.0506                 1.0525
 Frc consts  --      1.4551                 1.4557                 1.4735
 IR Inten    --      6.7583                 4.1913                 3.9379

                     85                     86                     87
                      A                      A                      A
 Frequencies --   1542.3467              1548.8947              1555.3827
 Red. masses --      1.0546                 1.0549                 1.0562
 Frc consts  --      1.4781                 1.4911                 1.5055
 IR Inten    --      1.0773                 0.6904                 8.8926

                     88                     89                     90
                      A                      A                      A
 Frequencies --   1564.9826              1659.7967              1727.5292
 Red. masses --      1.0570                 8.0447                 5.6340
 Frc consts  --      1.5252                13.0579                 9.9065
 IR Inten    --      8.7779                 2.6864                 3.8084

                     91                     92                     93
                      A                      A                      A
 Frequencies --   2235.1956              3046.4957              3051.8425
 Red. masses --     13.9410                 1.0398                 1.0473
 Frc consts  --     41.0370                 5.6862                 5.7472
 IR Inten    --    498.1207                12.5777                20.7544

                     94                     95                     96
                      A                      A                      A
 Frequencies --   3055.4033              3060.6731              3061.0304
 Red. masses --      1.0706                 1.0483                 1.0454
 Frc consts  --      5.8889                 5.7856                 5.7712
 IR Inten    --     22.8977                 5.9252                35.5262

                     97                     98                     99
                      A                      A                      A
 Frequencies --   3066.3637              3073.2831              3102.1511
 Red. masses --      1.0451                 1.0444                 1.1017
 Frc consts  --      5.7896                 5.8121                 6.2465
 IR Inten    --     22.1615                39.3326                 7.1565

                    100                    101                    102
                      A                      A                      A
 Frequencies --   3112.5522              3118.9848              3123.6422
 Red. masses --      1.1000                 1.0995                 1.0988
 Frc consts  --      6.2790                 6.3017                 6.3169
 IR Inten    --     52.7537                 3.6059                38.2347

                    103                    104                    105
                      A                      A                      A
 Frequencies --   3128.5037              3128.9253              3141.8183
 Red. masses --      1.0939                 1.0973                 1.0995
 Frc consts  --      6.3081                 6.3296                 6.3947
 IR Inten    --     14.8595                47.1073                32.8563

                    106                    107                    108
                      A                      A                      A
 Frequencies --   3161.7768              3164.5834              3179.2132
 Red. masses --      1.0992                 1.0994                 1.0862
 Frc consts  --      6.4744                 6.4871                 6.4685
 IR Inten    --     19.9677                21.0749                 6.3833

                    109                    110                    111
                      A                      A                      A
 Frequencies --   3179.9847              3191.2298              3191.8262
 Red. masses --      1.0956                 1.0887                 1.0930
 Frc consts  --      6.5278                 6.5326                 6.5606
 IR Inten    --     28.1015                17.7984                15.7223

                    112                    113                    114
                      A                      A                      A
 Frequencies --   3211.9808              3216.3147              3229.6406
 Red. masses --      1.0963                 1.0869                 1.0934
 Frc consts  --      6.6637                 6.6247                 6.7194
 IR Inten    --     22.5119                 9.5290                14.9436

 - Thermochemistry -
 -------------------
 Temperature   298.150 Kelvin.  Pressure   1.00000 Atm.
 Atom     1 has atomic number  6 and mass  12.00000

 Molecular mass:   233.18920 amu.
 Principal axes and moments of inertia in atomic units:
                           1         2         3
     Eigenvalues --  3098.909273844.096784353.97465
           X            0.99701  -0.06857  -0.03571
           Y            0.06641   0.99607  -0.05859
           Z            0.03959   0.05605   0.99764
 This molecule is an asymmetric top.
 Rotational symmetry number  1.
 Warning -- assumption of classical behavior for rotation
           may cause significant error
 Rotational temperatures (Kelvin)      0.02795     0.02253     0.01989
 Rotational constants (GHZ):           0.58238     0.46948     0.41450
 Zero-point vibrational energy     929049.8 (Joules/Mol)
                                  222.04824 (Kcal/Mol)
 Warning -- explicit consideration of  31 degrees of freedom as
           vibrations may cause significant error
 Vibrational temperatures:     76.24    98.03   141.42   198.96   221.22
          (Kelvin)            252.51   261.15   274.69   312.44   347.11
                              354.15   381.26   389.52   410.99   429.72
                              437.93   463.30   492.85   503.53   525.98
                              548.71   552.71   615.41   618.18   650.60
                              669.92   710.30   743.43   787.13   794.21
                              819.93   923.83   935.88   980.89  1039.79
                             1124.70  1163.87  1183.64  1256.28  1292.36
                             1343.18  1347.16  1365.49  1373.08  1394.70
                             1398.41  1398.51  1407.44  1412.47  1431.14
                             1454.00  1499.96  1509.28  1529.32  1540.05
                             1549.27  1628.00  1744.90  1769.52  1776.77
                             1782.60  1795.93  1810.95  1824.35  1833.12
                             1904.78  1926.07  1993.99  2028.00  2050.52
                             2060.33  2064.71  2066.65  2099.50  2105.00
                             2119.11  2171.09  2177.25  2181.88  2185.46
                             2195.52  2203.52  2206.42  2217.80  2219.09
                             2228.51  2237.85  2251.66  2388.08  2485.53
                             3215.95  4383.23  4390.92  4396.04  4403.63
                             4404.14  4411.81  4421.77  4463.30  4478.27
                             4487.52  4494.22  4501.22  4501.83  4520.38
                             4549.09  4553.13  4574.18  4575.29  4591.47
                             4592.33  4621.32  4627.56  4646.73

 Zero-point correction=                           0.353856 (Hartree/Particle)
 Thermal correction to Energy=                    0.371756
 Thermal correction to Enthalpy=                  0.372700
 Thermal correction to Gibbs Free Energy=         0.311018
 Sum of electronic and zero-point Energies=           -711.206848
 Sum of electronic and thermal Energies=              -711.188948
 Sum of electronic and thermal Enthalpies=            -711.188004
 Sum of electronic and thermal Free Energies=         -711.249686

                     E (Thermal)             CV                S
                      KCal/Mol        Cal/Mol-Kelvin    Cal/Mol-Kelvin
 Total                  233.280             72.130            129.822
 Electronic               0.000              0.000              0.000
 Translational            0.889              2.981             42.242
 Rotational               0.889              2.981             32.317
 Vibrational            231.503             66.168             55.263
 Vibration     1          0.596              1.976              4.703
 Vibration     2          0.598              1.969              4.206
 Vibration     3          0.604              1.950              3.488
 Vibration     4          0.614              1.915              2.827
 Vibration     5          0.619              1.898              2.625
 Vibration     6          0.627              1.873              2.376
 Vibration     7          0.630              1.865              2.313
 Vibration     8          0.634              1.852              2.219
 Vibration     9          0.646              1.815              1.983
 Vibration    10          0.658              1.777              1.794
 Vibration    11          0.661              1.769              1.758
 Vibration    12          0.671              1.737              1.629
 Vibration    13          0.674              1.727              1.592
 Vibration    14          0.683              1.700              1.500
 Vibration    15          0.692              1.676              1.424
 Vibration    16          0.695              1.665              1.393
 Vibration    17          0.707              1.631              1.300
 Vibration    18          0.722              1.590              1.200
 Vibration    19          0.727              1.575              1.166
 Vibration    20          0.739              1.543              1.098
 Vibration    21          0.751              1.510              1.034
 Vibration    22          0.753              1.504              1.023
 Vibration    23          0.789              1.410              0.866
 Vibration    24          0.791              1.406              0.860
 Vibration    25          0.811              1.356              0.789
 Vibration    26          0.823              1.326              0.750
 Vibration    27          0.849              1.264              0.674
 Vibration    28          0.872              1.213              0.618
 Vibration    29          0.902              1.146              0.550
 Vibration    30          0.907              1.135              0.540
 Vibration    31          0.926              1.096              0.504

 Optimization completed.
    -- Stationary point found.
 Normal termination of Gaussian 16 at Fri Dec 11 13:55:46 2020.

 ----------------------------------------------------------------------
 # B3LYP/6-311++G(d,p) empiricaldispersion=gd3bj scf=xqc pop=npa geom=c
 heck
 ----------------------------------------------------------------------

 ---------------------------------------
 CID_150988423_JID_7887_Energie_neutraal
 ---------------------------------------
 Structure from the checkpoint file:  "JID_7887.chk"
 Charge =  0 Multiplicity = 1

 SCF Done:  E(RB3LYP) =  -711.752142465     A.U. after   17 cycles
 Normal termination of Gaussian 16 at Fri Dec 11 14:06:29 2020.

 ----------------------------------------------------------------------
 # B3LYP/6-311++G(d,p) empiricaldispersion=gd3bj scf=xqc pop=npa geom=c
 heck
 ----------------------------------------------------------------------

 -------------------------------------
 CID_150988423_JID_7887_Energie_kation
 -------------------------------------
 Structure from the checkpoint file:  "JID_7887.chk"
 Charge =  1 Multiplicity = 2

 SCF Done:  E(UB3LYP) =  -711.454097333     A.U. after   33 cycles
 SCF Done:  E(UB3LYP) =  -711.454155440     a.u. after    4 cycles
 Normal termination of Gaussian 16 at Fri Dec 11 15:43:12 2020.
 Gaussian 16:  ES64L-G16RevA.03 25-Dec-2016

 ----------------------------------------------------------------------
 # B3LYP/6-311++G(d,p) empiricaldispersion=gd3bj scf=xqc pop=npa geom=c
 heck
 ----------------------------------------------------------------------

 ------------------------------------
 CID_150988423_JID_7887_Energie_anion
 ------------------------------------
 Structure from the checkpoint file:  "JID_7887.chk"
 Charge = -1 Multiplicity = 2

                         Standard orientation:
 ---------------------------------------------------------------------
 Center     Atomic      Atomic             Coordinates (Angstroms)
 Number     Number       Type             X           Y           Z
 ---------------------------------------------------------------------
      1          6           0        2.276183    1.177300    1.014298
      2          6           0        1.878486    0.756303   -0.409457
      3          6           0        1.577486    1.989956   -1.283579
      4          6           0        3.132394    0.114810   -1.059441
      5          6           0        0.705587   -0.317864   -0.446046
      6          6           0        1.297355   -1.674312   -0.079371
      7          6           0        1.220715   -2.174732    1.162779
      8          6           0        0.470706   -1.458903    2.187842
      9          6           0       -0.390417   -0.494094    1.835647
     10          6           0       -0.646233   -0.192456    0.367823
     11          6           0       -1.597686    1.058746    0.195940
     12          6           0       -1.819760    1.395820   -1.290860
     13          6           0       -2.989235    0.727479    0.791684
     14          6           0       -1.101350    2.302356    0.962267
     15          7           0       -1.494107   -1.395483   -0.085573
     16          7           0       -1.455682   -1.732108   -1.263601
     17          7           0       -1.494835   -2.146895   -2.332315
     18          1           0        3.136945    1.855524    0.968316
     19          1           0        2.564919    0.306841    1.609092
     20          1           0        1.472480    1.688777    1.546012
     21          1           0        2.458226    2.642066   -1.304597
     22          1           0        1.367966    1.689530   -2.317326
     23          1           0        0.741649    2.593144   -0.936803
     24          1           0        3.554076   -0.683779   -0.444818
     25          1           0        2.908327   -0.294687   -2.052099
     26          1           0        3.904965    0.881008   -1.185102
     27          1           0        0.419073   -0.358543   -1.503393
     28          1           0        1.850654   -2.202468   -0.848613
     29          1           0        1.706575   -3.113063    1.416647
     30          1           0        0.613368   -1.720385    3.233364
     31          1           0       -0.962908    0.035861    2.586749
     32          1           0       -2.297565    0.567455   -1.821993
     33          1           0       -2.490420    2.258499   -1.372041
     34          1           0       -0.898696    1.644677   -1.817577
     35          1           0       -2.931476    0.426681    1.842279
     36          1           0       -3.619737    1.622075    0.739267
     37          1           0       -3.483886   -0.075732    0.243815
     38          1           0       -1.061499    2.120928    2.040566
     39          1           0       -0.119158    2.650072    0.653055
     40          1           0       -1.806891    3.124465    0.798453
 ---------------------------------------------------------------------

 SCF Done:  E(UB3LYP) =  -711.747112016     A.U. after   33 cycles
 SCF Done:  E(UB3LYP) =  -711.747112016     a.u. after    1 cycles

 The electronic state is 2-A.
 Alpha  occ. eigenvalues --  -14.33508 -14.23114 -14.21444 -10.10570 -10.08137
 Alpha  occ. eigenvalues --  -10.07496 -10.06147 -10.05216 -10.05064 -10.04863
 Alpha  occ. eigenvalues --  -10.04689 -10.04578 -10.03659 -10.02407 -10.02238
 Alpha  occ. eigenvalues --  -10.01886 -10.01526  -0.99738  -0.83959  -0.73221
 Alpha  occ. eigenvalues --   -0.70621  -0.68119  -0.60989  -0.60653  -0.58410
 Alpha  occ. eigenvalues --   -0.58091  -0.57271  -0.56669  -0.51869  -0.46345
 Alpha  occ. eigenvalues --   -0.44866  -0.42580  -0.40076  -0.39087  -0.37562
 Alpha  occ. eigenvalues --   -0.36776  -0.34974  -0.34179  -0.33590  -0.32846
 Alpha  occ. eigenvalues --   -0.32223  -0.31706  -0.31322  -0.30146  -0.29613
 Alpha  occ. eigenvalues --   -0.28774  -0.27557  -0.27301  -0.26648  -0.26269
 Alpha  occ. eigenvalues --   -0.25952  -0.25275  -0.24452  -0.23479  -0.22978
 Alpha  occ. eigenvalues --   -0.22219  -0.21744  -0.20737  -0.19661  -0.17923
 Alpha  occ. eigenvalues --   -0.17247  -0.15629  -0.11595  -0.08976   0.05038
 Alpha virt. eigenvalues --    0.06999   0.07666   0.08613   0.09036   0.09361
 Alpha virt. eigenvalues --    0.09719   0.10131   0.10381   0.10887   0.11230
 Alpha virt. eigenvalues --    0.12205   0.12510   0.12755   0.12860   0.13408

  Beta  occ. eigenvalues --  -14.33384 -14.22962 -14.21370 -10.10515 -10.08132
  Beta  occ. eigenvalues --  -10.07434 -10.06169 -10.05213 -10.05059 -10.04846
  Beta  occ. eigenvalues --  -10.04675 -10.04576 -10.03650 -10.02409 -10.02132
  Beta  occ. eigenvalues --  -10.01562 -10.01256  -0.99483  -0.83780  -0.73030
  Beta  occ. eigenvalues --   -0.70547  -0.67864  -0.60627  -0.60367  -0.58368
  Beta  occ. eigenvalues --   -0.58066  -0.57241  -0.56629  -0.51725  -0.45914
  Beta  occ. eigenvalues --   -0.44543  -0.42452  -0.39759  -0.38985  -0.37213
  Beta  occ. eigenvalues --   -0.36605  -0.34892  -0.33985  -0.33488  -0.32778
  Beta  occ. eigenvalues --   -0.32152  -0.31441  -0.31233  -0.29990  -0.29502
  Beta  occ. eigenvalues --   -0.28646  -0.27524  -0.27241  -0.26564  -0.26189
  Beta  occ. eigenvalues --   -0.25911  -0.25245  -0.24369  -0.23395  -0.22896
  Beta  occ. eigenvalues --   -0.22053  -0.21664  -0.20695  -0.19478  -0.17675
  Beta  occ. eigenvalues --   -0.16441  -0.15215  -0.11399  -0.07524
  Beta virt. eigenvalues --    0.07051   0.07861   0.08729   0.09110   0.09676
  Beta virt. eigenvalues --    0.09749   0.10076   0.10119   0.10680   0.11039
  Beta virt. eigenvalues --    0.11439   0.12235   0.12571   0.12732   0.12840

 Mulliken charges and spin densities:
               1          2
     1  C   -0.285381  -0.340388
     2  C   -0.353661   0.888218
     3  C   -0.063665  -0.560558
     4  C   -0.469853  -0.215367
     5  C    0.594544  -0.280171
     6  C   -0.569180  -0.022169
     7  C   -0.284530  -0.052903
     8  C   -0.432205   0.141631
     9  C   -0.038432   0.091719
    10  C    0.544893  -0.152793
    11  C    0.248855   0.202881
    12  C   -0.510208  -0.192558
    13  C   -0.444189  -0.116638
    14  C   -0.445121  -0.103254
    15  N   -0.456217   0.092296
    16  N    0.424801   0.126150
    17  N   -0.010345  -0.107725
    18  H   -0.047868   0.188116
    19  H    0.064815   0.108741
    20  H    0.150918  -0.027028
    21  H   -0.154864   0.313891
    22  H    0.028757   0.106615
    23  H    0.058708   0.041935
    24  H    0.146749   0.026203
    25  H    0.055909   0.079030
    26  H    0.000040   0.125684
    27  H    0.237649  -0.027160
    28  H    0.065364   0.079565
    29  H    0.076537   0.039538
    30  H    0.068835   0.056232
    31  H    0.095008  -0.036192
    32  H    0.136586   0.012282
    33  H   -0.007196   0.154600
    34  H    0.098480   0.014772
    35  H    0.110932   0.059110
    36  H    0.029418   0.089846
    37  H    0.145353  -0.000132
    38  H    0.118302   0.053411
    39  H   -0.030654   0.104494
    40  H    0.102118   0.038077
 Sum of Mulliken charges =  -1.00000   1.00000

 Dipole moment (field-independent basis, Debye):
    X=             -1.2078    Y=              2.0314    Z=              0.6961  Tot=              2.4637
 Quadrupole moment (field-independent basis, Debye-Ang):
   XX=           -145.1109   YY=           -144.4147   ZZ=           -138.0939
   XY=             -7.4632   XZ=             -3.9058   YZ=             -0.7309

 Summary of Natural Population Analysis:

                                       Natural Population
                Natural  -----------------------------------------------
    Atom  No    Charge         Core      Valence    Rydberg      Total
 -----------------------------------------------------------------------
      C    1   -0.28757      0.99962     2.28073    0.00723     3.28757
      C    2   -0.03293      0.99957     2.02234    0.01101     3.03293
      C    3   -0.28505      0.99962     2.27832    0.00711     3.28505
      C    4   -0.28355      0.99963     2.27816    0.00576     3.28355
      C    5   -0.12767      0.99952     2.11369    0.01445     3.12767
      C    6   -0.02752      0.99954     2.01519    0.01279     3.02752
      C    7   -0.12813      0.99950     2.11766    0.01098     3.12813
      C    8   -0.08738      0.99952     2.07728    0.01058     3.08738
      C    9   -0.05686      0.99949     2.04665    0.01072     3.05686
      C   10    0.07284      0.99949     1.91197    0.01569     2.92716
      C   11   -0.04259      0.99954     2.03258    0.01047     3.04259
      C   12   -0.28961      0.99963     2.28270    0.00728     3.28961
      C   13   -0.28309      0.99963     2.27587    0.00759     3.28309
      C   14   -0.28387      0.99962     2.27745    0.00680     3.28387
      N   15   -0.17578      0.99968     2.66039    0.01571     3.67578
      N   16    0.12244      0.99968     2.36122    0.01666     3.37756
      N   17   -0.06882      0.99982     2.55677    0.01223     3.56882
      H   18    0.09183      0.00000     0.40737    0.00080     0.40817
      H   19    0.11069      0.00000     0.38840    0.00091     0.38931
      H   20    0.10135      0.00000     0.39763    0.00101     0.39865
      H   21    0.09829      0.00000     0.40082    0.00089     0.40171
      H   22    0.09686      0.00000     0.40227    0.00087     0.40314
      H   23    0.09773      0.00000     0.40129    0.00098     0.40227
      H   24    0.10686      0.00000     0.39233    0.00081     0.39314
      H   25    0.09660      0.00000     0.40261    0.00079     0.40340
      H   26    0.09508      0.00000     0.40412    0.00080     0.40492
      H   27    0.10469      0.00000     0.39345    0.00186     0.39531
      H   28    0.09190      0.00000     0.40716    0.00094     0.40810
      H   29    0.09411      0.00000     0.40510    0.00080     0.40589
      H   30    0.09168      0.00000     0.40749    0.00082     0.40832
      H   31    0.08809      0.00000     0.41045    0.00146     0.41191
      H   32    0.10309      0.00000     0.39596    0.00095     0.39691
      H   33    0.09573      0.00000     0.40356    0.00071     0.40427
      H   34    0.10322      0.00000     0.39582    0.00096     0.39678
      H   35    0.10168      0.00000     0.39761    0.00071     0.39832
      H   36    0.09225      0.00000     0.40699    0.00076     0.40775
      H   37    0.10654      0.00000     0.39265    0.00080     0.39346
      H   38    0.10199      0.00000     0.39726    0.00075     0.39801
      H   39    0.10006      0.00000     0.39896    0.00098     0.39994
      H   40    0.09480      0.00000     0.40446    0.00075     0.40520
 =======================================================================
   * Total *    0.00000     16.99311    46.80273    0.20416    64.00000

 Normal termination of Gaussian 16 at Fri Dec 11 16:13:18 2020.
