 Gaussian 16, Revision A.03,

 -----------------------------------------------------------
 # opt freq B3LYP/6-31G(d) empiricaldispersion=gd3bj scf=xqc
 -----------------------------------------------------------

 -------------------------------
 CID_103023439_JID_6052_neutraal
 -------------------------------
 Symbolic Z-matrix:
 Charge =  0 Multiplicity = 1

 SCF Done:  E(RB3LYP) =  -745.364600777     A.U. after   14 cycles
 SCF Done:  E(RB3LYP) =  -745.367478186     A.U. after   12 cycles
 SCF Done:  E(RB3LYP) =  -745.362227650     A.U. after   13 cycles
 SCF Done:  E(RB3LYP) =  -745.366894814     A.U. after   13 cycles
 SCF Done:  E(RB3LYP) =  -745.368091677     A.U. after   10 cycles
 SCF Done:  E(RB3LYP) =  -745.368418746     A.U. after   12 cycles
 SCF Done:  E(RB3LYP) =  -745.368479878     A.U. after   12 cycles
 SCF Done:  E(RB3LYP) =  -745.368732972     A.U. after   11 cycles
 SCF Done:  E(RB3LYP) =  -745.368768846     A.U. after   11 cycles
 SCF Done:  E(RB3LYP) =  -745.368841277     A.U. after   10 cycles
 SCF Done:  E(RB3LYP) =  -745.369402122     A.U. after    9 cycles
 SCF Done:  E(RB3LYP) =  -745.369403535     A.U. after    9 cycles
 SCF Done:  E(RB3LYP) =  -745.369404465     A.U. after    9 cycles
 SCF Done:  E(RB3LYP) =  -745.369404577     A.U. after    7 cycles
 SCF Done:  E(RB3LYP) =  -745.369404584     A.U. after    7 cycles
 Optimization completed.
    -- Stationary point found.
 Normal termination of Gaussian 16 at Thu Dec 10 21:29:30 2020.

 --------------------------------------------------------------------
 #N Geom=AllCheck Guess=TCheck SCRF=Check GenChk RB3LYP/6-31G(d) Freq
 --------------------------------------------------------------------

 Structure from the checkpoint file:  "JID_6052.chk"
 -------------------------------
 CID_103023439_JID_6052_neutraal
 -------------------------------
 Charge =  0 Multiplicity = 1

 SCF Done:  E(RB3LYP) =  -745.369404584     A.U. after    1 cycles

  Exact polarizability: 155.803   5.845 131.135  -8.436   9.919 116.669
 Approx polarizability: 203.303  15.316 199.960 -10.961  19.643 188.205

                      1                      2                      3
                      A                      A                      A
 Frequencies --     16.2992                26.8220                39.8603
 Red. masses --      4.4440                 5.9947                 5.1302
 Frc consts  --      0.0007                 0.0025                 0.0048
 IR Inten    --      0.0619                 0.7648                 0.5412

                      4                      5                      6
                      A                      A                      A
 Frequencies --     54.9707                71.1495               131.9157
 Red. masses --      4.1367                 4.5864                 2.2136
 Frc consts  --      0.0074                 0.0137                 0.0227
 IR Inten    --      0.2088                 0.8228                 2.4541

                      7                      8                      9
                      A                      A                      A
 Frequencies --    145.4492               158.2176               175.3901
 Red. masses --      1.3175                 4.5666                 4.4366
 Frc consts  --      0.0164                 0.0674                 0.0804
 IR Inten    --      0.2697                 1.5717                 0.6611

                     10                     11                     12
                      A                      A                      A
 Frequencies --    189.0797               205.1088               232.8835
 Red. masses --      3.2711                 3.7970                 2.9739
 Frc consts  --      0.0689                 0.0941                 0.0950
 IR Inten    --      4.8710                 2.1388                 1.6768

                     13                     14                     15
                      A                      A                      A
 Frequencies --    273.0349               298.2656               317.4799
 Red. masses --      3.5094                 2.2877                 1.7767
 Frc consts  --      0.1541                 0.1199                 0.1055
 IR Inten    --      0.7143                 9.1860                18.1585

                     16                     17                     18
                      A                      A                      A
 Frequencies --    341.9669               372.9228               428.7849
 Red. masses --      1.4335                 2.0652                 2.4373
 Frc consts  --      0.0988                 0.1692                 0.2640
 IR Inten    --     28.2484                 3.7332                 7.3501

                     19                     20                     21
                      A                      A                      A
 Frequencies --    432.3501               453.9343               477.2060
 Red. masses --      3.0762                 2.6660                 3.2111
 Frc consts  --      0.3388                 0.3237                 0.4308
 IR Inten    --     14.0397                 7.3653                 0.5927

                     22                     23                     24
                      A                      A                      A
 Frequencies --    546.8083               590.5451               639.6388
 Red. masses --      2.4986                 2.8667                 4.1333
 Frc consts  --      0.4402                 0.5890                 0.9964
 IR Inten    --     12.0587                24.2553                 6.0143

                     25                     26                     27
                      A                      A                      A
 Frequencies --    651.5489               662.8458               705.1841
 Red. masses --      1.5169                 5.3956                 2.7761
 Frc consts  --      0.3794                 1.3967                 0.8134
 IR Inten    --     51.9852                 4.2297                 4.9214

                     28                     29                     30
                      A                      A                      A
 Frequencies --    719.3071               728.8282               768.3439
 Red. masses --      2.5762                 3.5582                 2.6673
 Frc consts  --      0.7854                 1.1136                 0.9277
 IR Inten    --     42.6822                11.6058                27.8077

                     31                     32                     33
                      A                      A                      A
 Frequencies --    791.3649               805.0327               841.0710
 Red. masses --      1.2499                 1.7156                 2.1931
 Frc consts  --      0.4612                 0.6551                 0.9140
 IR Inten    --     41.6173                 2.0765                 8.2835

                     34                     35                     36
                      A                      A                      A
 Frequencies --    875.7321               894.3128               927.3726
 Red. masses --      1.3198                 2.1751                 1.4981
 Frc consts  --      0.5963                 1.0250                 0.7591
 IR Inten    --      1.6323                31.1280               130.5336

                     37                     38                     39
                      A                      A                      A
 Frequencies --    943.4241               958.5888               967.3203
 Red. masses --      2.6634                 2.9040                 2.2628
 Frc consts  --      1.3967                 1.5722                 1.2475
 IR Inten    --      7.5633                22.8241                 0.6557

                     40                     41                     42
                      A                      A                      A
 Frequencies --   1007.5669              1026.3178              1036.5550
 Red. masses --      1.9613                 2.0647                 1.8879
 Frc consts  --      1.1731                 1.2813                 1.1951
 IR Inten    --     17.2177                11.0691                13.0350

                     43                     44                     45
                      A                      A                      A
 Frequencies --   1053.6493              1077.4848              1096.1293
 Red. masses --      1.8413                 1.4566                 1.9731
 Frc consts  --      1.2044                 0.9964                 1.3967
 IR Inten    --     13.4214                 1.5412                21.8148

                     46                     47                     48
                      A                      A                      A
 Frequencies --   1135.2228              1136.4568              1158.4351
 Red. masses --      1.8559                 2.2619                 1.3389
 Frc consts  --      1.4092                 1.7212                 1.0586
 IR Inten    --      9.0758                 4.1316                 1.5336

                     49                     50                     51
                      A                      A                      A
 Frequencies --   1164.7118              1193.1919              1198.8951
 Red. masses --      1.8676                 1.5183                 1.4775
 Frc consts  --      1.4927                 1.2736                 1.2512
 IR Inten    --    104.8056                50.2035                57.8617

                     52                     53                     54
                      A                      A                      A
 Frequencies --   1220.1590              1239.8110              1254.3119
 Red. masses --      1.6807                 1.6531                 1.3573
 Frc consts  --      1.4742                 1.4972                 1.2582
 IR Inten    --     32.8570                 4.3390                 2.2457

                     55                     56                     57
                      A                      A                      A
 Frequencies --   1270.7068              1299.2098              1321.9052
 Red. masses --      1.2702                 1.3139                 2.5127
 Frc consts  --      1.2084                 1.3067                 2.5869
 IR Inten    --      2.1822                 6.0139                12.1600

                     58                     59                     60
                      A                      A                      A
 Frequencies --   1328.8270              1347.0076              1368.6653
 Red. masses --      1.7201                 1.4680                 1.7725
 Frc consts  --      1.7895                 1.5693                 1.9563
 IR Inten    --      3.4616                 2.2744                 2.6922

                     61                     62                     63
                      A                      A                      A
 Frequencies --   1373.7895              1385.2134              1397.7810
 Red. masses --      1.3436                 1.7390                 1.7626
 Frc consts  --      1.4940                 1.9659                 2.0290
 IR Inten    --      1.4121                34.7931                21.3121

                     64                     65                     66
                      A                      A                      A
 Frequencies --   1404.6506              1410.7252              1421.0573
 Red. masses --      1.6206                 1.4511                 1.5294
 Frc consts  --      1.8839                 1.7015                 1.8197
 IR Inten    --      9.9390                 1.5053                 2.3564

                     67                     68                     69
                      A                      A                      A
 Frequencies --   1447.3010              1453.6841              1476.1422
 Red. masses --      2.6708                 1.4269                 1.4311
 Frc consts  --      3.2961                 1.7766                 1.8373
 IR Inten    --     36.8356                15.8157                 5.3745

                     70                     71                     72
                      A                      A                      A
 Frequencies --   1504.2373              1510.8518              1517.0924
 Red. masses --      1.1267                 1.5253                 1.1041
 Frc consts  --      1.5020                 2.0514                 1.4972
 IR Inten    --      5.7495                 4.3094                19.9334

                     73                     74                     75
                      A                      A                      A
 Frequencies --   1518.6119              1530.2434              1533.3339
 Red. masses --      1.3217                 1.1569                 1.2282
 Frc consts  --      1.7959                 1.5961                 1.7013
 IR Inten    --      1.3511                 6.7947                 9.5047

                     76                     77                     78
                      A                      A                      A
 Frequencies --   1538.4106              1543.8268              1595.5631
 Red. masses --      1.0937                 1.1449                 5.1126
 Frc consts  --      1.5250                 1.6077                 7.6687
 IR Inten    --      4.5024                15.9200                 6.9399

                     79                     80                     81
                      A                      A                      A
 Frequencies --   1716.8993              1821.2759              2926.0790
 Red. masses --      1.0883                 9.1634                 1.0737
 Frc consts  --      1.8902                17.9085                 5.4163
 IR Inten    --     39.8776               270.8202               101.4478

                     82                     83                     84
                      A                      A                      A
 Frequencies --   3006.3463              3040.0516              3041.2548
 Red. masses --      1.0803                 1.0656                 1.0687
 Frc consts  --      5.7529                 5.8023                 5.8240
 IR Inten    --      8.1993                33.8356                12.6648

                     85                     86                     87
                      A                      A                      A
 Frequencies --   3059.8710              3066.2681              3070.0688
 Red. masses --      1.0397                 1.0853                 1.0683
 Frc consts  --      5.7352                 6.0123                 5.9324
 IR Inten    --     31.5822                60.9130                23.3843

                     88                     89                     90
                      A                      A                      A
 Frequencies --   3079.6433              3088.7987              3104.5126
 Red. masses --      1.0672                 1.0961                 1.0934
 Frc consts  --      5.9636                 6.1613                 6.2089
 IR Inten    --     29.1491                42.9817                10.6499

                     91                     92                     93
                      A                      A                      A
 Frequencies --   3115.1694              3129.0413              3137.1951
 Red. masses --      1.0985                 1.0995                 1.0960
 Frc consts  --      6.2810                 6.3428                 6.3553
 IR Inten    --     21.4741                16.8550                24.8107

                     94                     95                     96
                      A                      A                      A
 Frequencies --   3179.8725              3254.7051              3273.9457
 Red. masses --      1.1024                 1.0921                 1.1014
 Frc consts  --      6.5678                 6.8164                 6.9559
 IR Inten    --      5.4494                10.7732                 3.7998

                     97                     98                     99
                      A                      A                      A
 Frequencies --   3472.8512              3554.9457              3682.7620
 Red. masses --      1.0500                 1.0916                 1.0640
 Frc consts  --      7.4615                 8.1279                 8.5023
 IR Inten    --     17.4860                11.9446                54.1767

 - Thermochemistry -
 -------------------
 Temperature   298.150 Kelvin.  Pressure   1.00000 Atm.
 Atom     1 has atomic number  6 and mass  12.00000

 Molecular mass:   225.14773 amu.
 Principal axes and moments of inertia in atomic units:
                           1         2         3
     Eigenvalues --  1931.466836183.106756897.34447
           X            0.99988   0.01573  -0.00050
           Y           -0.01571   0.99946   0.02879
           Z            0.00095  -0.02878   0.99959
 This molecule is an asymmetric top.
 Rotational symmetry number  1.
 Warning -- assumption of classical behavior for rotation
           may cause significant error
 Rotational temperatures (Kelvin)      0.04484     0.01401     0.01256
 Rotational constants (GHZ):           0.93439     0.29188     0.26166
 Zero-point vibrational energy     802572.6 (Joules/Mol)
                                  191.81945 (Kcal/Mol)
 Warning -- explicit consideration of  23 degrees of freedom as
           vibrations may cause significant error
 Vibrational temperatures:     23.45    38.59    57.35    79.09   102.37
          (Kelvin)            189.80   209.27   227.64   252.35   272.04
                              295.11   335.07   392.84   429.14   456.78
                              492.01   536.55   616.93   622.06   653.11
                              686.59   786.74   849.66   920.30   937.43
                              953.69  1014.60  1034.92  1048.62  1105.48
                             1138.60  1158.26  1210.11  1259.98  1286.72
                             1334.28  1357.38  1379.20  1391.76  1449.66
                             1476.64  1491.37  1515.97  1550.26  1577.09
                             1633.33  1635.11  1666.73  1675.76  1716.74
                             1724.94  1755.54  1783.81  1804.68  1828.26
                             1869.27  1901.93  1911.89  1938.04  1969.20
                             1976.58  1993.01  2011.10  2020.98  2029.72
                             2044.58  2082.34  2091.53  2123.84  2164.26
                             2173.78  2182.76  2184.94  2201.68  2206.13
                             2213.43  2221.22  2295.66  2470.24  2620.41
                             4209.98  4325.46  4373.96  4375.69  4402.47
                             4411.68  4417.14  4430.92  4444.09  4466.70
                             4482.03  4501.99  4513.72  4575.13  4682.79
                             4710.48  4996.66  5114.77  5298.67

 Zero-point correction=                           0.305684 (Hartree/Particle)
 Thermal correction to Energy=                    0.322217
 Thermal correction to Enthalpy=                  0.323161
 Thermal correction to Gibbs Free Energy=         0.259285
 Sum of electronic and zero-point Energies=           -745.063721
 Sum of electronic and thermal Energies=              -745.047187
 Sum of electronic and thermal Enthalpies=            -745.046243
 Sum of electronic and thermal Free Energies=         -745.110120

                     E (Thermal)             CV                S
                      KCal/Mol        Cal/Mol-Kelvin    Cal/Mol-Kelvin
 Total                  202.194             61.572            134.440
 Electronic               0.000              0.000              0.000
 Translational            0.889              2.981             42.137
 Rotational               0.889              2.981             32.777
 Vibrational            200.417             55.610             59.526
 Vibration     1          0.593              1.986              7.041
 Vibration     2          0.593              1.984              6.052
 Vibration     3          0.594              1.981              5.266
 Vibration     4          0.596              1.976              4.630
 Vibration     5          0.598              1.968              4.121
 Vibration     6          0.612              1.921              2.918
 Vibration     7          0.617              1.908              2.731
 Vibration     8          0.621              1.893              2.571
 Vibration     9          0.627              1.873              2.377
 Vibration    10          0.633              1.855              2.237
 Vibration    11          0.640              1.833              2.087
 Vibration    12          0.654              1.791              1.857
 Vibration    13          0.676              1.723              1.577
 Vibration    14          0.691              1.677              1.427
 Vibration    15          0.704              1.640              1.323
 Vibration    16          0.721              1.592              1.203
 Vibration    17          0.744              1.528              1.068
 Vibration    18          0.790              1.408              0.863
 Vibration    19          0.793              1.400              0.851
 Vibration    20          0.812              1.352              0.784
 Vibration    21          0.834              1.301              0.718
 Vibration    22          0.902              1.147              0.551
 Vibration    23          0.948              1.052              0.466

 Optimization completed.
    -- Stationary point found.
 Normal termination of Gaussian 16 at Thu Dec 10 21:41:21 2020.

 ----------------------------------------------------------------------
 # B3LYP/6-311++G(d,p) empiricaldispersion=gd3bj scf=xqc pop=npa geom=c
 heck
 ----------------------------------------------------------------------

 ---------------------------------------
 CID_103023439_JID_6052_Energie_neutraal
 ---------------------------------------
 Structure from the checkpoint file:  "JID_6052.chk"
 Charge =  0 Multiplicity = 1

 SCF Done:  E(RB3LYP) =  -745.594565564     A.U. after   15 cycles
 Normal termination of Gaussian 16 at Thu Dec 10 21:46:23 2020.

 ----------------------------------------------------------------------
 # B3LYP/6-311++G(d,p) empiricaldispersion=gd3bj scf=xqc pop=npa geom=c
 heck
 ----------------------------------------------------------------------

 -------------------------------------
 CID_103023439_JID_6052_Energie_kation
 -------------------------------------
 Structure from the checkpoint file:  "JID_6052.chk"
 Charge =  1 Multiplicity = 2

 SCF Done:  E(UB3LYP) =  -745.292098298     A.U. after   33 cycles
 SCF Done:  E(UB3LYP) =  -745.292098338     a.u. after    2 cycles
 Normal termination of Gaussian 16 at Thu Dec 10 22:14:33 2020.
 Gaussian 16:  ES64L-G16RevA.03 25-Dec-2016

 ----------------------------------------------------------------------
 # B3LYP/6-311++G(d,p) empiricaldispersion=gd3bj scf=xqc pop=npa geom=c
 heck
 ----------------------------------------------------------------------

 ------------------------------------
 CID_103023439_JID_6052_Energie_anion
 ------------------------------------
 Structure from the checkpoint file:  "JID_6052.chk"
 Charge = -1 Multiplicity = 2

                         Standard orientation:
 ---------------------------------------------------------------------
 Center     Atomic      Atomic             Coordinates (Angstroms)
 Number     Number       Type             X           Y           Z
 ---------------------------------------------------------------------
      1          6           0        3.147276    1.514578    0.977445
      2          7           0        3.056420    0.284409    0.217180
      3          6           0        2.153869   -0.733933    0.353034
      4          6           0        2.457149   -1.642726   -0.649898
      5          6           0        3.555135   -1.081809   -1.335481
      6          7           0        3.917668    0.088160   -0.812285
      7          6           0        1.065490   -0.746401    1.381648
      8          6           0       -0.026619    0.317660    1.145765
      9          6           0       -0.647497    0.242454   -0.261792
     10          6           0       -1.345422   -1.094750   -0.584933
     11          6           0       -2.296168   -1.654968    0.485345
     12          6           0       -3.530779   -0.803557    0.797299
     13          7           0       -4.411380   -0.707485   -0.367411
     14          6           0       -1.522280    1.441914   -0.579782
     15          8           0       -2.511591    1.443514   -1.285382
     16          8           0       -1.041914    2.595818   -0.050909
     17          1           0        2.920609    1.323119    2.029523
     18          1           0        4.169635    1.882107    0.886614
     19          1           0        2.455754    2.273618    0.594457
     20          1           0        1.958388   -2.582957   -0.837226
     21          1           0        4.101811   -1.481147   -2.179596
     22          1           0        0.621667   -1.746443    1.384296
     23          1           0        1.484763   -0.595900    2.385644
     24          1           0       -0.805336    0.201509    1.907461
     25          1           0        0.398327    1.312893    1.291763
     26          1           0        0.185245    0.343507   -0.976409
     27          1           0       -1.883227   -0.983823   -1.531224
     28          1           0       -0.560122   -1.836497   -0.768006
     29          1           0       -2.648586   -2.633604    0.139257
     30          1           0       -1.745216   -1.830534    1.418878
     31          1           0       -4.088076   -1.295735    1.603822
     32          1           0       -3.211933    0.177939    1.199723
     33          1           0       -5.294721   -0.284089   -0.088710
     34          1           0       -3.991151   -0.064250   -1.036919
     35          1           0       -1.639671    3.299253   -0.367309
 ---------------------------------------------------------------------

 SCF Done:  E(UB3LYP) =  -745.586422950     A.U. after   31 cycles

 The electronic state is 2-A.
 Alpha  occ. eigenvalues --  -19.07029 -19.02083 -14.29468 -14.23398 -14.18880
 Alpha  occ. eigenvalues --  -10.21099 -10.11861 -10.11382 -10.09778 -10.09728
 Alpha  occ. eigenvalues --  -10.09267 -10.09104 -10.07911 -10.07631 -10.07255
 Alpha  occ. eigenvalues --  -10.07044  -1.01399  -0.95539  -0.92397  -0.78346
 Alpha  occ. eigenvalues --   -0.75451  -0.73610  -0.70532  -0.65941  -0.62956
 Alpha  occ. eigenvalues --   -0.60724  -0.57511  -0.53731  -0.51167  -0.50438
 Alpha  occ. eigenvalues --   -0.46505  -0.45398  -0.42286  -0.41187  -0.40305
 Alpha  occ. eigenvalues --   -0.39532  -0.38717  -0.37978  -0.36163  -0.35216
 Alpha  occ. eigenvalues --   -0.34875  -0.33528  -0.32720  -0.32500  -0.31502
 Alpha  occ. eigenvalues --   -0.30907  -0.30385  -0.29921  -0.29206  -0.27893
 Alpha  occ. eigenvalues --   -0.26749  -0.26272  -0.24138  -0.23282  -0.23027
 Alpha  occ. eigenvalues --   -0.22575  -0.20182  -0.18964  -0.16118  -0.15266
 Alpha  occ. eigenvalues --   -0.14480   0.04083
 Alpha virt. eigenvalues --    0.06491   0.06827   0.07184   0.08110   0.08586
 Alpha virt. eigenvalues --    0.08816   0.09381   0.09725   0.10240   0.10612
 Alpha virt. eigenvalues --    0.11163   0.11533   0.11912   0.12674   0.13347

  Beta  occ. eigenvalues --  -19.06970 -19.02054 -14.29453 -14.23381 -14.18871
  Beta  occ. eigenvalues --  -10.21078 -10.11854 -10.11338 -10.09780 -10.09717
  Beta  occ. eigenvalues --  -10.09245 -10.09079 -10.07882 -10.07629 -10.07248
  Beta  occ. eigenvalues --  -10.07034  -1.01314  -0.95512  -0.92318  -0.78329
  Beta  occ. eigenvalues --   -0.75419  -0.73575  -0.70501  -0.65910  -0.62904
  Beta  occ. eigenvalues --   -0.60672  -0.57460  -0.53643  -0.51153  -0.50358
  Beta  occ. eigenvalues --   -0.46453  -0.45341  -0.42232  -0.41154  -0.40262
  Beta  occ. eigenvalues --   -0.39488  -0.38673  -0.37931  -0.36131  -0.35186
  Beta  occ. eigenvalues --   -0.34800  -0.33495  -0.32682  -0.32461  -0.31454
  Beta  occ. eigenvalues --   -0.30869  -0.30349  -0.29881  -0.29179  -0.27843
  Beta  occ. eigenvalues --   -0.26717  -0.26243  -0.24109  -0.23240  -0.22973
  Beta  occ. eigenvalues --   -0.22529  -0.20152  -0.18905  -0.16065  -0.15199
  Beta  occ. eigenvalues --   -0.14455
  Beta virt. eigenvalues --    0.06430   0.07186   0.07430   0.07853   0.08363
  Beta virt. eigenvalues --    0.08889   0.09075   0.09695   0.09945   0.10598
  Beta virt. eigenvalues --    0.10812   0.11585   0.11672   0.12275   0.12827

 Mulliken charges and spin densities:
               1          2
     1  C    0.838451  -1.163986
     2  N    0.171719   0.106342
     3  C   -0.830034   0.733951
     4  C   -0.072757   0.247606
     5  C   -0.075860  -0.256743
     6  N   -0.193180   0.035668
     7  C    0.514077  -1.569720
     8  C    0.093492  -0.306970
     9  C    0.405575   0.149324
    10  C   -0.412565  -0.151999
    11  C   -0.397364   0.136569
    12  C    0.444453  -0.975221
    13  N   -0.395009   0.047117
    14  C    0.368818  -0.642024
    15  O   -0.303880   0.010890
    16  O   -0.185030   0.082132
    17  H   -0.403948   0.578063
    18  H    0.031462   0.136359
    19  H   -0.176778   0.385644
    20  H   -0.009616   0.152057
    21  H    0.120097   0.025122
    22  H    0.022749   0.151867
    23  H   -0.546304   0.764732
    24  H   -0.328052   0.485516
    25  H    0.265579  -0.036218
    26  H    0.052435   0.217158
    27  H    0.197875   0.017506
    28  H    0.209126  -0.111588
    29  H    0.060303   0.095368
    30  H    0.084594   0.026782
    31  H   -0.235321   0.402686
    32  H   -0.173135   0.332182
    33  H    0.137426   0.089317
    34  H    0.214097   0.018457
    35  H   -0.493494   0.786055
 Sum of Mulliken charges =  -1.00000   1.00000

 Dipole moment (field-independent basis, Debye):
    X=              1.1620    Y=             -5.0079    Z=             -3.2576  Tot=              6.0862
 Quadrupole moment (field-independent basis, Debye-Ang):
   XX=           -167.5447   YY=           -145.1032   ZZ=           -139.0863
   XY=             -2.5386   XZ=             -4.6918   YZ=              1.5649

 Summary of Natural Population Analysis:

                                       Natural Population
                Natural  -----------------------------------------------
    Atom  No    Charge         Core      Valence    Rydberg      Total
 -----------------------------------------------------------------------
      C    1   -0.17595      0.99964     2.16825    0.00806     3.17595
      N    2   -0.10939      0.99961     2.59660    0.01317     3.60939
      C    3    0.09001      0.99952     1.89739    0.01307     2.90999
      C    4   -0.16637      0.99949     2.15958    0.00730     3.16637
      C    5   -0.01821      0.99964     2.00418    0.01440     3.01821
      N    6   -0.15454      0.99974     2.64380    0.01100     3.65454
      C    7   -0.20938      0.99959     2.20001    0.00978     3.20938
      C    8   -0.18884      0.99960     2.17882    0.01042     3.18884
      C    9   -0.16211      0.99953     2.15110    0.01148     3.16211
      C   10   -0.19244      0.99961     2.18487    0.00797     3.19244
      C   11   -0.19521      0.99962     2.18635    0.00924     3.19521
      C   12   -0.09097      0.99964     2.08050    0.01084     3.09097
      N   13   -0.43212      0.99977     2.92239    0.00996     3.93212
      C   14    0.42033      0.99967     1.55458    0.02542     2.57967
      O   15   -0.32129      0.99986     3.31517    0.00626     4.32129
      O   16   -0.34262      0.99988     3.33552    0.00723     4.34262
      H   17    0.10341      0.00000     0.39506    0.00153     0.39659
      H   18    0.10696      0.00000     0.39164    0.00140     0.39304
      H   19    0.10394      0.00000     0.39455    0.00151     0.39606
      H   20    0.10680      0.00000     0.39237    0.00083     0.39320
      H   21    0.09485      0.00000     0.40440    0.00075     0.40515
      H   22    0.10620      0.00000     0.39263    0.00117     0.39380
      H   23    0.11340      0.00000     0.38446    0.00215     0.38660
      H   24    0.10471      0.00000     0.39330    0.00199     0.39529
      H   25    0.11126      0.00000     0.38586    0.00288     0.38874
      H   26    0.12035      0.00000     0.37766    0.00199     0.37965
      H   27    0.10788      0.00000     0.39096    0.00115     0.39212
      H   28    0.09967      0.00000     0.39920    0.00113     0.40033
      H   29    0.09959      0.00000     0.39926    0.00116     0.40041
      H   30    0.09639      0.00000     0.40235    0.00126     0.40361
      H   31    0.08963      0.00000     0.40928    0.00109     0.41037
      H   32    0.07928      0.00000     0.41890    0.00182     0.42072
      H   33    0.17151      0.00000     0.32705    0.00144     0.32849
      H   34    0.18751      0.00000     0.31036    0.00213     0.31249
      H   35    0.24577      0.00000     0.23805    0.01618     0.25423
 =======================================================================
   * Total *    0.00000     15.99440    44.78646    0.21914    61.00000

 Normal termination of Gaussian 16 at Thu Dec 10 22:32:36 2020.
