 Gaussian 16, Revision A.03,

 -----------------------------------------------------------
 # opt freq B3LYP/6-31G(d) empiricaldispersion=gd3bj scf=xqc
 -----------------------------------------------------------

 -------------------------------
 CID_131267910_JID_6209_neutraal
 -------------------------------
 Symbolic Z-matrix:
 Charge =  0 Multiplicity = 1

 SCF Done:  E(RB3LYP) =  -1104.46396263     A.U. after   15 cycles
 SCF Done:  E(RB3LYP) =  -1104.47041567     A.U. after   12 cycles
 SCF Done:  E(RB3LYP) =  -1104.47138736     A.U. after   12 cycles
 SCF Done:  E(RB3LYP) =  -1104.47035123     A.U. after   13 cycles
 SCF Done:  E(RB3LYP) =  -1104.47208832     A.U. after   13 cycles
 SCF Done:  E(RB3LYP) =  -1104.47243924     A.U. after   13 cycles
 SCF Done:  E(RB3LYP) =  -1104.47276505     A.U. after   13 cycles
 SCF Done:  E(RB3LYP) =  -1104.47300266     A.U. after   13 cycles
 SCF Done:  E(RB3LYP) =  -1104.47323024     A.U. after   12 cycles
 SCF Done:  E(RB3LYP) =  -1104.47326830     A.U. after   12 cycles
 SCF Done:  E(RB3LYP) =  -1104.47330919     A.U. after   10 cycles
 SCF Done:  E(RB3LYP) =  -1104.47330940     A.U. after    9 cycles
 SCF Done:  E(RB3LYP) =  -1104.47330941     A.U. after    9 cycles
 SCF Done:  E(RB3LYP) =  -1104.47330945     A.U. after    8 cycles
 SCF Done:  E(RB3LYP) =  -1104.47330946     A.U. after    7 cycles
 Optimization completed.
    -- Stationary point found.
 Normal termination of Gaussian 16 at Thu Dec 10 21:23:34 2020.

 --------------------------------------------------------------------
 #N Geom=AllCheck Guess=TCheck SCRF=Check GenChk RB3LYP/6-31G(d) Freq
 --------------------------------------------------------------------

 Structure from the checkpoint file:  "JID_6209.chk"
 -------------------------------
 CID_131267910_JID_6209_neutraal
 -------------------------------
 Charge =  0 Multiplicity = 1

 SCF Done:  E(RB3LYP) =  -1104.47330946     A.U. after    1 cycles

  Exact polarizability: 201.520  -4.564 139.260  13.482 -13.186  90.392
 Approx polarizability: 289.426  -6.181 257.668  25.978 -40.388 145.490

                      1                      2                      3
                      A                      A                      A
 Frequencies --     25.7436                56.5497                73.2082
 Red. masses --      5.7878                 5.8606                 4.5292
 Frc consts  --      0.0023                 0.0110                 0.0143
 IR Inten    --      0.7559                 0.6074                 0.6161

                      4                      5                      6
                      A                      A                      A
 Frequencies --    115.3534               136.3534               164.6217
 Red. masses --      2.9098                 1.2771                 5.3084
 Frc consts  --      0.0228                 0.0140                 0.0848
 IR Inten    --      1.9049                 0.6111                 0.2644

                      7                      8                      9
                      A                      A                      A
 Frequencies --    192.0933               202.3779               215.7019
 Red. masses --      4.6608                 4.9229                 4.0580
 Frc consts  --      0.1013                 0.1188                 0.1112
 IR Inten    --      3.5735                 1.1537                 1.3478

                     10                     11                     12
                      A                      A                      A
 Frequencies --    232.2903               245.6283               324.7100
 Red. masses --      2.4078                 1.2983                 3.9987
 Frc consts  --      0.0765                 0.0462                 0.2484
 IR Inten    --      0.8876                 0.0494                 1.6328

                     13                     14                     15
                      A                      A                      A
 Frequencies --    338.2337               351.5374               383.5569
 Red. masses --      6.3472                 4.9430                 4.3232
 Frc consts  --      0.4278                 0.3599                 0.3747
 IR Inten    --      6.8369                 0.7538                39.1007

                     16                     17                     18
                      A                      A                      A
 Frequencies --    407.4588               440.9150               468.9550
 Red. masses --      5.7514                 2.7845                 1.4046
 Frc consts  --      0.5626                 0.3189                 0.1820
 IR Inten    --      5.7247                14.6180                89.3665

                     19                     20                     21
                      A                      A                      A
 Frequencies --    493.1633               524.0944               532.8649
 Red. masses --      3.2443                 7.7727                 7.1353
 Frc consts  --      0.4649                 1.2579                 1.1937
 IR Inten    --      1.8174                 0.5536                 3.6859

                     22                     23                     24
                      A                      A                      A
 Frequencies --    560.5984               606.2133               638.4170
 Red. masses --      5.1914                 5.4698                 4.9136
 Frc consts  --      0.9613                 1.1843                 1.1799
 IR Inten    --      2.6374                11.4804                 4.7637

                     25                     26                     27
                      A                      A                      A
 Frequencies --    672.5626               715.3335               752.6203
 Red. masses --      7.6384                 5.3917                 4.6940
 Frc consts  --      2.0357                 1.6255                 1.5665
 IR Inten    --      3.4297                25.4417                 0.6776

                     28                     29                     30
                      A                      A                      A
 Frequencies --    778.2426               796.6619               822.1933
 Red. masses --      5.7820                 5.0035                 4.5439
 Frc consts  --      2.0633                 1.8710                 1.8098
 IR Inten    --      5.8531                14.1297                14.9242

                     31                     32                     33
                      A                      A                      A
 Frequencies --    826.7800               855.5827               881.4346
 Red. masses --      1.3996                 1.5301                 4.1724
 Frc consts  --      0.5637                 0.6599                 1.9099
 IR Inten    --      6.4636                32.2192                14.2981

                     34                     35                     36
                      A                      A                      A
 Frequencies --    918.2037               924.3372               971.1052
 Red. masses --      2.5474                 1.5847                 1.3005
 Frc consts  --      1.2654                 0.7977                 0.7226
 IR Inten    --     14.0480                15.0953                 0.6301

                     37                     38                     39
                      A                      A                      A
 Frequencies --    976.7947              1013.0536              1066.4358
 Red. masses --      2.3397                 4.9214                 2.2847
 Frc consts  --      1.3153                 2.9758                 1.5309
 IR Inten    --     13.4915                23.9049                 1.9555

                     40                     41                     42
                      A                      A                      A
 Frequencies --   1103.8788              1123.6164              1162.8130
 Red. masses --      2.9087                 2.2360                 1.6580
 Frc consts  --      2.0883                 1.6633                 1.3208
 IR Inten    --     11.8317                35.9886                17.8205

                     43                     44                     45
                      A                      A                      A
 Frequencies --   1185.2460              1194.7262              1222.0570
 Red. masses --      1.2756                 2.7529                 1.5315
 Frc consts  --      1.0558                 2.3151                 1.3475
 IR Inten    --      0.7746                99.2254                 2.0415

                     46                     47                     48
                      A                      A                      A
 Frequencies --   1226.7453              1248.0866              1286.8281
 Red. masses --      1.9131                 3.1549                 2.1045
 Frc consts  --      1.6963                 2.8955                 2.0533
 IR Inten    --     56.3052                29.9042               195.4050

                     49                     50                     51
                      A                      A                      A
 Frequencies --   1303.6087              1338.4339              1366.6015
 Red. masses --      2.1656                 1.9323                 6.7418
 Frc consts  --      2.1683                 2.0395                 7.4184
 IR Inten    --    178.2036                 7.2257                 9.5655

                     52                     53                     54
                      A                      A                      A
 Frequencies --   1429.7408              1436.6388              1449.0181
 Red. masses --      1.3738                 1.3745                 3.1023
 Frc consts  --      1.6546                 1.6715                 3.8378
 IR Inten    --     18.4872                32.1847                25.0937

                     55                     56                     57
                      A                      A                      A
 Frequencies --   1492.8342              1497.0099              1513.1656
 Red. masses --      1.2488                 3.0204                 1.0476
 Frc consts  --      1.6396                 3.9881                 1.4132
 IR Inten    --      4.7049                14.0351                 7.3795

                     58                     59                     60
                      A                      A                      A
 Frequencies --   1516.4201              1522.0535              1523.1907
 Red. masses --      1.0997                 1.0520                 1.0557
 Frc consts  --      1.4899                 1.4359                 1.4432
 IR Inten    --     11.8293                 2.4699                 7.9070

                     61                     62                     63
                      A                      A                      A
 Frequencies --   1545.4008              1606.7643              1659.7564
 Red. masses --      7.3539                 5.9039                 6.6457
 Frc consts  --     10.3479                 8.9803                10.7865
 IR Inten    --     63.0409                 3.6524                 8.9019

                     64                     65                     66
                      A                      A                      A
 Frequencies --   1804.5868              3074.1117              3083.9722
 Red. masses --     11.1011                 1.0351                 1.0291
 Frc consts  --     21.2996                 5.7631                 5.7665
 IR Inten    --    193.2954                17.6659                28.6369

                     67                     68                     69
                      A                      A                      A
 Frequencies --   3147.3465              3163.5256              3167.7042
 Red. masses --      1.1037                 1.1082                 1.1026
 Frc consts  --      6.4413                 6.5342                 6.5189
 IR Inten    --     22.0786                16.5145                11.9706

                     70                     71                     72
                      A                      A                      A
 Frequencies --   3193.8843              3213.2963              3229.2565
 Red. masses --      1.1079                 1.0880                 1.0938
 Frc consts  --      6.6586                 6.6190                 6.7202
 IR Inten    --     11.8556                 2.7504                 7.2973

                     73                     74                     75
                      A                      A                      A
 Frequencies --   3238.4932              3242.4956              3640.2255
 Red. masses --      1.0940                 1.0904                 1.0647
 Frc consts  --      6.7602                 6.7547                 8.3129
 IR Inten    --      1.8384                 0.5682                85.8210

 - Thermochemistry -
 -------------------
 Temperature   298.150 Kelvin.  Pressure   1.00000 Atm.
 Atom     1 has atomic number  6 and mass  12.00000

 Molecular mass:   237.04597 amu.
 Principal axes and moments of inertia in atomic units:
                           1         2         3
     Eigenvalues --  1758.959576731.602767416.15089
           X            0.99998  -0.00676   0.00164
           Y            0.00671   0.99955   0.02917
           Z           -0.00184  -0.02916   0.99957
 This molecule is an asymmetric top.
 Rotational symmetry number  1.
 Warning -- assumption of classical behavior for rotation
           may cause significant error
 Rotational temperatures (Kelvin)      0.04924     0.01287     0.01168
 Rotational constants (GHZ):           1.02603     0.26810     0.24335
 Zero-point vibrational energy     543436.7 (Joules/Mol)
                                  129.88448 (Kcal/Mol)
 Warning -- explicit consideration of  23 degrees of freedom as
           vibrations may cause significant error
 Vibrational temperatures:     37.04    81.36   105.33   165.97   196.18
          (Kelvin)            236.85   276.38   291.18   310.35   334.21
                              353.40   467.19   486.64   505.78   551.85
                              586.24   634.38   674.72   709.55   754.05
                              766.67   806.58   872.21   918.54   967.67
                             1029.21  1082.85  1119.72  1146.22  1182.95
                             1189.55  1230.99  1268.19  1321.09  1329.92
                             1397.20  1405.39  1457.56  1534.36  1588.24
                             1616.63  1673.03  1705.30  1718.94  1758.27
                             1765.01  1795.72  1851.46  1875.60  1925.71
                             1966.23  2057.08  2067.00  2084.81  2147.86
                             2153.86  2177.11  2181.79  2189.90  2191.53
                             2223.49  2311.78  2388.02  2596.40  4422.96
                             4437.15  4528.33  4551.61  4557.62  4595.29
                             4623.22  4646.18  4659.47  4665.23  5237.47

 Zero-point correction=                           0.206984 (Hartree/Particle)
 Thermal correction to Energy=                    0.221606
 Thermal correction to Enthalpy=                  0.222550
 Thermal correction to Gibbs Free Energy=         0.164585
 Sum of electronic and zero-point Energies=          -1104.266325
 Sum of electronic and thermal Energies=             -1104.251704
 Sum of electronic and thermal Enthalpies=           -1104.250759
 Sum of electronic and thermal Free Energies=        -1104.308724

                     E (Thermal)             CV                S
                      KCal/Mol        Cal/Mol-Kelvin    Cal/Mol-Kelvin
 Total                  139.060             55.565            121.997
 Electronic               0.000              0.000              0.000
 Translational            0.889              2.981             42.291
 Rotational               0.889              2.981             32.840
 Vibrational            137.282             49.604             46.866
 Vibration     1          0.593              1.985              6.133
 Vibration     2          0.596              1.975              4.574
 Vibration     3          0.599              1.967              4.065
 Vibration     4          0.608              1.937              3.177
 Vibration     5          0.614              1.917              2.854
 Vibration     6          0.623              1.886              2.496
 Vibration     7          0.634              1.851              2.208
 Vibration     8          0.639              1.837              2.111
 Vibration     9          0.645              1.817              1.995
 Vibration    10          0.653              1.792              1.861
 Vibration    11          0.660              1.770              1.762
 Vibration    12          0.709              1.626              1.286
 Vibration    13          0.719              1.599              1.220
 Vibration    14          0.728              1.572              1.159
 Vibration    15          0.753              1.505              1.025
 Vibration    16          0.772              1.454              0.936
 Vibration    17          0.801              1.381              0.824
 Vibration    18          0.826              1.319              0.740
 Vibration    19          0.849              1.265              0.675
 Vibration    20          0.879              1.197              0.601
 Vibration    21          0.888              1.177              0.581
 Vibration    22          0.916              1.117              0.523
 Vibration    23          0.965              1.019              0.439

 Optimization completed.
    -- Stationary point found.
 Normal termination of Gaussian 16 at Thu Dec 10 21:32:52 2020.

 ----------------------------------------------------------------------
 # B3LYP/6-311++G(d,p) empiricaldispersion=gd3bj scf=xqc pop=npa geom=c
 heck
 ----------------------------------------------------------------------

 ---------------------------------------
 CID_131267910_JID_6209_Energie_neutraal
 ---------------------------------------
 Structure from the checkpoint file:  "JID_6209.chk"
 Charge =  0 Multiplicity = 1

 SCF Done:  E(RB3LYP) =  -1104.70096598     A.U. after   15 cycles
 Normal termination of Gaussian 16 at Thu Dec 10 21:37:10 2020.

 ----------------------------------------------------------------------
 # B3LYP/6-311++G(d,p) empiricaldispersion=gd3bj scf=xqc pop=npa geom=c
 heck
 ----------------------------------------------------------------------

 -------------------------------------
 CID_131267910_JID_6209_Energie_kation
 -------------------------------------
 Structure from the checkpoint file:  "JID_6209.chk"
 Charge =  1 Multiplicity = 2

 SCF Done:  E(UB3LYP) =  -1104.38955426     A.U. after   33 cycles
 SCF Done:  E(UB3LYP) =  -1104.38955426     a.u. after    1 cycles
 Normal termination of Gaussian 16 at Thu Dec 10 21:50:24 2020.
 Gaussian 16:  ES64L-G16RevA.03 25-Dec-2016

 ----------------------------------------------------------------------
 # B3LYP/6-311++G(d,p) empiricaldispersion=gd3bj scf=xqc pop=npa geom=c
 heck
 ----------------------------------------------------------------------

 ------------------------------------
 CID_131267910_JID_6209_Energie_anion
 ------------------------------------
 Structure from the checkpoint file:  "JID_6209.chk"
 Charge = -1 Multiplicity = 2

                         Standard orientation:
 ---------------------------------------------------------------------
 Center     Atomic      Atomic             Coordinates (Angstroms)
 Number     Number       Type             X           Y           Z
 ---------------------------------------------------------------------
      1          6           0       -2.232040   -0.814581   -1.961784
      2          6           0       -1.708780   -0.869765   -0.521746
      3          6           0       -0.328644   -0.196433   -0.404284
      4          6           0        0.761020   -0.962592    0.000906
      5          6           0        2.011517   -0.349544    0.083986
      6          6           0        2.192864    1.018801   -0.227570
      7          6           0        1.086581    1.777805   -0.632245
      8          6           0       -0.156617    1.169481   -0.716971
      9          7           0        3.492023    1.492857   -0.098715
     10          6           0        4.280467    0.546675    0.290860
     11         16           0        3.552463   -1.043243    0.552543
     12          6           0       -2.663524   -0.178631    0.467257
     13          8           0       -2.950998   -0.673226    1.539829
     14          8           0       -3.116718    1.006189    0.041738
     15          6           0       -3.951969    1.721203    0.973730
     16          8           0       -1.649531   -2.232086   -0.141512
     17          1           0       -2.280731    0.210964   -2.332220
     18          1           0       -3.228039   -1.264178   -2.014327
     19          1           0       -1.553791   -1.390221   -2.597407
     20          1           0        0.617324   -2.011704    0.226637
     21          1           0        1.221025    2.827522   -0.871616
     22          1           0       -1.015513    1.757650   -1.019534
     23          1           0        5.343151    0.680350    0.460453
     24          1           0       -4.837415    1.129977    1.217183
     25          1           0       -3.396189    1.933998    1.889875
     26          1           0       -4.228866    2.643916    0.465021
     27          1           0       -1.931794   -2.257903    0.792978
 ---------------------------------------------------------------------

 SCF Done:  E(UB3LYP) =  -1104.70053633     A.U. after   31 cycles

 The electronic state is 2-A.
 Alpha  occ. eigenvalues --  -88.74883 -19.07257 -19.01531 -19.01186 -14.18263
 Alpha  occ. eigenvalues --  -10.19223 -10.13798 -10.12970 -10.09287 -10.08180
 Alpha  occ. eigenvalues --  -10.07387 -10.05866 -10.05454 -10.05272 -10.04984
 Alpha  occ. eigenvalues --  -10.04795  -7.83557  -5.79841  -5.79518  -5.79130
 Alpha  occ. eigenvalues --   -1.01437  -0.93770  -0.91149  -0.83335  -0.73176
 Alpha  occ. eigenvalues --   -0.68176  -0.67062  -0.63060  -0.61188  -0.60317
 Alpha  occ. eigenvalues --   -0.54034  -0.49664  -0.48434  -0.45855  -0.45321
 Alpha  occ. eigenvalues --   -0.44005  -0.39696  -0.38485  -0.37131  -0.36634
 Alpha  occ. eigenvalues --   -0.36177  -0.34273  -0.32011  -0.31658  -0.29922
 Alpha  occ. eigenvalues --   -0.29733  -0.29459  -0.29325  -0.28147  -0.27345
 Alpha  occ. eigenvalues --   -0.27056  -0.24804  -0.24348  -0.22114  -0.21663
 Alpha  occ. eigenvalues --   -0.21329  -0.18948  -0.18068  -0.17405  -0.15179
 Alpha  occ. eigenvalues --   -0.12004  -0.11535   0.04415
 Alpha virt. eigenvalues --    0.06089   0.08343   0.08634   0.08983   0.09761
 Alpha virt. eigenvalues --    0.09942   0.10357   0.10775   0.11143   0.11554
 Alpha virt. eigenvalues --    0.12188   0.12559   0.13018   0.13603   0.13980

  Beta  occ. eigenvalues --  -88.74856 -19.07222 -19.01529 -19.01082 -14.18231
  Beta  occ. eigenvalues --  -10.19108 -10.13825 -10.12939 -10.08880 -10.08185
  Beta  occ. eigenvalues --  -10.07288 -10.05816 -10.05336 -10.05252 -10.04894
  Beta  occ. eigenvalues --  -10.04680  -7.83533  -5.79831  -5.79511  -5.79034
  Beta  occ. eigenvalues --   -1.01314  -0.93700  -0.91048  -0.83030  -0.72952
  Beta  occ. eigenvalues --   -0.68046  -0.66867  -0.62911  -0.60991  -0.60032
  Beta  occ. eigenvalues --   -0.53859  -0.49266  -0.48298  -0.45676  -0.45091
  Beta  occ. eigenvalues --   -0.43959  -0.39465  -0.38326  -0.37034  -0.36496
  Beta  occ. eigenvalues --   -0.35986  -0.34184  -0.31850  -0.31546  -0.29774
  Beta  occ. eigenvalues --   -0.29490  -0.29289  -0.28754  -0.27996  -0.27248
  Beta  occ. eigenvalues --   -0.26971  -0.24703  -0.24193  -0.21637  -0.21274
  Beta  occ. eigenvalues --   -0.21003  -0.18779  -0.17538  -0.17302  -0.15103
  Beta  occ. eigenvalues --   -0.11265  -0.10474
  Beta virt. eigenvalues --    0.06785   0.08353   0.08615   0.08986   0.09404
  Beta virt. eigenvalues --    0.09838   0.10478   0.10931   0.11170   0.11303
  Beta virt. eigenvalues --    0.11723   0.12293   0.12568   0.13005   0.13573

 Mulliken charges and spin densities:
               1          2
     1  C   -0.120577  -0.420148
     2  C   -0.216559   0.104279
     3  C    1.099515   0.006801
     4  C   -0.160863   0.082373
     5  C    1.414315   0.073592
     6  C   -1.380106  -0.004272
     7  C   -0.640360   0.041350
     8  C   -0.627248  -0.044033
     9  N   -0.005694  -0.005199
    10  C    0.104745   0.309543
    11  S   -0.687980   0.019435
    12  C   -0.361181   0.269766
    13  O   -0.301617   0.031397
    14  O   -0.078844   0.041850
    15  C    0.582628  -0.828924
    16  O   -0.228303  -0.003152
    17  H    0.057181   0.095896
    18  H   -0.033215   0.201580
    19  H    0.169344  -0.009722
    20  H    0.175959   0.001065
    21  H    0.117671   0.028729
    22  H    0.212807  -0.049944
    23  H    0.221756  -0.020071
    24  H   -0.235341   0.405887
    25  H    0.030045   0.154076
    26  H   -0.345478   0.494294
    27  H    0.237401   0.023553
 Sum of Mulliken charges =  -1.00000   1.00000

 Dipole moment (field-independent basis, Debye):
    X=              0.8114    Y=             -1.5754    Z=             -0.5048  Tot=              1.8426
 Quadrupole moment (field-independent basis, Debye-Ang):
   XX=           -166.8261   YY=           -127.2483   ZZ=           -118.6430
   XY=             -2.6105   XZ=              4.2449   YZ=             -1.4468

 Summary of Natural Population Analysis:

                                       Natural Population
                Natural  -----------------------------------------------
    Atom  No    Charge         Core      Valence    Rydberg      Total
 -----------------------------------------------------------------------
      C    1   -0.28129      0.99963     2.27382    0.00784     3.28129
      C    2    0.09107      0.99947     1.89309    0.01637     2.90893
      C    3   -0.00098      0.99947     1.98880    0.01270     3.00098
      C    4   -0.09566      0.99945     2.08668    0.00953     3.09566
      C    5   -0.10065      0.99940     2.09094    0.01031     3.10065
      C    6    0.06158      0.99942     1.92178    0.01722     2.93842
      C    7   -0.07587      0.99952     2.06796    0.00839     3.07587
      C    8   -0.12063      0.99953     2.11130    0.00980     3.12063
      N    9   -0.24080      0.99967     2.73065    0.01049     3.74080
      C   10    0.03577      0.99966     1.94870    0.01588     2.96423
      S   11    0.15261      4.99948     2.82772    0.02019     7.84739
      C   12    0.42498      0.99963     1.54866    0.02674     2.57502
      O   13   -0.31390      0.99987     3.30822    0.00582     4.31390
      O   14   -0.27476      0.99985     3.26583    0.00908     4.27476
      C   15   -0.10504      0.99959     2.09614    0.00931     3.10504
      O   16   -0.37740      0.99989     3.37089    0.00662     4.37740
      H   17    0.10421      0.00000     0.39478    0.00100     0.39579
      H   18    0.09981      0.00000     0.39901    0.00117     0.40019
      H   19    0.10331      0.00000     0.39588    0.00081     0.39669
      H   20    0.10940      0.00000     0.38935    0.00126     0.39060
      H   21    0.09854      0.00000     0.39965    0.00181     0.40146
      H   22    0.10334      0.00000     0.39545    0.00121     0.39666
      H   23    0.08498      0.00000     0.41378    0.00124     0.41502
      H   24    0.09285      0.00000     0.40551    0.00164     0.40715
      H   25    0.09186      0.00000     0.40719    0.00095     0.40814
      H   26    0.09235      0.00000     0.40633    0.00132     0.40765
      H   27    0.24031      0.00000     0.25677    0.00292     0.25969
 =======================================================================
   * Total *   -0.00000     19.99353    41.79486    0.21162    62.00000

 Normal termination of Gaussian 16 at Thu Dec 10 22:02:55 2020.
