 Gaussian 16, Revision A.03,

 -----------------------------------------------------------
 # opt freq B3LYP/6-31G(d) empiricaldispersion=gd3bj scf=xqc
 -----------------------------------------------------------

 -------------------------------
 CID_154236295_JID_7997_neutraal
 -------------------------------
 Symbolic Z-matrix:
 Charge =  0 Multiplicity = 1

 SCF Done:  E(RB3LYP) =  -745.350265093     A.U. after   16 cycles
 SCF Done:  E(RB3LYP) =  -745.355124752     A.U. after   13 cycles
 SCF Done:  E(RB3LYP) =  -745.351774748     A.U. after   13 cycles
 SCF Done:  E(RB3LYP) =  -745.355730334     A.U. after   13 cycles
 SCF Done:  E(RB3LYP) =  -745.356311660     A.U. after   13 cycles
 SCF Done:  E(RB3LYP) =  -745.356669432     A.U. after   12 cycles
 SCF Done:  E(RB3LYP) =  -745.356791095     A.U. after   12 cycles
 SCF Done:  E(RB3LYP) =  -745.356829407     A.U. after   11 cycles
 SCF Done:  E(RB3LYP) =  -745.356835372     A.U. after   10 cycles
 SCF Done:  E(RB3LYP) =  -745.356836236     A.U. after    9 cycles
 SCF Done:  E(RB3LYP) =  -745.356836331     A.U. after    7 cycles
 Optimization completed.
    -- Stationary point found.
 Normal termination of Gaussian 16 at Fri Dec 11 13:26:58 2020.

 --------------------------------------------------------------------
 #N Geom=AllCheck Guess=TCheck SCRF=Check GenChk RB3LYP/6-31G(d) Freq
 --------------------------------------------------------------------

 Structure from the checkpoint file:  "JID_7997.chk"
 -------------------------------
 CID_154236295_JID_7997_neutraal
 -------------------------------
 Charge =  0 Multiplicity = 1

 SCF Done:  E(RB3LYP) =  -745.356836331     A.U. after    1 cycles

  Exact polarizability: 245.942  -9.938 178.231   2.279   0.070  64.288
 Approx polarizability: 370.482 -18.152 325.814   4.753  -5.933 102.837

                      1                      2                      3
                      A                      A                      A
 Frequencies --     57.8851                76.0603               110.7171
 Red. masses --      5.9281                 6.2721                 3.7644
 Frc consts  --      0.0117                 0.0214                 0.0272
 IR Inten    --      1.7867                 1.4377                 1.2287

                      4                      5                      6
                      A                      A                      A
 Frequencies --    138.1339               200.9389               226.2035
 Red. masses --      4.4105                 2.7289                 6.1288
 Frc consts  --      0.0496                 0.0649                 0.1848
 IR Inten    --      2.1716                 4.7721                 2.8645

                      7                      8                      9
                      A                      A                      A
 Frequencies --    241.4917               264.4445               287.1975
 Red. masses --      3.1059                 2.8832                 4.9149
 Frc consts  --      0.1067                 0.1188                 0.2388
 IR Inten    --      2.0301                 1.4872                 0.4670

                     10                     11                     12
                      A                      A                      A
 Frequencies --    296.6779               335.5441               350.6488
 Red. masses --      1.5802                 4.0888                 3.2501
 Frc consts  --      0.0819                 0.2712                 0.2354
 IR Inten    --      4.0723                 0.5818                 0.6971

                     13                     14                     15
                      A                      A                      A
 Frequencies --    386.4879               444.8458               451.7686
 Red. masses --      6.3448                 4.0465                 5.2691
 Frc consts  --      0.5584                 0.4718                 0.6336
 IR Inten    --      2.2267                 1.6379                 0.7772

                     16                     17                     18
                      A                      A                      A
 Frequencies --    490.1979               506.4122               553.9058
 Red. masses --      5.0071                 4.6282                 4.6985
 Frc consts  --      0.7089                 0.6993                 0.8493
 IR Inten    --      1.5970                 8.9976                 0.1704

                     19                     20                     21
                      A                      A                      A
 Frequencies --    566.1483               570.5904               582.2820
 Red. masses --      5.7372                 4.2288                 5.8666
 Frc consts  --      1.0834                 0.8112                 1.1719
 IR Inten    --      1.7230                 1.9586                 0.4246

                     22                     23                     24
                      A                      A                      A
 Frequencies --    641.3701               665.0556               686.2557
 Red. masses --      6.9090                 6.4808                 5.4724
 Frc consts  --      1.6745                 1.6889                 1.5184
 IR Inten    --     14.1962                 1.5945                26.2123

                     25                     26                     27
                      A                      A                      A
 Frequencies --    712.8169               728.8856               761.5548
 Red. masses --      5.0873                 4.4295                 1.2422
 Frc consts  --      1.5230                 1.3865                 0.4245
 IR Inten    --      3.0040                 5.4498                58.2840

                     28                     29                     30
                      A                      A                      A
 Frequencies --    782.2875               804.1172               853.3114
 Red. masses --      1.4209                 5.5765                 4.0904
 Frc consts  --      0.5123                 2.1245                 1.7548
 IR Inten    --     32.6349                45.9387                11.4139

                     31                     32                     33
                      A                      A                      A
 Frequencies --    860.6269               900.3508               905.8345
 Red. masses --      1.4777                 2.4045                 1.8727
 Frc consts  --      0.6449                 1.1484                 0.9053
 IR Inten    --      2.0681                 1.3961                 1.2665

                     34                     35                     36
                      A                      A                      A
 Frequencies --    923.3134               952.9481               962.2059
 Red. masses --      1.3463                 1.2558                 1.2246
 Frc consts  --      0.6762                 0.6719                 0.6680
 IR Inten    --      4.0638                 1.1632                 0.0092

                     37                     38                     39
                      A                      A                      A
 Frequencies --   1019.3309              1036.2477              1068.2853
 Red. masses --      1.7867                 5.0361                 2.1946
 Frc consts  --      1.0938                 3.1862                 1.4756
 IR Inten    --      1.0881                27.2086                 4.1439

                     40                     41                     42
                      A                      A                      A
 Frequencies --   1096.2279              1115.5858              1147.6283
 Red. masses --      3.9801                 1.9131                 1.5307
 Frc consts  --      2.8181                 1.4028                 1.1878
 IR Inten    --      4.8420                16.5106                 9.4241

                     43                     44                     45
                      A                      A                      A
 Frequencies --   1161.1829              1163.7073              1192.6485
 Red. masses --      1.4085                 1.4762                 1.1112
 Frc consts  --      1.1189                 1.1778                 0.9312
 IR Inten    --      3.9933                12.7287                 1.1400

                     46                     47                     48
                      A                      A                      A
 Frequencies --   1199.4660              1236.7990              1245.1457
 Red. masses --      1.3254                 2.0798                 3.3912
 Frc consts  --      1.1235                 1.8745                 3.0977
 IR Inten    --      1.1814                20.5467                57.9214

                     49                     50                     51
                      A                      A                      A
 Frequencies --   1297.1131              1313.5205              1341.1440
 Red. masses --      2.5702                 2.1187                 4.7744
 Frc consts  --      2.5478                 2.1538                 5.0597
 IR Inten    --    127.6472               162.2655               126.7437

                     52                     53                     54
                      A                      A                      A
 Frequencies --   1354.9842              1387.1731              1404.0941
 Red. masses --      4.2899                 6.9921                 3.2450
 Frc consts  --      4.6405                 7.9272                 3.7693
 IR Inten    --     87.5504                30.8323                 5.7750

                     55                     56                     57
                      A                      A                      A
 Frequencies --   1451.3946              1480.2157              1498.2798
 Red. masses --      1.4714                 1.2655                 2.1330
 Frc consts  --      1.8262                 1.6337                 2.8211
 IR Inten    --    175.6502                22.4057                 9.3192

                     58                     59                     60
                      A                      A                      A
 Frequencies --   1510.2099              1515.4533              1518.9564
 Red. masses --      1.3277                 1.9721                 1.7011
 Frc consts  --      1.7842                 2.6685                 2.3124
 IR Inten    --     79.5262               107.2348               122.0406

                     61                     62                     63
                      A                      A                      A
 Frequencies --   1540.8145              1557.3942              1608.1925
 Red. masses --      1.3586                 2.9607                 5.8079
 Frc consts  --      1.9004                 4.2309                 8.8500
 IR Inten    --    265.5294                53.0676                12.5697

                     64                     65                     66
                      A                      A                      A
 Frequencies --   1649.7250              1657.4283              1684.3354
 Red. masses --      6.1494                 7.0869                 7.0071
 Frc consts  --      9.8607                11.4704                11.7124
 IR Inten    --     11.2748                 2.6133                11.8400

                     67                     68                     69
                      A                      A                      A
 Frequencies --   1781.3097              2904.9929              3062.4652
 Red. masses --      9.4563                 1.0827                 1.0344
 Frc consts  --     17.6786                 5.3832                 5.7158
 IR Inten    --    216.9633               162.9242                42.8712

                     70                     71                     72
                      A                      A                      A
 Frequencies --   3139.7585              3152.6332              3187.6795
 Red. masses --      1.1020                 1.1053                 1.0876
 Frc consts  --      6.4007                 6.4724                 6.5113
 IR Inten    --     16.9134                 8.6743                 5.9681

                     73                     74                     75
                      A                      A                      A
 Frequencies --   3196.8506              3210.0541              3210.8374
 Red. masses --      1.0858                 1.0904                 1.0899
 Frc consts  --      6.5380                 6.6198                 6.6203
 IR Inten    --      1.8881                19.4580                10.9643

                     76                     77                     78
                      A                      A                      A
 Frequencies --   3220.8742              3224.5618              3225.9140
 Red. masses --      1.0928                 1.0959                 1.0962
 Frc consts  --      6.6795                 6.7135                 6.7214
 IR Inten    --     12.8315                11.4167                 7.3963

 - Thermochemistry -
 -------------------
 Temperature   298.150 Kelvin.  Pressure   1.00000 Atm.
 Atom     1 has atomic number  6 and mass  12.00000

 Molecular mass:   225.07898 amu.
 Principal axes and moments of inertia in atomic units:
                           1         2         3
     Eigenvalues --  2066.289734506.350626274.37932
           X            0.99990  -0.01396   0.00264
           Y            0.01391   0.99976   0.01676
           Z           -0.00288  -0.01672   0.99986
 This molecule is an asymmetric top.
 Rotational symmetry number  1.
 Warning -- assumption of classical behavior for rotation
           may cause significant error
 Rotational temperatures (Kelvin)      0.04192     0.01922     0.01380
 Rotational constants (GHZ):           0.87342     0.40049     0.28764
 Zero-point vibrational energy     575703.6 (Joules/Mol)
                                  137.59647 (Kcal/Mol)
 Warning -- explicit consideration of  21 degrees of freedom as
           vibrations may cause significant error
 Vibrational temperatures:     83.28   109.43   159.30   198.74   289.11
          (Kelvin)            325.46   347.45   380.48   413.21   426.85
                              482.77   504.51   556.07   640.03   649.99
                              705.29   728.61   796.95   814.56   820.95
                              837.77   922.79   956.87   987.37  1025.58
                             1048.70  1095.71  1125.54  1156.95  1227.72
                             1238.25  1295.40  1303.29  1328.44  1371.08
                             1384.40  1466.59  1490.93  1537.02  1577.23
                             1605.08  1651.18  1670.68  1674.32  1715.96
                             1725.76  1779.48  1791.49  1866.26  1889.86
                             1929.61  1949.52  1995.83  2020.18  2088.23
                             2129.70  2155.69  2172.86  2180.40  2185.44
                             2216.89  2240.74  2313.83  2373.59  2384.67
                             2423.38  2562.91  4179.64  4406.20  4517.41
                             4535.94  4586.36  4599.56  4618.55  4619.68
                             4634.12  4639.43  4641.37

 Zero-point correction=                           0.219274 (Hartree/Particle)
 Thermal correction to Energy=                    0.232332
 Thermal correction to Enthalpy=                  0.233276
 Thermal correction to Gibbs Free Energy=         0.180019
 Sum of electronic and zero-point Energies=           -745.137562
 Sum of electronic and thermal Energies=              -745.124504
 Sum of electronic and thermal Enthalpies=            -745.123560
 Sum of electronic and thermal Free Energies=         -745.176818

                     E (Thermal)             CV                S
                      KCal/Mol        Cal/Mol-Kelvin    Cal/Mol-Kelvin
 Total                  145.791             52.936            112.090
 Electronic               0.000              0.000              0.000
 Translational            0.889              2.981             42.136
 Rotational               0.889              2.981             32.435
 Vibrational            144.013             46.975             37.519
 Vibration     1          0.596              1.974              4.528
 Vibration     2          0.599              1.965              3.990
 Vibration     3          0.607              1.941              3.256
 Vibration     4          0.614              1.915              2.830
 Vibration     5          0.638              1.839              2.124
 Vibration     6          0.650              1.801              1.909
 Vibration     7          0.658              1.777              1.792
 Vibration     8          0.671              1.738              1.632
 Vibration     9          0.684              1.697              1.490
 Vibration    10          0.690              1.680              1.436
 Vibration    11          0.717              1.605              1.233
 Vibration    12          0.728              1.574              1.163
 Vibration    13          0.755              1.499              1.014
 Vibration    14          0.804              1.372              0.812
 Vibration    15          0.810              1.357              0.790
 Vibration    16          0.846              1.272              0.683
 Vibration    17          0.862              1.236              0.642
 Vibration    18          0.909              1.131              0.536
 Vibration    19          0.922              1.104              0.512
 Vibration    20          0.927              1.095              0.503
 Vibration    21          0.939              1.070              0.481

                           ! Non-Optimized Parameters !
 Normal termination of Gaussian 16 at Fri Dec 11 13:37:13 2020.

 ----------------------------------------------------------------------
 # B3LYP/6-311++G(d,p) empiricaldispersion=gd3bj scf=xqc pop=npa geom=c
 heck
 ----------------------------------------------------------------------

 ---------------------------------------
 CID_154236295_JID_7997_Energie_neutraal
 ---------------------------------------
 Structure from the checkpoint file:  "JID_7997.chk"
 Charge =  0 Multiplicity = 1

 SCF Done:  E(RB3LYP) =  -745.550644865     A.U. after   16 cycles
 Normal termination of Gaussian 16 at Fri Dec 11 13:41:13 2020.

 ----------------------------------------------------------------------
 # B3LYP/6-311++G(d,p) empiricaldispersion=gd3bj scf=xqc pop=npa geom=c
 heck
 ----------------------------------------------------------------------

 -------------------------------------
 CID_154236295_JID_7997_Energie_kation
 -------------------------------------
 Structure from the checkpoint file:  "JID_7997.chk"
 Charge =  1 Multiplicity = 2

 SCF Done:  E(UB3LYP) =  -745.295115860     A.U. after   23 cycles
 Normal termination of Gaussian 16 at Fri Dec 11 13:49:04 2020.
 Gaussian 16:  ES64L-G16RevA.03 25-Dec-2016

 ----------------------------------------------------------------------
 # B3LYP/6-311++G(d,p) empiricaldispersion=gd3bj scf=xqc pop=npa geom=c
 heck
 ----------------------------------------------------------------------

 ------------------------------------
 CID_154236295_JID_7997_Energie_anion
 ------------------------------------
 Structure from the checkpoint file:  "JID_7997.chk"
 Charge = -1 Multiplicity = 2

                         Standard orientation:
 ---------------------------------------------------------------------
 Center     Atomic      Atomic             Coordinates (Angstroms)
 Number     Number       Type             X           Y           Z
 ---------------------------------------------------------------------
      1          6           0        0.128154    2.109417    1.114681
      2          7           0       -0.079266    0.865880    0.384508
      3          6           0       -1.397982    0.454950    0.111108
      4          6           0       -2.445198    1.359337   -0.078282
      5          6           0       -3.742736    0.896578   -0.316668
      6          6           0       -4.000466   -0.469691   -0.386966
      7          6           0       -2.955813   -1.383552   -0.215115
      8          6           0       -1.675788   -0.917528    0.039086
      9          8           0       -0.677148   -1.844494    0.265516
     10          6           0        0.626868   -1.416606    0.131891
     11          6           0        1.601992   -2.394154    0.040958
     12          6           0        2.953574   -2.034894   -0.048361
     13          6           0        3.289188   -0.695805   -0.108459
     14          6           0        2.303501    0.316067   -0.065766
     15          6           0        0.946785   -0.040162    0.143605
     16          6           0        2.769453    1.661035   -0.443131
     17          8           0        2.088210    2.615519   -0.777979
     18          1           0       -0.701604    2.236328    1.817368
     19          1           0        0.204001    2.976201    0.454784
     20          1           0        1.059307    2.034168    1.680254
     21          1           0       -2.242869    2.424083   -0.043826
     22          1           0       -4.546291    1.613618   -0.453177
     23          1           0       -5.006230   -0.832176   -0.574215
     24          1           0       -3.120683   -2.455208   -0.254552
     25          1           0        1.288837   -3.432615    0.071689
     26          1           0        3.717765   -2.803806   -0.090906
     27          1           0        4.325918   -0.395440   -0.235149
     28          1           0        3.879028    1.735526   -0.475613
 ---------------------------------------------------------------------

 SCF Done:  E(UB3LYP) =  -745.565774433     A.U. after   27 cycles

 The electronic state is 2-A.
 Alpha  occ. eigenvalues --  -19.04420 -18.92030 -14.21531 -10.12153 -10.10096
 Alpha  occ. eigenvalues --  -10.09443 -10.07068 -10.06695 -10.06563 -10.06530
 Alpha  occ. eigenvalues --  -10.06427 -10.06297 -10.05904 -10.02884 -10.02713
 Alpha  occ. eigenvalues --  -10.02200 -10.02157  -0.96693  -0.86030  -0.83356
 Alpha  occ. eigenvalues --   -0.74828  -0.70751  -0.64936  -0.63951  -0.61569
 Alpha  occ. eigenvalues --   -0.61069  -0.55634  -0.52988  -0.49759  -0.48973
 Alpha  occ. eigenvalues --   -0.45144  -0.44214  -0.41876  -0.37879  -0.37796
 Alpha  occ. eigenvalues --   -0.35653  -0.34876  -0.33791  -0.33224  -0.32114
 Alpha  occ. eigenvalues --   -0.31168  -0.30936  -0.29334  -0.27852  -0.27535
 Alpha  occ. eigenvalues --   -0.26678  -0.25776  -0.25224  -0.23939  -0.23479
 Alpha  occ. eigenvalues --   -0.22598  -0.21753  -0.20260  -0.18605  -0.14296
 Alpha  occ. eigenvalues --   -0.13533  -0.10637  -0.08358  -0.05635   0.04327
 Alpha virt. eigenvalues --    0.07491   0.09042   0.09262   0.09634   0.10024
 Alpha virt. eigenvalues --    0.10126   0.10710   0.11580   0.12356   0.12749
 Alpha virt. eigenvalues --    0.13773   0.14190   0.14475   0.14880   0.15464

  Beta  occ. eigenvalues --  -19.04421 -18.91446 -14.21507 -10.12131 -10.10055
  Beta  occ. eigenvalues --  -10.09565 -10.07061 -10.06705 -10.06568 -10.06380
  Beta  occ. eigenvalues --  -10.06282 -10.06173 -10.05581 -10.02907 -10.02607
  Beta  occ. eigenvalues --  -10.02092 -10.01875  -0.96695  -0.85022  -0.83123
  Beta  occ. eigenvalues --   -0.74729  -0.70474  -0.64849  -0.63833  -0.61261
  Beta  occ. eigenvalues --   -0.60686  -0.55503  -0.52745  -0.49724  -0.48226
  Beta  occ. eigenvalues --   -0.45028  -0.44139  -0.41493  -0.37684  -0.37633
  Beta  occ. eigenvalues --   -0.35568  -0.34680  -0.33682  -0.33125  -0.32030
  Beta  occ. eigenvalues --   -0.31024  -0.30845  -0.29076  -0.27686  -0.27357
  Beta  occ. eigenvalues --   -0.26508  -0.25447  -0.25022  -0.23360  -0.22556
  Beta  occ. eigenvalues --   -0.22407  -0.21526  -0.18281  -0.18197  -0.14058
  Beta  occ. eigenvalues --   -0.12796  -0.09094  -0.07837  -0.05072
  Beta virt. eigenvalues --    0.07469   0.09009   0.09229   0.09662   0.09952
  Beta virt. eigenvalues --    0.10059   0.10686   0.11182   0.11571   0.12339
  Beta virt. eigenvalues --    0.12725   0.13748   0.14484   0.14521   0.14840

 Mulliken charges and spin densities:
               1          2
     1  C   -0.435769  -0.009420
     2  N    0.348550   0.000984
     3  C    0.157896   0.004514
     4  C   -0.065063   0.022746
     5  C   -0.264446  -0.007194
     6  C   -0.374889   0.039135
     7  C   -0.201185  -0.012125
     8  C   -0.102125   0.025221
     9  O   -0.132123   0.003060
    10  C   -0.219542  -0.068511
    11  C   -0.370059   0.259099
    12  C   -0.308519  -0.017687
    13  C   -0.455604   0.071213
    14  C    0.730470   0.047374
    15  C    0.218514   0.241034
    16  C   -0.497415   0.229679
    17  O   -0.384265   0.194173
    18  H    0.088771   0.017678
    19  H    0.221563   0.000487
    20  H    0.137456  -0.003980
    21  H    0.152388  -0.001472
    22  H    0.133766   0.000507
    23  H    0.118877  -0.003164
    24  H    0.156140   0.000657
    25  H    0.124681  -0.022574
    26  H    0.107540   0.000621
    27  H    0.095871  -0.004066
    28  H    0.018521  -0.007989
 Sum of Mulliken charges =  -1.00000   1.00000

 Dipole moment (field-independent basis, Debye):
    X=             -5.0015    Y=             -1.9126    Z=              1.7831  Tot=              5.6438
 Quadrupole moment (field-independent basis, Debye-Ang):
   XX=           -130.9744   YY=           -123.9215   ZZ=           -111.1449
   XY=             -8.1719   XZ=              3.5727   YZ=              6.4833

 Summary of Natural Population Analysis:

                                       Natural Population
                Natural  -----------------------------------------------
    Atom  No    Charge         Core      Valence    Rydberg      Total
 -----------------------------------------------------------------------
      C    1   -0.17559      0.99965     2.16817    0.00777     3.17559
      N    2   -0.23979      0.99964     2.72534    0.01482     3.73979
      C    3    0.08109      0.99945     1.90921    0.01025     2.91891
      C    4   -0.12037      0.99955     2.11238    0.00844     3.12037
      C    5   -0.11558      0.99958     2.10650    0.00950     3.11558
      C    6   -0.11166      0.99958     2.10246    0.00962     3.11166
      C    7   -0.12699      0.99953     2.11844    0.00901     3.12699
      C    8    0.15276      0.99933     1.83602    0.01190     2.84724
      O    9   -0.26749      0.99984     3.25750    0.01015     4.26749
      C   10    0.09719      0.99940     1.88802    0.01539     2.90281
      C   11   -0.05700      0.99953     2.04857    0.00890     3.05700
      C   12   -0.13289      0.99957     2.12340    0.00991     3.13289
      C   13   -0.06814      0.99955     2.05944    0.00915     3.06814
      C   14   -0.09856      0.99953     2.08361    0.01542     3.09856
      C   15    0.20381      0.99943     1.78539    0.01137     2.79619
      C   16    0.23943      0.99968     1.73940    0.02149     2.76057
      O   17   -0.25050      0.99988     3.24216    0.00846     4.25050
      H   18    0.08502      0.00000     0.41369    0.00129     0.41498
      H   19    0.10753      0.00000     0.39106    0.00141     0.39247
      H   20    0.10374      0.00000     0.39531    0.00095     0.39626
      H   21    0.10394      0.00000     0.39512    0.00095     0.39606
      H   22    0.09450      0.00000     0.40450    0.00099     0.40550
      H   23    0.09376      0.00000     0.40527    0.00097     0.40624
      H   24    0.10263      0.00000     0.39634    0.00103     0.39737
      H   25    0.09288      0.00000     0.40558    0.00154     0.40712
      H   26    0.08987      0.00000     0.40852    0.00161     0.41013
      H   27    0.09029      0.00000     0.40768    0.00203     0.40971
      H   28    0.02779      0.00000     0.46907    0.00314     0.47221
 =======================================================================
   * Total *    0.00165     16.99272    41.79816    0.20747    58.99835

 Normal termination of Gaussian 16 at Fri Dec 11 13:58:15 2020.
