 Gaussian 16, Revision A.03,

 -----------------------------------------------------------
 # opt freq B3LYP/6-31G(d) empiricaldispersion=gd3bj scf=xqc
 -----------------------------------------------------------

 ------------------------------
 CID_18716072_JID_8872_neutraal
 ------------------------------
 Symbolic Z-matrix:
 Charge =  0 Multiplicity = 1

 SCF Done:  E(RB3LYP) =  -782.036095657     A.U. after   15 cycles
 SCF Done:  E(RB3LYP) =  -782.043520939     A.U. after   14 cycles
 SCF Done:  E(RB3LYP) =  -782.044839513     A.U. after   15 cycles
 SCF Done:  E(RB3LYP) =  -782.047763440     A.U. after   13 cycles
 SCF Done:  E(RB3LYP) =  -782.047960679     A.U. after   13 cycles
 SCF Done:  E(RB3LYP) =  -782.049104445     A.U. after   13 cycles
 SCF Done:  E(RB3LYP) =  -782.049279699     A.U. after   12 cycles
 SCF Done:  E(RB3LYP) =  -782.049308942     A.U. after   11 cycles
 SCF Done:  E(RB3LYP) =  -782.049313982     A.U. after   10 cycles
 SCF Done:  E(RB3LYP) =  -782.049318568     A.U. after    9 cycles
 SCF Done:  E(RB3LYP) =  -782.049325186     A.U. after    7 cycles
 SCF Done:  E(RB3LYP) =  -782.049325400     A.U. after    8 cycles
 SCF Done:  E(RB3LYP) =  -782.049325625     A.U. after    8 cycles
 SCF Done:  E(RB3LYP) =  -782.049325814     A.U. after    8 cycles
 SCF Done:  E(RB3LYP) =  -782.049325950     A.U. after    7 cycles
 SCF Done:  E(RB3LYP) =  -782.049325988     A.U. after    7 cycles
 Optimization completed.
    -- Stationary point found.
 Normal termination of Gaussian 16 at Fri Dec 11 22:23:00 2020.

 --------------------------------------------------------------------
 #N Geom=AllCheck Guess=TCheck SCRF=Check GenChk RB3LYP/6-31G(d) Freq
 --------------------------------------------------------------------

 Structure from the checkpoint file:  "JID_8872.chk"
 ------------------------------
 CID_18716072_JID_8872_neutraal
 ------------------------------
 Charge =  0 Multiplicity = 1

 SCF Done:  E(RB3LYP) =  -782.049325988     A.U. after    1 cycles

  Exact polarizability: 245.402  24.989 153.458  21.292 -26.851 111.177
 Approx polarizability: 339.901  41.457 265.780  40.386 -66.666 189.621

                      1                      2                      3
                      A                      A                      A
 Frequencies --     28.5730                29.5718                51.6234
 Red. masses --      5.4221                 5.5503                 3.4226
 Frc consts  --      0.0026                 0.0029                 0.0054
 IR Inten    --      0.5496                 0.2346                 2.0679

                      4                      5                      6
                      A                      A                      A
 Frequencies --     62.9851                82.6348                99.5906
 Red. masses --      2.5119                 3.7610                 2.8225
 Frc consts  --      0.0059                 0.0151                 0.0165
 IR Inten    --      0.8036                 0.5637                 0.6288

                      7                      8                      9
                      A                      A                      A
 Frequencies --    104.8456               146.8899               162.2803
 Red. masses --      1.9965                 4.3545                 3.6694
 Frc consts  --      0.0129                 0.0554                 0.0569
 IR Inten    --      1.4058                 1.6089                 0.0875

                     10                     11                     12
                      A                      A                      A
 Frequencies --    213.3347               286.0968               297.7498
 Red. masses --      4.5239                 4.3699                 3.5091
 Frc consts  --      0.1213                 0.2107                 0.1833
 IR Inten    --      1.5759                 1.8427                 1.8045

                     13                     14                     15
                      A                      A                      A
 Frequencies --    308.7518               371.9570               409.9986
 Red. masses --      5.8582                 2.4249                 3.6185
 Frc consts  --      0.3290                 0.1977                 0.3584
 IR Inten    --      0.8759                 0.2136                 0.6961

                     16                     17                     18
                      A                      A                      A
 Frequencies --    419.1051               422.0362               473.4739
 Red. masses --      3.3111                 3.9339                 3.5670
 Frc consts  --      0.3427                 0.4128                 0.4711
 IR Inten    --      1.6335                 1.3871                 1.9391

                     19                     20                     21
                      A                      A                      A
 Frequencies --    483.8498               519.8149               534.6220
 Red. masses --      2.3713                 3.8905                 2.2325
 Frc consts  --      0.3271                 0.6194                 0.3759
 IR Inten    --     18.4017                21.1441                32.5280

                     22                     23                     24
                      A                      A                      A
 Frequencies --    567.6801               580.8522               614.0552
 Red. masses --      3.3002                 3.3166                 1.8691
 Frc consts  --      0.6266                 0.6593                 0.4152
 IR Inten    --      5.4436                12.1765                31.3669

                     25                     26                     27
                      A                      A                      A
 Frequencies --    633.8376               648.2301               660.3576
 Red. masses --      5.8297                 3.0066                 6.2219
 Frc consts  --      1.3799                 0.7444                 1.5986
 IR Inten    --     10.8299                40.6207                 5.0623

                     28                     29                     30
                      A                      A                      A
 Frequencies --    713.3207               740.0699               758.0561
 Red. masses --      2.0451                 3.5497                 1.8071
 Frc consts  --      0.6131                 1.1455                 0.6118
 IR Inten    --     88.0853                42.5985                 9.0052

                     31                     32                     33
                      A                      A                      A
 Frequencies --    766.4965               801.7065               829.2383
 Red. masses --      3.1074                 2.4283                 3.4163
 Frc consts  --      1.0756                 0.9196                 1.3841
 IR Inten    --     42.9459                31.4368                 7.6841

                     34                     35                     36
                      A                      A                      A
 Frequencies --    847.7734               858.0599               881.5719
 Red. masses --      1.8942                 1.6723                 2.0162
 Frc consts  --      0.8021                 0.7254                 0.9232
 IR Inten    --     17.6400                25.6677                26.0925

                     37                     38                     39
                      A                      A                      A
 Frequencies --    903.4942               954.9340               958.3334
 Red. masses --      1.3809                 1.6333                 1.7572
 Frc consts  --      0.6642                 0.8775                 0.9508
 IR Inten    --      0.2115                 0.3992                 0.4352

                     40                     41                     42
                      A                      A                      A
 Frequencies --    976.7299               995.9243              1002.3877
 Red. masses --      1.4061                 1.3623                 1.2893
 Frc consts  --      0.7904                 0.7961                 0.7633
 IR Inten    --      0.0869                 0.5813                 0.0473

                     43                     44                     45
                      A                      A                      A
 Frequencies --   1012.3314              1031.7097              1038.0005
 Red. masses --      6.4679                 1.5837                 3.9630
 Frc consts  --      3.9054                 0.9932                 2.5158
 IR Inten    --      3.3045                15.5514                 5.2084

                     46                     47                     48
                      A                      A                      A
 Frequencies --   1061.4742              1063.6470              1072.4218
 Red. masses --      2.2149                 2.5194                 2.1471
 Frc consts  --      1.4704                 1.6794                 1.4549
 IR Inten    --      2.5740                 4.6059                13.6317

                     49                     50                     51
                      A                      A                      A
 Frequencies --   1092.9221              1129.9513              1150.7017
 Red. masses --      2.0299                 1.5702                 1.5090
 Frc consts  --      1.4286                 1.1812                 1.1772
 IR Inten    --      1.8009                 4.1111                 4.0113

                     52                     53                     54
                      A                      A                      A
 Frequencies --   1173.4816              1191.8691              1222.1785
 Red. masses --      2.4635                 1.1351                 1.1567
 Frc consts  --      1.9987                 0.9501                 1.0180
 IR Inten    --      8.2022                 2.1762                 4.7276

                     55                     56                     57
                      A                      A                      A
 Frequencies --   1243.6275              1297.1107              1302.5899
 Red. masses --      3.0020                 1.6898                 3.5290
 Frc consts  --      2.7355                 1.6751                 3.5279
 IR Inten    --     12.8539                 1.2270                 1.3275

                     58                     59                     60
                      A                      A                      A
 Frequencies --   1316.5630              1339.0589              1356.4932
 Red. masses --      2.0003                 3.3776                 1.4943
 Frc consts  --      2.0429                 3.5683                 1.6200
 IR Inten    --     10.7766                 4.1380                 0.8215

                     61                     62                     63
                      A                      A                      A
 Frequencies --   1360.6239              1375.5124              1381.4757
 Red. masses --      2.3203                 2.4324                 1.3806
 Frc consts  --      2.5309                 2.7115                 1.5524
 IR Inten    --     98.2785                 8.9707                26.8250

                     64                     65                     66
                      A                      A                      A
 Frequencies --   1424.8732              1445.9356              1456.4543
 Red. masses --      1.5240                 1.3538                 2.2230
 Frc consts  --      1.8230                 1.6676                 2.7784
 IR Inten    --     53.0312                 4.9928                 9.5844

                     67                     68                     69
                      A                      A                      A
 Frequencies --   1484.8695              1500.7308              1503.4179
 Red. masses --      2.3707                 1.0903                 1.0765
 Frc consts  --      3.0796                 1.4468                 1.4335
 IR Inten    --     36.1456                 3.7576                 4.0792

                     70                     71                     72
                      A                      A                      A
 Frequencies --   1516.1275              1518.6174              1544.6936
 Red. masses --      1.0639                 2.2869                 1.1556
 Frc consts  --      1.4409                 3.1074                 1.6246
 IR Inten    --      3.9874                55.7716                 4.7979

                     73                     74                     75
                      A                      A                      A
 Frequencies --   1563.9456              1619.6072              1637.0038
 Red. masses --      2.5965                 5.0600                 6.3722
 Frc consts  --      3.7417                 7.8203                10.0609
 IR Inten    --      1.4922                11.2682                12.0017

                     76                     77                     78
                      A                      A                      A
 Frequencies --   1647.8007              1673.2717              1792.3466
 Red. masses --      5.4380                 5.7948                 8.2939
 Frc consts  --      8.6996                 9.5592                15.6983
 IR Inten    --     78.3021                 1.0880               304.1125

                     79                     80                     81
                      A                      A                      A
 Frequencies --   3051.4630              3066.3293              3113.8843
 Red. masses --      1.0516                 1.0601                 1.1061
 Frc consts  --      5.7693                 5.8725                 6.3187
 IR Inten    --     11.3042                46.3625                15.1784

                     82                     83                     84
                      A                      A                      A
 Frequencies --   3147.7389              3170.8049              3171.4471
 Red. masses --      1.0821                 1.0893                 1.0884
 Frc consts  --      6.3170                 6.4524                 6.4499
 IR Inten    --      2.7524                40.4763                 8.8450

                     85                     86                     87
                      A                      A                      A
 Frequencies --   3191.4428              3194.4577              3200.3429
 Red. masses --      1.1042                 1.0883                 1.0897
 Frc consts  --      6.6263                 6.5430                 6.5756
 IR Inten    --      1.5019                15.0108                13.3648

                     88                     89                     90
                      A                      A                      A
 Frequencies --   3204.6501              3217.0489              3225.1563
 Red. masses --      1.0924                 1.0941                 1.0940
 Frc consts  --      6.6096                 6.6712                 6.7045
 IR Inten    --      3.3129                25.3758                13.4935

                     91                     92                     93
                      A                      A                      A
 Frequencies --   3236.3774              3519.4228              3580.5231
 Red. masses --      1.0920                 1.0744                 1.0769
 Frc consts  --      6.7392                 7.8408                 8.1341
 IR Inten    --      1.4728                 0.2132                23.0083

 - Thermochemistry -
 -------------------
 Temperature   298.150 Kelvin.  Pressure   1.00000 Atm.
 Atom     1 has atomic number  6 and mass  12.00000

 Molecular mass:   241.12151 amu.
 Principal axes and moments of inertia in atomic units:
                           1         2         3
     Eigenvalues --  1983.563818762.586959792.35116
           X            0.99997   0.00778   0.00103
           Y           -0.00776   0.99986  -0.01493
           Z           -0.00115   0.01492   0.99989
 This molecule is an asymmetric top.
 Rotational symmetry number  1.
 Warning -- assumption of classical behavior for rotation
           may cause significant error
 Rotational temperatures (Kelvin)      0.04367     0.00988     0.00885
 Rotational constants (GHZ):           0.90985     0.20596     0.18430
 Zero-point vibrational energy     712001.9 (Joules/Mol)
                                  170.17254 (Kcal/Mol)
 Warning -- explicit consideration of  24 degrees of freedom as
           vibrations may cause significant error
 Vibrational temperatures:     41.11    42.55    74.27    90.62   118.89
          (Kelvin)            143.29   150.85   211.34   233.49   306.94
                              411.63   428.40   444.22   535.16   589.90
                              603.00   607.22   681.22   696.15   747.90
                              769.20   816.77   835.72   883.49   911.95
                              932.66   950.11  1026.31  1064.80  1090.67
                             1102.82  1153.48  1193.09  1219.76  1234.56
                             1268.39  1299.93  1373.94  1378.83  1405.30
                             1432.91  1442.21  1456.52  1484.40  1493.45
                             1527.22  1530.35  1542.98  1572.47  1625.75
                             1655.60  1688.38  1714.83  1758.44  1789.30
                             1866.25  1874.14  1894.24  1926.61  1951.69
                             1957.63  1979.06  1987.64  2050.07  2080.38
                             2095.51  2136.40  2159.22  2163.08  2181.37
                             2184.95  2222.47  2250.17  2330.25  2355.28
                             2370.82  2407.46  2578.79  4390.37  4411.76
                             4480.18  4528.89  4562.08  4563.01  4591.77
                             4596.11  4604.58  4610.78  4628.62  4640.28
                             4656.43  5063.66  5151.57

 Zero-point correction=                           0.271187 (Hartree/Particle)
 Thermal correction to Energy=                    0.287178
 Thermal correction to Enthalpy=                  0.288122
 Thermal correction to Gibbs Free Energy=         0.225609
 Sum of electronic and zero-point Energies=           -781.778139
 Sum of electronic and thermal Energies=              -781.762148
 Sum of electronic and thermal Enthalpies=            -781.761204
 Sum of electronic and thermal Free Energies=         -781.823717

                     E (Thermal)             CV                S
                      KCal/Mol        Cal/Mol-Kelvin    Cal/Mol-Kelvin
 Total                  180.207             61.145            131.569
 Electronic               0.000              0.000              0.000
 Translational            0.889              2.981             42.342
 Rotational               0.889              2.981             33.498
 Vibrational            178.429             55.183             55.730
 Vibration     1          0.593              1.984              5.926
 Vibration     2          0.593              1.984              5.858
 Vibration     3          0.596              1.977              4.754
 Vibration     4          0.597              1.972              4.361
 Vibration     5          0.600              1.961              3.827
 Vibration     6          0.604              1.949              3.462
 Vibration     7          0.605              1.945              3.362
 Vibration     8          0.617              1.906              2.712
 Vibration     9          0.622              1.889              2.523
 Vibration    10          0.644              1.821              2.015
 Vibration    11          0.684              1.700              1.497
 Vibration    12          0.691              1.678              1.430
 Vibration    13          0.698              1.657              1.369
 Vibration    14          0.744              1.530              1.072
 Vibration    15          0.774              1.449              0.927
 Vibration    16          0.782              1.429              0.895
 Vibration    17          0.784              1.422              0.885
 Vibration    18          0.830              1.309              0.728
 Vibration    19          0.840              1.286              0.700
 Vibration    20          0.875              1.206              0.610
 Vibration    21          0.890              1.173              0.577
 Vibration    22          0.924              1.101              0.509
 Vibration    23          0.938              1.073              0.484
 Vibration    24          0.973              1.002              0.426

                           ! Non-Optimized Parameters !
 Normal termination of Gaussian 16 at Fri Dec 11 22:34:58 2020.

 ----------------------------------------------------------------------
 # B3LYP/6-311++G(d,p) empiricaldispersion=gd3bj scf=xqc pop=npa geom=c
 heck
 ----------------------------------------------------------------------

 --------------------------------------
 CID_18716072_JID_8872_Energie_neutraal
 --------------------------------------
 Structure from the checkpoint file:  "JID_8872.chk"
 Charge =  0 Multiplicity = 1

 SCF Done:  E(RB3LYP) =  -782.264335701     A.U. after   16 cycles
 Normal termination of Gaussian 16 at Fri Dec 11 22:41:09 2020.

 ----------------------------------------------------------------------
 # B3LYP/6-311++G(d,p) empiricaldispersion=gd3bj scf=xqc pop=npa geom=c
 heck
 ----------------------------------------------------------------------

 ------------------------------------
 CID_18716072_JID_8872_Energie_kation
 ------------------------------------
 Structure from the checkpoint file:  "JID_8872.chk"
 Charge =  1 Multiplicity = 2

 SCF Done:  E(UB3LYP) =  -781.973516940     A.U. after   26 cycles
 Normal termination of Gaussian 16 at Fri Dec 11 22:55:42 2020.
 Gaussian 16:  ES64L-G16RevA.03 25-Dec-2016

 ----------------------------------------------------------------------
 # B3LYP/6-311++G(d,p) empiricaldispersion=gd3bj scf=xqc pop=npa geom=c
 heck
 ----------------------------------------------------------------------

 -----------------------------------
 CID_18716072_JID_8872_Energie_anion
 -----------------------------------
 Structure from the checkpoint file:  "JID_8872.chk"
 Charge = -1 Multiplicity = 2

                         Standard orientation:
 ---------------------------------------------------------------------
 Center     Atomic      Atomic             Coordinates (Angstroms)
 Number     Number       Type             X           Y           Z
 ---------------------------------------------------------------------
      1          6           0       -2.289320    1.237796    1.544842
      2          6           0       -3.256852    1.548406    0.417128
      3          8           0       -3.523848    2.689563    0.067961
      4          7           0       -3.881864    0.482945   -0.199886
      5          7           0       -3.889901   -0.866462    0.203284
      6          6           0       -2.979905   -1.720809   -0.594378
      7          6           0       -1.514837   -1.369848   -0.515066
      8          6           0       -0.966971   -0.378853   -1.340058
      9          6           0        0.353757    0.027875   -1.186628
     10          6           0        1.178096   -0.557723   -0.212734
     11          6           0        0.632012   -1.557626    0.606846
     12          6           0       -0.692999   -1.955866    0.454828
     13          6           0        2.586073   -0.107802   -0.075116
     14          6           0        3.558263   -0.883788    0.576733
     15          6           0        4.858036   -0.398999    0.681460
     16          6           0        5.163821    0.842099    0.126615
     17          6           0        4.140075    1.534931   -0.520700
     18          7           0        2.888816    1.084712   -0.623244
     19          1           0       -1.828438    2.178365    1.847421
     20          1           0       -1.514608    0.528106    1.249981
     21          1           0       -2.822910    0.821084    2.409561
     22          1           0       -4.681260    0.748188   -0.763483
     23          1           0       -3.656305   -0.920190    1.191611
     24          1           0       -3.151804   -2.743881   -0.241252
     25          1           0       -3.333335   -1.667160   -1.628943
     26          1           0       -1.589790    0.088576   -2.097030
     27          1           0        0.771080    0.807010   -1.813673
     28          1           0        1.233284   -2.015146    1.386054
     29          1           0       -1.099618   -2.724173    1.109220
     30          1           0        3.308568   -1.860037    0.976675
     31          1           0        5.622250   -0.987222    1.181750
     32          1           0        6.163889    1.259738    0.183767
     33          1           0        4.334940    2.503120   -0.979059
 ---------------------------------------------------------------------

 SCF Done:  E(UB3LYP) =  -782.274461222     A.U. after   30 cycles

 The electronic state is 2-A.
 Alpha  occ. eigenvalues --  -18.99008 -14.25838 -14.24296 -14.15488 -10.17667
 Alpha  occ. eigenvalues --  -10.09210 -10.07167 -10.06946 -10.05682 -10.05073
 Alpha  occ. eigenvalues --  -10.04366 -10.04086 -10.03744 -10.03713 -10.03464
 Alpha  occ. eigenvalues --  -10.03296 -10.03059 -10.02758  -0.94573  -0.88438
 Alpha  occ. eigenvalues --   -0.80038  -0.73503  -0.71309  -0.66531  -0.65094
 Alpha  occ. eigenvalues --   -0.63885  -0.61313  -0.60826  -0.55541  -0.50179
 Alpha  occ. eigenvalues --   -0.49870  -0.49385  -0.46771  -0.44916  -0.42566
 Alpha  occ. eigenvalues --   -0.40002  -0.37942  -0.37578  -0.35820  -0.35051
 Alpha  occ. eigenvalues --   -0.34336  -0.33258  -0.32019  -0.31200  -0.31031
 Alpha  occ. eigenvalues --   -0.30099  -0.29500  -0.28760  -0.27427  -0.27400
 Alpha  occ. eigenvalues --   -0.26903  -0.26392  -0.24562  -0.22963  -0.21801
 Alpha  occ. eigenvalues --   -0.20743  -0.19401  -0.16396  -0.15951  -0.14978
 Alpha  occ. eigenvalues --   -0.13431  -0.12688  -0.11617  -0.09895   0.04165
 Alpha virt. eigenvalues --    0.07115   0.08160   0.08550   0.08809   0.09612
 Alpha virt. eigenvalues --    0.09908   0.10261   0.10916   0.11231   0.11592
 Alpha virt. eigenvalues --    0.11796   0.12029   0.12604   0.13356   0.13479

  Beta  occ. eigenvalues --  -18.99008 -14.25838 -14.24239 -14.15228 -10.17666
  Beta  occ. eigenvalues --  -10.09227 -10.07167 -10.07022 -10.05440 -10.05017
  Beta  occ. eigenvalues --  -10.04398 -10.04071 -10.03767 -10.03614 -10.03163
  Beta  occ. eigenvalues --  -10.03036 -10.02886 -10.02653  -0.94566  -0.88388
  Beta  occ. eigenvalues --   -0.79580  -0.73285  -0.71119  -0.66149  -0.64719
  Beta  occ. eigenvalues --   -0.63800  -0.61084  -0.60518  -0.55349  -0.50128
  Beta  occ. eigenvalues --   -0.49812  -0.48850  -0.46677  -0.44574  -0.42532
  Beta  occ. eigenvalues --   -0.39891  -0.37877  -0.37477  -0.35680  -0.34879
  Beta  occ. eigenvalues --   -0.34094  -0.33182  -0.31895  -0.31073  -0.30982
  Beta  occ. eigenvalues --   -0.30075  -0.29372  -0.28674  -0.27327  -0.27143
  Beta  occ. eigenvalues --   -0.26634  -0.25732  -0.24418  -0.22310  -0.21538
  Beta  occ. eigenvalues --   -0.20635  -0.19329  -0.16061  -0.14877  -0.14055
  Beta  occ. eigenvalues --   -0.13176  -0.12099  -0.11272  -0.08595
  Beta virt. eigenvalues --    0.06995   0.08105   0.08414   0.08745   0.09422
  Beta virt. eigenvalues --    0.09571   0.10121   0.10229   0.10948   0.11163
  Beta virt. eigenvalues --    0.11616   0.11805   0.12035   0.12648   0.13326

 Mulliken charges and spin densities:
               1          2
     1  C   -0.370632  -0.023614
     2  C   -0.058257   0.007995
     3  O   -0.329199   0.000272
     4  N   -0.348786   0.017583
     5  N    0.070909  -0.028253
     6  C   -0.350055  -0.332661
     7  C    0.448022   0.437197
     8  C   -0.381552   0.036004
     9  C   -0.377217   0.107483
    10  C    1.032508   0.022562
    11  C   -0.526195   0.063163
    12  C   -0.506166  -0.056340
    13  C   -0.455909   0.094819
    14  C   -0.252338   0.021713
    15  C   -0.461660   0.031012
    16  C   -0.274022   0.208088
    17  C   -0.019438  -0.042320
    18  N    0.081380   0.129381
    19  H    0.166733   0.000798
    20  H    0.265866  -0.007642
    21  H    0.121267   0.006328
    22  H    0.287705   0.019768
    23  H    0.143971   0.048482
    24  H    0.071902   0.099922
    25  H    0.069632   0.081859
    26  H    0.135346   0.010946
    27  H    0.175816   0.000351
    28  H    0.126246  -0.017224
    29  H    0.067108   0.054299
    30  H    0.064670   0.025309
    31  H    0.129851  -0.005439
    32  H    0.114514  -0.015522
    33  H    0.137983   0.003680
 Sum of Mulliken charges =  -1.00000   1.00000

 Dipole moment (field-independent basis, Debye):
    X=             -2.5476    Y=             -2.6349    Z=              2.2271  Tot=              4.2887
 Quadrupole moment (field-independent basis, Debye-Ang):
   XX=           -165.7172   YY=           -134.6383   ZZ=           -114.3615
   XY=              5.1188   XZ=              0.5135   YZ=             -2.0210

 Summary of Natural Population Analysis:

                                       Natural Population
                Natural  -----------------------------------------------
    Atom  No    Charge         Core      Valence    Rydberg      Total
 -----------------------------------------------------------------------
      C    1   -0.33982      0.99961     2.33566    0.00455     3.33982
      C    2    0.33738      0.99970     1.64065    0.02227     2.66262
      O    3   -0.32470      0.99988     3.31846    0.00636     4.32470
      N    4   -0.23690      0.99966     2.72397    0.01328     3.73690
      N    5   -0.23980      0.99976     2.72539    0.01466     3.73980
      C    6   -0.09582      0.99958     2.08246    0.01378     3.09582
      C    7    0.00129      0.99949     1.98876    0.01046     2.99871
      C    8   -0.11161      0.99953     2.10347    0.00862     3.11161
      C    9   -0.06319      0.99954     2.05553    0.00812     3.06319
      C   10   -0.00935      0.99949     1.99715    0.01271     3.00935
      C   11   -0.07657      0.99954     2.06986    0.00716     3.07657
      C   12   -0.12175      0.99953     2.11142    0.01080     3.12175
      C   13    0.13574      0.99951     1.85230    0.01246     2.86426
      C   14   -0.11343      0.99953     2.10644    0.00747     3.11343
      C   15   -0.08540      0.99958     2.07655    0.00928     3.08540
      C   16   -0.09318      0.99957     2.08412    0.00949     3.09318
      C   17    0.00832      0.99960     1.97755    0.01453     2.99168
      N   18   -0.20180      0.99968     2.69236    0.00976     3.70180
      H   19    0.11314      0.00000     0.38607    0.00078     0.38686
      H   20    0.12862      0.00000     0.37030    0.00108     0.37138
      H   21    0.09969      0.00000     0.39949    0.00081     0.40031
      H   22    0.18788      0.00000     0.30987    0.00225     0.31212
      H   23    0.17056      0.00000     0.32639    0.00306     0.32944
      H   24    0.09579      0.00000     0.40311    0.00109     0.40421
      H   25    0.09485      0.00000     0.40406    0.00109     0.40515
      H   26    0.09532      0.00000     0.40351    0.00117     0.40468
      H   27    0.10821      0.00000     0.39077    0.00102     0.39179
      H   28    0.09204      0.00000     0.40663    0.00133     0.40796
      H   29    0.09020      0.00000     0.40868    0.00112     0.40980
      H   30    0.09529      0.00000     0.40338    0.00133     0.40471
      H   31    0.08985      0.00000     0.40909    0.00106     0.41015
      H   32    0.08975      0.00000     0.40908    0.00118     0.41025
      H   33    0.07943      0.00000     0.41926    0.00131     0.42057
 =======================================================================
   * Total *   -0.00000     17.99277    45.79179    0.21544    64.00000

 Normal termination of Gaussian 16 at Fri Dec 11 23:12:07 2020.
