 Gaussian 16, Revision A.03,

 -----------------------------------------------------------
 # opt freq B3LYP/6-31G(d) empiricaldispersion=gd3bj scf=xqc
 -----------------------------------------------------------

 -------------------------------
 CID_117004191_JID_9947_neutraal
 -------------------------------
 Symbolic Z-matrix:
 Charge =  0 Multiplicity = 1

 SCF Done:  E(RB3LYP) =  -844.872568767     A.U. after   15 cycles
 SCF Done:  E(RB3LYP) =  -844.878140579     A.U. after   12 cycles
 SCF Done:  E(RB3LYP) =  -844.878529477     A.U. after   12 cycles
 SCF Done:  E(RB3LYP) =  -844.878675499     A.U. after   12 cycles
 SCF Done:  E(RB3LYP) =  -844.879006322     A.U. after   11 cycles
 SCF Done:  E(RB3LYP) =  -844.879131784     A.U. after   11 cycles
 SCF Done:  E(RB3LYP) =  -844.879185277     A.U. after   11 cycles
 SCF Done:  E(RB3LYP) =  -844.879215400     A.U. after   10 cycles
 SCF Done:  E(RB3LYP) =  -844.879243493     A.U. after   10 cycles
 SCF Done:  E(RB3LYP) =  -844.879248702     A.U. after    9 cycles
 SCF Done:  E(RB3LYP) =  -844.879287783     A.U. after    9 cycles
 SCF Done:  E(RB3LYP) =  -844.879287319     A.U. after    8 cycles
 SCF Done:  E(RB3LYP) =  -844.879288246     A.U. after    9 cycles
 SCF Done:  E(RB3LYP) =  -844.879288334     A.U. after    8 cycles
 SCF Done:  E(RB3LYP) =  -844.879288340     A.U. after    6 cycles
 Optimization completed on the basis of negligible forces.
    -- Stationary point found.
 Normal termination of Gaussian 16 at Sat Dec 12 10:46:17 2020.

 --------------------------------------------------------------------
 #N Geom=AllCheck Guess=TCheck SCRF=Check GenChk RB3LYP/6-31G(d) Freq
 --------------------------------------------------------------------

 Structure from the checkpoint file:  "JID_9947.chk"
 -------------------------------
 CID_117004191_JID_9947_neutraal
 -------------------------------
 Charge =  0 Multiplicity = 1

 SCF Done:  E(RB3LYP) =  -844.879288339     A.U. after    1 cycles

  Exact polarizability: 207.675  18.694 157.250  16.963 -15.732 155.584
 Approx polarizability: 267.617  26.250 231.635  29.702 -36.384 255.291

                      1                      2                      3
                      A                      A                      A
 Frequencies --     23.0379                27.2527                31.7790
 Red. masses --      4.3215                 4.6733                 5.0700
 Frc consts  --      0.0014                 0.0020                 0.0030
 IR Inten    --      0.3473                 0.5921                 0.1345

                      4                      5                      6
                      A                      A                      A
 Frequencies --     34.2855                52.5867                73.6203
 Red. masses --      1.0375                 4.7529                 2.3578
 Frc consts  --      0.0007                 0.0077                 0.0075
 IR Inten    --      0.1519                 0.7055                 0.2409

                      7                      8                      9
                      A                      A                      A
 Frequencies --     84.1871               112.1647               149.2558
 Red. masses --      5.9491                 1.1433                 2.4316
 Frc consts  --      0.0248                 0.0085                 0.0319
 IR Inten    --      1.4591                 0.2718                 0.4162

                     10                     11                     12
                      A                      A                      A
 Frequencies --    157.6590               162.3348               178.2801
 Red. masses --      2.3677                 1.7429                 2.1933
 Frc consts  --      0.0347                 0.0271                 0.0411
 IR Inten    --      2.0767                 0.9441                 3.7395

                     13                     14                     15
                      A                      A                      A
 Frequencies --    196.6174               229.9982               244.1179
 Red. masses --      2.0452                 3.0159                 3.8275
 Frc consts  --      0.0466                 0.0940                 0.1344
 IR Inten    --      1.1663                 0.0465                 3.4455

                     16                     17                     18
                      A                      A                      A
 Frequencies --    259.1556               276.7011               283.0774
 Red. masses --      3.4400                 2.6701                 2.5560
 Frc consts  --      0.1361                 0.1204                 0.1207
 IR Inten    --      0.5586                 6.4767                 1.6617

                     19                     20                     21
                      A                      A                      A
 Frequencies --    319.5381               341.4239               363.4115
 Red. masses --      3.3964                 3.5617                 3.5336
 Frc consts  --      0.2043                 0.2446                 0.2750
 IR Inten    --      2.8765                 4.8563                 2.4552

                     22                     23                     24
                      A                      A                      A
 Frequencies --    413.4084               466.8679               494.9638
 Red. masses --      3.5135                 2.1839                 2.2473
 Frc consts  --      0.3538                 0.2805                 0.3244
 IR Inten    --      0.5968                 5.4358                17.9138

                     25                     26                     27
                      A                      A                      A
 Frequencies --    509.9511               525.9222               530.8648
 Red. masses --      3.5405                 3.1482                 2.9011
 Frc consts  --      0.5425                 0.5131                 0.4817
 IR Inten    --      2.7083                 1.4443                31.6945

                     28                     29                     30
                      A                      A                      A
 Frequencies --    560.3318               580.0777               585.6568
 Red. masses --      3.5109                 3.9383                 4.0594
 Frc consts  --      0.6495                 0.7808                 0.8203
 IR Inten    --      1.6760                 1.8044                 1.5297

                     31                     32                     33
                      A                      A                      A
 Frequencies --    591.6463               604.0102               646.9761
 Red. masses --      3.4765                 3.3597                 2.9741
 Frc consts  --      0.7170                 0.7222                 0.7335
 IR Inten    --      5.8733                 0.3751                10.3127

                     34                     35                     36
                      A                      A                      A
 Frequencies --    691.3017               760.6317               775.0744
 Red. masses --      1.4898                 2.6403                 2.8626
 Frc consts  --      0.4195                 0.9000                 1.0132
 IR Inten    --    123.0462                42.1164                39.9287

                     37                     38                     39
                      A                      A                      A
 Frequencies --    786.4811               862.4669               873.4120
 Red. masses --      2.5718                 2.5030                 1.3872
 Frc consts  --      0.9373                 1.0970                 0.6235
 IR Inten    --     19.9749                 2.6227                11.7032

                     40                     41                     42
                      A                      A                      A
 Frequencies --    875.9148               894.0374               906.9698
 Red. masses --      1.8067                 1.3004                 2.5494
 Frc consts  --      0.8167                 0.6124                 1.2356
 IR Inten    --      8.4023                 0.3255                22.4840

                     43                     44                     45
                      A                      A                      A
 Frequencies --    957.6071               962.4464               972.6244
 Red. masses --      2.2883                 2.4590                 1.4817
 Frc consts  --      1.2364                 1.3420                 0.8259
 IR Inten    --      1.2548                 1.2700                 2.0135

                     46                     47                     48
                      A                      A                      A
 Frequencies --    989.5213              1002.4432              1015.6842
 Red. masses --      2.7689                 2.4144                 2.7286
 Frc consts  --      1.5974                 1.4295                 1.6585
 IR Inten    --      2.4613                28.1495                 8.0628

                     49                     50                     51
                      A                      A                      A
 Frequencies --   1041.0972              1047.4009              1058.8570
 Red. masses --      1.6788                 1.5553                 1.7127
 Frc consts  --      1.0721                 1.0053                 1.1314
 IR Inten    --      7.8347                 1.0440                 0.8622

                     52                     53                     54
                      A                      A                      A
 Frequencies --   1072.3435              1074.8556              1076.8950
 Red. masses --      1.5548                 1.5079                 1.5178
 Frc consts  --      1.0534                 1.0264                 1.0371
 IR Inten    --      9.2947                 9.2239                 0.4203

                     55                     56                     57
                      A                      A                      A
 Frequencies --   1093.6507              1112.6607              1156.6866
 Red. masses --      2.6178                 2.9418                 2.0109
 Frc consts  --      1.8448                 2.1458                 1.5852
 IR Inten    --      6.4351                14.5920               102.6871

                     58                     59                     60
                      A                      A                      A
 Frequencies --   1176.7034              1186.5813              1190.8222
 Red. masses --      3.0967                 1.7944                 1.4608
 Frc consts  --      2.5263                 1.4885                 1.2205
 IR Inten    --    227.3156                26.8950                 7.3506

                     61                     62                     63
                      A                      A                      A
 Frequencies --   1202.4414              1211.6463              1235.3622
 Red. masses --      1.6308                 3.6576                 1.3067
 Frc consts  --      1.3893                 3.1637                 1.1749
 IR Inten    --      7.1110                10.2967                30.3123

                     64                     65                     66
                      A                      A                      A
 Frequencies --   1255.6160              1286.1253              1296.1496
 Red. masses --      1.2784                 1.4615                 1.5687
 Frc consts  --      1.1874                 1.4244                 1.5528
 IR Inten    --      5.7059                 2.2595                 8.5673

                     67                     68                     69
                      A                      A                      A
 Frequencies --   1312.1315              1323.4291              1333.2370
 Red. masses --      2.1854                 1.6394                 3.7416
 Frc consts  --      2.2168                 1.6917                 3.9186
 IR Inten    --     17.8506                 5.8978                 8.2585

                     70                     71                     72
                      A                      A                      A
 Frequencies --   1337.6135              1350.6323              1355.8839
 Red. masses --      1.6143                 2.2497                 1.4855
 Frc consts  --      1.7018                 2.4180                 1.6090
 IR Inten    --      6.7500                 6.1451                15.6106

                     73                     74                     75
                      A                      A                      A
 Frequencies --   1368.5802              1395.3981              1410.5179
 Red. masses --      1.5628                 1.5576                 1.7155
 Frc consts  --      1.7246                 1.7869                 2.0110
 IR Inten    --      5.0143                44.7635                12.2189

                     76                     77                     78
                      A                      A                      A
 Frequencies --   1430.8722              1439.6871              1440.9314
 Red. masses --      1.5955                 1.2317                 1.2447
 Frc consts  --      1.9247                 1.5041                 1.5226
 IR Inten    --     19.3329                 1.1373                 1.6860

                     79                     80                     81
                      A                      A                      A
 Frequencies --   1444.4682              1465.4094              1486.4405
 Red. masses --      1.3058                 2.6667                 1.0863
 Frc consts  --      1.6053                 3.3740                 1.4142
 IR Inten    --      0.2365                 0.0518                14.7585

                     82                     83                     84
                      A                      A                      A
 Frequencies --   1494.9371              1504.7475              1517.2032
 Red. masses --      1.6773                 1.0842                 1.0635
 Frc consts  --      2.2085                 1.4464                 1.4424
 IR Inten    --     18.8802                10.5124                 2.9345

                     85                     86                     87
                      A                      A                      A
 Frequencies --   1518.0886              1520.8552              1523.0836
 Red. masses --      1.0537                 1.0793                 1.0682
 Frc consts  --      1.4307                 1.4709                 1.4600
 IR Inten    --      6.3514                 2.2917                 1.1853

                     88                     89                     90
                      A                      A                      A
 Frequencies --   1530.2291              1535.6429              1544.5243
 Red. masses --      1.2127                 1.2726                 1.5985
 Frc consts  --      1.6730                 1.7681                 2.2468
 IR Inten    --     21.1765                35.4490                63.3512

                     91                     92                     93
                      A                      A                      A
 Frequencies --   1558.0234              1574.0516              1631.5315
 Red. masses --      1.0926                 1.0896                 6.4418
 Frc consts  --      1.5626                 1.5905                10.1030
 IR Inten    --      0.3021                 2.7679                 1.7769

                     94                     95                     96
                      A                      A                      A
 Frequencies --   1668.3539              1842.2677              2978.0097
 Red. masses --      5.4923                 9.7410                 1.0700
 Frc consts  --      9.0070                19.4787                 5.5907
 IR Inten    --      3.5722               224.9256                60.5182

                     97                     98                     99
                      A                      A                      A
 Frequencies --   2998.8006              3029.6643              3034.6895
 Red. masses --      1.0761                 1.0704                 1.0789
 Frc consts  --      5.7016                 5.7886                 5.8540
 IR Inten    --     68.2060                35.7606                11.0299

                    100                    101                    102
                      A                      A                      A
 Frequencies --   3039.0552              3040.1043              3041.6056
 Red. masses --      1.0409                 1.0509                 1.0452
 Frc consts  --      5.6640                 5.7224                 5.6973
 IR Inten    --     49.7274                22.7258                 8.9094

                    103                    104                    105
                      A                      A                      A
 Frequencies --   3043.1920              3054.1048              3061.9093
 Red. masses --      1.0736                 1.0879                 1.0849
 Frc consts  --      5.8581                 5.9786                 5.9926
 IR Inten    --     42.8941                28.1495                81.9857

                    106                    107                    108
                      A                      A                      A
 Frequencies --   3095.3076              3099.7412              3102.5644
 Red. masses --      1.0956                 1.0914                 1.0901
 Frc consts  --      6.1843                 6.1783                 6.1822
 IR Inten    --     22.5733                25.6312                21.5219

                    109                    110                    111
                      A                      A                      A
 Frequencies --   3111.0534              3122.5333              3125.6396
 Red. masses --      1.0922                 1.1025                 1.0965
 Frc consts  --      6.2281                 6.3337                 6.3117
 IR Inten    --      8.2904                16.5542                38.8955

                    112                    113                    114
                      A                      A                      A
 Frequencies --   3134.2538              3139.6425              3163.0900
 Red. masses --      1.1027                 1.1008                 1.0896
 Frc consts  --      6.3822                 6.3930                 6.4233
 IR Inten    --     16.8631                17.3741                31.6459

                    115                    116                    117
                      A                      A                      A
 Frequencies --   3167.2610              3489.8065              3674.1521
 Red. masses --      1.0899                 1.0728                 1.0640
 Frc consts  --      6.4416                 7.6979                 8.4628
 IR Inten    --     23.2307                 1.4569                38.6838

 - Thermochemistry -
 -------------------
 Temperature   298.150 Kelvin.  Pressure   1.00000 Atm.
 Atom     1 has atomic number  6 and mass  12.00000

 Molecular mass:   262.16813 amu.
 Principal axes and moments of inertia in atomic units:
                           1         2         3
     Eigenvalues --  2907.902479269.78552**********
           X            0.99987   0.01387   0.00783
           Y           -0.01339   0.99821  -0.05831
           Z           -0.00863   0.05820   0.99827
 This molecule is an asymmetric top.
 Rotational symmetry number  1.
 Warning -- assumption of classical behavior for rotation
           may cause significant error
 Rotational temperatures (Kelvin)      0.02979     0.00934     0.00866
 Rotational constants (GHZ):           0.62063     0.19469     0.18047
 Zero-point vibrational energy     932002.3 (Joules/Mol)
                                  222.75391 (Kcal/Mol)
 Warning -- explicit consideration of  32 degrees of freedom as
           vibrations may cause significant error
 Vibrational temperatures:     33.15    39.21    45.72    49.33    75.66
          (Kelvin)            105.92   121.13   161.38   214.75   226.84
                              233.56   256.51   282.89   330.92   351.23
                              372.87   398.11   407.29   459.74   491.23
                              522.87   594.80   671.72   712.14   733.71
                              756.68   763.80   806.19   834.60   842.63
                              851.25   869.04   930.85   994.63  1094.38
                             1115.16  1131.57  1240.90  1256.65  1260.25
                             1286.32  1304.93  1377.78  1384.75  1399.39
                             1423.70  1442.29  1461.34  1497.91  1506.98
                             1523.46  1542.86  1546.48  1549.41  1573.52
                             1600.87  1664.21  1693.01  1707.23  1713.33
                             1730.04  1743.29  1777.41  1806.55  1850.45
                             1864.87  1887.86  1904.12  1918.23  1924.53
                             1943.26  1950.81  1969.08  2007.67  2029.42
                             2058.71  2071.39  2073.18  2078.27  2108.40
                             2138.66  2150.88  2165.00  2182.92  2184.19
                             2188.17  2191.38  2201.66  2209.45  2222.23
                             2241.65  2264.71  2347.41  2400.39  2650.61
                             4284.69  4314.61  4359.01  4366.24  4372.52
                             4374.03  4376.19  4378.47  4394.18  4405.40
                             4453.46  4459.84  4463.90  4476.11  4492.63
                             4497.10  4509.49  4517.25  4550.98  4556.98
                             5021.05  5286.29

 Zero-point correction=                           0.354981 (Hartree/Particle)
 Thermal correction to Energy=                    0.374805
 Thermal correction to Enthalpy=                  0.375749
 Thermal correction to Gibbs Free Energy=         0.304036
 Sum of electronic and zero-point Energies=           -844.524307
 Sum of electronic and thermal Energies=              -844.504484
 Sum of electronic and thermal Enthalpies=            -844.503540
 Sum of electronic and thermal Free Energies=         -844.575252

                     E (Thermal)             CV                S
                      KCal/Mol        Cal/Mol-Kelvin    Cal/Mol-Kelvin
 Total                  235.193             73.363            150.932
 Electronic               0.000              0.000              0.000
 Translational            0.889              2.981             42.591
 Rotational               0.889              2.981             33.955
 Vibrational            233.416             67.402             74.386
 Vibration     1          0.593              1.985              6.353
 Vibration     2          0.593              1.984              6.020
 Vibration     3          0.594              1.983              5.715
 Vibration     4          0.594              1.983              5.565
 Vibration     5          0.596              1.977              4.718
 Vibration     6          0.599              1.966              4.054
 Vibration     7          0.601              1.960              3.791
 Vibration     8          0.607              1.939              3.231
 Vibration     9          0.618              1.903              2.682
 Vibration    10          0.621              1.894              2.578
 Vibration    11          0.622              1.889              2.522
 Vibration    12          0.629              1.869              2.346
 Vibration    13          0.636              1.845              2.165
 Vibration    14          0.652              1.795              1.879
 Vibration    15          0.659              1.772              1.773
 Vibration    16          0.668              1.747              1.667
 Vibration    17          0.678              1.717              1.554
 Vibration    18          0.682              1.705              1.515
 Vibration    19          0.705              1.636              1.312
 Vibration    20          0.721              1.593              1.205
 Vibration    21          0.737              1.548              1.107
 Vibration    22          0.777              1.441              0.915
 Vibration    23          0.824              1.324              0.746
 Vibration    24          0.851              1.261              0.671
 Vibration    25          0.865              1.228              0.634
 Vibration    26          0.881              1.193              0.596
 Vibration    27          0.886              1.182              0.585
 Vibration    28          0.916              1.117              0.523
 Vibration    29          0.937              1.074              0.485
 Vibration    30          0.943              1.062              0.475
 Vibration    31          0.949              1.050              0.464
 Vibration    32          0.962              1.023              0.443

 Optimization completed on the basis of negligible forces.
    -- Stationary point found.
 Normal termination of Gaussian 16 at Sat Dec 12 11:06:06 2020.

 ----------------------------------------------------------------------
 # B3LYP/6-311++G(d,p) empiricaldispersion=gd3bj scf=xqc pop=npa geom=c
 heck
 ----------------------------------------------------------------------

 ---------------------------------------
 CID_117004191_JID_9947_Energie_neutraal
 ---------------------------------------
 Structure from the checkpoint file:  "JID_9947.chk"
 Charge =  0 Multiplicity = 1

 SCF Done:  E(RB3LYP) =  -845.119202848     A.U. after   15 cycles
 Normal termination of Gaussian 16 at Sat Dec 12 11:14:09 2020.

 ----------------------------------------------------------------------
 # B3LYP/6-311++G(d,p) empiricaldispersion=gd3bj scf=xqc pop=npa geom=c
 heck
 ----------------------------------------------------------------------

 -------------------------------------
 CID_117004191_JID_9947_Energie_kation
 -------------------------------------
 Structure from the checkpoint file:  "JID_9947.chk"
 Charge =  1 Multiplicity = 2

 SCF Done:  E(UB3LYP) =  -844.854837615     A.U. after   25 cycles
 Normal termination of Gaussian 16 at Sat Dec 12 11:32:02 2020.
 Gaussian 16:  ES64L-G16RevA.03 25-Dec-2016

 ----------------------------------------------------------------------
 # B3LYP/6-311++G(d,p) empiricaldispersion=gd3bj scf=xqc pop=npa geom=c
 heck
 ----------------------------------------------------------------------

 ------------------------------------
 CID_117004191_JID_9947_Energie_anion
 ------------------------------------
 Structure from the checkpoint file:  "JID_9947.chk"
 Charge = -1 Multiplicity = 2

                         Standard orientation:
 ---------------------------------------------------------------------
 Center     Atomic      Atomic             Coordinates (Angstroms)
 Number     Number       Type             X           Y           Z
 ---------------------------------------------------------------------
      1          6           0       -5.379626   -1.332435   -0.622018
      2          6           0       -4.008394   -0.776879   -0.322505
      3          6           0       -3.312045   -1.164769    0.825950
      4          6           0       -2.059538   -0.634263    1.137970
      5          6           0       -1.474141    0.313699    0.273498
      6          6           0       -2.148134    0.698626   -0.902909
      7          6           0       -3.406035    0.150272   -1.174166
      8          6           0       -1.538772    1.671337   -1.883881
      9          7           0       -0.194085    0.826567    0.614115
     10          6           0        0.029263    2.257858    0.847736
     11          6           0        1.510542    2.467693    0.502408
     12          6           0        2.130136    1.071514    0.661039
     13          6           0        1.003936    0.166389    0.117939
     14          7           0        3.452861    0.987003    0.054979
     15          6           0        4.144674   -0.267505    0.267310
     16          6           0        3.741115   -1.389776   -0.681237
     17          8           0        3.176880   -1.233255   -1.742134
     18          8           0        4.138441   -2.602201   -0.230044
     19          6           0       -1.329479   -1.073217    2.382032
     20          1           0       -5.467943   -2.376233   -0.301568
     21          1           0       -6.161913   -0.766077   -0.099154
     22          1           0       -5.604738   -1.285986   -1.692627
     23          1           0       -3.758812   -1.894394    1.498672
     24          1           0       -3.921261    0.446192   -2.086311
     25          1           0       -1.774235    2.712860   -1.627400
     26          1           0       -0.449451    1.584977   -1.917619
     27          1           0       -1.924994    1.493148   -2.892410
     28          1           0       -0.176579    2.508472    1.899613
     29          1           0       -0.622762    2.895516    0.238441
     30          1           0        1.614974    2.781118   -0.545161
     31          1           0        2.002936    3.219535    1.124416
     32          1           0        2.250994    0.857942    1.731449
     33          1           0        1.058942    0.111927   -0.982732
     34          1           0        1.067638   -0.863574    0.493280
     35          1           0        3.380406    1.157292   -0.947503
     36          1           0        5.227523   -0.127767    0.132167
     37          1           0        4.007270   -0.600725    1.300799
     38          1           0        3.888968   -3.247270   -0.919125
     39          1           0       -1.995432   -1.621256    3.055942
     40          1           0       -0.486141   -1.733842    2.140983
     41          1           0       -0.910394   -0.214453    2.914613
 ---------------------------------------------------------------------

 SCF Done:  E(UB3LYP) =  -845.107558536     A.U. after   33 cycles
 SCF Done:  E(UB3LYP) =  -845.107558536     a.u. after    1 cycles

 The electronic state is 2-A.
 Alpha  occ. eigenvalues --  -19.07694 -19.02641 -14.21628 -14.20887 -10.21382
 Alpha  occ. eigenvalues --  -10.12118 -10.11264 -10.10705 -10.10682 -10.09703
 Alpha  occ. eigenvalues --  -10.09192 -10.09174 -10.08851 -10.08370 -10.08247
 Alpha  occ. eigenvalues --  -10.08134 -10.07692 -10.07580 -10.07174  -1.01837
 Alpha  occ. eigenvalues --   -0.93123  -0.85298  -0.82395  -0.76784  -0.70550
 Alpha  occ. eigenvalues --   -0.69397  -0.67121  -0.64423  -0.61936  -0.61450
 Alpha  occ. eigenvalues --   -0.59126  -0.58221  -0.51800  -0.50821  -0.50102
 Alpha  occ. eigenvalues --   -0.48836  -0.47295  -0.43517  -0.41789  -0.41312
 Alpha  occ. eigenvalues --   -0.40134  -0.39013  -0.38323  -0.36936  -0.35317
 Alpha  occ. eigenvalues --   -0.34759  -0.34248  -0.33613  -0.33186  -0.32550
 Alpha  occ. eigenvalues --   -0.32204  -0.31758  -0.31571  -0.31373  -0.31291
 Alpha  occ. eigenvalues --   -0.30851  -0.29833  -0.28715  -0.28019  -0.27452
 Alpha  occ. eigenvalues --   -0.26121  -0.25250  -0.24897  -0.24601  -0.24281
 Alpha  occ. eigenvalues --   -0.23593  -0.19841  -0.15499  -0.15138  -0.14206
 Alpha  occ. eigenvalues --   -0.11403   0.04000
 Alpha virt. eigenvalues --    0.05434   0.06206   0.06593   0.07140   0.07449
 Alpha virt. eigenvalues --    0.07483   0.07885   0.08072   0.08583   0.09166
 Alpha virt. eigenvalues --    0.09777   0.09997   0.10286   0.10313   0.10926

  Beta  occ. eigenvalues --  -19.07631 -19.02626 -14.21623 -14.20888 -10.21371
  Beta  occ. eigenvalues --  -10.12084 -10.11257 -10.10704 -10.10671 -10.09690
  Beta  occ. eigenvalues --  -10.09192 -10.09174 -10.08849 -10.08349 -10.08239
  Beta  occ. eigenvalues --  -10.08120 -10.07683 -10.07572 -10.07154  -1.01757
  Beta  occ. eigenvalues --   -0.93056  -0.85291  -0.82383  -0.76776  -0.70535
  Beta  occ. eigenvalues --   -0.69384  -0.67094  -0.64383  -0.61883  -0.61420
  Beta  occ. eigenvalues --   -0.59101  -0.58188  -0.51723  -0.50779  -0.50059
  Beta  occ. eigenvalues --   -0.48812  -0.47272  -0.43487  -0.41753  -0.41290
  Beta  occ. eigenvalues --   -0.40102  -0.38969  -0.38298  -0.36904  -0.35277
  Beta  occ. eigenvalues --   -0.34738  -0.34223  -0.33583  -0.33163  -0.32525
  Beta  occ. eigenvalues --   -0.32181  -0.31737  -0.31546  -0.31349  -0.31258
  Beta  occ. eigenvalues --   -0.30828  -0.29805  -0.28685  -0.28002  -0.27430
  Beta  occ. eigenvalues --   -0.26099  -0.25234  -0.24883  -0.24585  -0.24261
  Beta  occ. eigenvalues --   -0.23538  -0.19800  -0.15486  -0.15123  -0.14192
  Beta  occ. eigenvalues --   -0.11397
  Beta virt. eigenvalues --    0.05651   0.06312   0.06763   0.06991   0.07399
  Beta virt. eigenvalues --    0.07547   0.07770   0.08063   0.08518   0.08774
  Beta virt. eigenvalues --    0.09466   0.09922   0.10086   0.10407   0.10472

 Mulliken charges and spin densities:
               1          2
     1  C    1.126727  -1.551809
     2  C    0.225622   0.380568
     3  C   -0.746463   0.228391
     4  C   -0.445973   0.588072
     5  C   -0.309886   0.254388
     6  C   -0.108852   0.112514
     7  C   -0.517498   0.063647
     8  C   -0.048717  -0.611561
     9  N    0.337918   0.045871
    10  C    0.064671  -0.194151
    11  C    0.314020  -0.482087
    12  C   -0.842964  -0.083219
    13  C   -0.294726  -0.136326
    14  N    0.073608   0.107499
    15  C    0.863879  -1.229948
    16  C   -0.005382  -0.047511
    17  O   -0.244307  -0.008033
    18  O   -0.146706   0.059239
    19  C    0.173716  -0.682492
    20  H   -0.053728   0.198762
    21  H    0.009391   0.152176
    22  H   -0.116884   0.259468
    23  H   -0.081919   0.210130
    24  H   -0.109413   0.240611
    25  H   -0.063812   0.233522
    26  H    0.140780   0.019629
    27  H    0.083709   0.054188
    28  H   -0.056445   0.206936
    29  H    0.104888   0.003968
    30  H    0.101361   0.032038
    31  H   -0.071147   0.262610
    32  H    0.126470   0.047784
    33  H    0.146101   0.043035
    34  H    0.286655  -0.123449
    35  H    0.220968   0.002429
    36  H   -0.379636   0.592045
    37  H   -0.073075   0.289503
    38  H   -0.537170   0.844267
    39  H   -0.064310   0.214575
    40  H   -0.096045   0.263738
    41  H    0.014575   0.138983
 Sum of Mulliken charges =  -1.00000   1.00000

 Dipole moment (field-independent basis, Debye):
    X=             -3.6874    Y=              5.0761    Z=              0.3605  Tot=              6.2844
 Quadrupole moment (field-independent basis, Debye-Ang):
   XX=           -216.5308   YY=           -168.6848   ZZ=           -151.5504
   XY=             14.7871   XZ=              0.8824   YZ=             -5.5976

 Summary of Natural Population Analysis:

                                       Natural Population
                Natural  -----------------------------------------------
    Atom  No    Charge         Core      Valence    Rydberg      Total
 -----------------------------------------------------------------------
      C    1   -0.29061      0.99964     2.28601    0.00497     3.29061
      C    2   -0.01316      0.99951     2.00537    0.00828     3.01316
      C    3   -0.10412      0.99947     2.09653    0.00811     3.10412
      C    4   -0.00506      0.99948     1.99583    0.00975     3.00506
      C    5    0.08110      0.99939     1.90822    0.01130     2.91890
      C    6   -0.01271      0.99948     2.00390    0.00934     3.01271
      C    7   -0.10420      0.99948     2.09673    0.00799     3.10420
      C    8   -0.29377      0.99963     2.28944    0.00470     3.29377
      N    9   -0.29449      0.99968     2.78214    0.01267     3.79449
      C   10   -0.07447      0.99962     2.06511    0.00974     3.07447
      C   11   -0.19231      0.99961     2.18486    0.00784     3.19231
      C   12   -0.00951      0.99957     1.99737    0.01257     3.00951
      C   13   -0.08596      0.99958     2.07611    0.01027     3.08596
      N   14   -0.33546      0.99973     2.82367    0.01205     3.83546
      C   15   -0.13741      0.99958     2.12551    0.01232     3.13741
      C   16    0.39888      0.99973     1.57621    0.02518     2.60112
      O   17   -0.31105      0.99987     3.30427    0.00692     4.31105
      O   18   -0.34246      0.99988     3.33553    0.00706     4.34246
      C   19   -0.29168      0.99963     2.28723    0.00483     3.29168
      H   20    0.10209      0.00000     0.39674    0.00117     0.39791
      H   21    0.10271      0.00000     0.39589    0.00140     0.39729
      H   22    0.10141      0.00000     0.39747    0.00112     0.39859
      H   23    0.09619      0.00000     0.40253    0.00128     0.40381
      H   24    0.09518      0.00000     0.40350    0.00132     0.40482
      H   25    0.10258      0.00000     0.39605    0.00137     0.39742
      H   26    0.10559      0.00000     0.39312    0.00129     0.39441
      H   27    0.10280      0.00000     0.39636    0.00084     0.39720
      H   28    0.08640      0.00000     0.41249    0.00111     0.41360
      H   29    0.09005      0.00000     0.40870    0.00125     0.40995
      H   30    0.09407      0.00000     0.40454    0.00139     0.40593
      H   31    0.10405      0.00000     0.39484    0.00112     0.39595
      H   32    0.09257      0.00000     0.40569    0.00174     0.40743
      H   33    0.08884      0.00000     0.40983    0.00133     0.41116
      H   34    0.09708      0.00000     0.40148    0.00144     0.40292
      H   35    0.17773      0.00000     0.31926    0.00301     0.32227
      H   36    0.11042      0.00000     0.38822    0.00137     0.38958
      H   37    0.10896      0.00000     0.38969    0.00135     0.39104
      H   38    0.24631      0.00000     0.22964    0.02406     0.25369
      H   39    0.09859      0.00000     0.40054    0.00087     0.40141
      H   40    0.10677      0.00000     0.39194    0.00129     0.39323
      H   41    0.10807      0.00000     0.39048    0.00144     0.39193
 =======================================================================
   * Total *   -0.00000     18.99257    51.76902    0.23841    71.00000

 Normal termination of Gaussian 16 at Sat Dec 12 11:55:39 2020.
