 Gaussian 16, Revision A.03,

 -----------------------------------------------------------
 # opt freq B3LYP/6-31G(d) empiricaldispersion=gd3bj scf=xqc
 -----------------------------------------------------------

 -------------------------------
 CID_113342019_JID_7925_neutraal
 -------------------------------
 Symbolic Z-matrix:
 Charge =  0 Multiplicity = 1

 SCF Done:  E(RB3LYP) =  -748.865722219     A.U. after   15 cycles
 SCF Done:  E(RB3LYP) =  -748.887681112     A.U. after   13 cycles
 SCF Done:  E(RB3LYP) =  -748.889607339     A.U. after   14 cycles
 SCF Done:  E(RB3LYP) =  -748.885095878     A.U. after   15 cycles
 SCF Done:  E(RB3LYP) =  -748.890680279     A.U. after   12 cycles
 SCF Done:  E(RB3LYP) =  -748.888908060     A.U. after   14 cycles
 SCF Done:  E(RB3LYP) =  -748.891319765     A.U. after   12 cycles
 SCF Done:  E(RB3LYP) =  -748.891403074     A.U. after   12 cycles
 SCF Done:  E(RB3LYP) =  -748.891509992     A.U. after   12 cycles
 SCF Done:  E(RB3LYP) =  -748.891517414     A.U. after    9 cycles
 SCF Done:  E(RB3LYP) =  -748.891533049     A.U. after   11 cycles
 SCF Done:  E(RB3LYP) =  -748.891533624     A.U. after   10 cycles
 SCF Done:  E(RB3LYP) =  -748.891534458     A.U. after    9 cycles
 SCF Done:  E(RB3LYP) =  -748.891534503     A.U. after    7 cycles
 SCF Done:  E(RB3LYP) =  -748.891534515     A.U. after    6 cycles
 Optimization completed.
    -- Stationary point found.
 Normal termination of Gaussian 16 at Fri Dec 11 13:17:21 2020.

 --------------------------------------------------------------------
 #N Geom=AllCheck Guess=TCheck SCRF=Check GenChk RB3LYP/6-31G(d) Freq
 --------------------------------------------------------------------

 Structure from the checkpoint file:  "JID_7925.chk"
 -------------------------------
 CID_113342019_JID_7925_neutraal
 -------------------------------
 Charge =  0 Multiplicity = 1

 SCF Done:  E(RB3LYP) =  -748.891534515     A.U. after    1 cycles

  Exact polarizability: 223.675  15.634 149.634 -12.564  -0.688  97.454
 Approx polarizability: 294.753  20.793 237.812 -22.800  -3.997 145.557

                      1                      2                      3
                      A                      A                      A
 Frequencies --     15.4911                19.1820                24.2805
 Red. masses --      3.9960                 1.0230                 4.1842
 Frc consts  --      0.0006                 0.0002                 0.0015
 IR Inten    --      0.1220                 0.0027                 0.2814

                      4                      5                      6
                      A                      A                      A
 Frequencies --     82.5691                84.4650                98.7538
 Red. masses --      3.6811                 4.0906                 3.9649
 Frc consts  --      0.0148                 0.0172                 0.0228
 IR Inten    --      3.5673                 0.2040                 0.7886

                      7                      8                      9
                      A                      A                      A
 Frequencies --    128.5279               171.5569               203.2524
 Red. masses --      3.9330                 3.9348                 2.7579
 Frc consts  --      0.0383                 0.0682                 0.0671
 IR Inten    --      0.3801                 0.4326                 3.3757

                     10                     11                     12
                      A                      A                      A
 Frequencies --    222.3464               237.1951               276.4564
 Red. masses --      2.0583                 3.0411                 2.6100
 Frc consts  --      0.0600                 0.1008                 0.1175
 IR Inten    --      0.4523                 7.2405                 5.0016

                     13                     14                     15
                      A                      A                      A
 Frequencies --    290.9939               301.3887               337.1599
 Red. masses --      3.8313                 3.6257                 4.0762
 Frc consts  --      0.1911                 0.1940                 0.2730
 IR Inten    --      2.8407                 3.7585                 5.0708

                     16                     17                     18
                      A                      A                      A
 Frequencies --    364.9939               367.1013               367.8463
 Red. masses --      3.5012                 3.8304                 4.7643
 Frc consts  --      0.2748                 0.3041                 0.3798
 IR Inten    --      2.0743                 1.1652                 3.2938

                     19                     20                     21
                      A                      A                      A
 Frequencies --    426.0261               471.0508               513.0030
 Red. masses --      5.2386                 5.3204                 5.7681
 Frc consts  --      0.5602                 0.6956                 0.8944
 IR Inten    --      0.8603                 2.9428                 3.9593

                     22                     23                     24
                      A                      A                      A
 Frequencies --    528.8715               554.8149               587.2360
 Red. masses --      4.8060                 3.9250                 3.7248
 Frc consts  --      0.7920                 0.7119                 0.7568
 IR Inten    --      1.4822                 0.5096                 9.1491

                     25                     26                     27
                      A                      A                      A
 Frequencies --    621.4514               637.4490               699.3602
 Red. masses --      3.0516                 3.1869                 2.9824
 Frc consts  --      0.6944                 0.7630                 0.8594
 IR Inten    --      2.2272                 7.5697                22.8138

                     28                     29                     30
                      A                      A                      A
 Frequencies --    730.5909               779.5324               784.3692
 Red. masses --      3.9738                 1.9605                 1.6201
 Frc consts  --      1.2497                 0.7019                 0.5873
 IR Inten    --      5.3683               131.2781                16.4906

                     31                     32                     33
                      A                      A                      A
 Frequencies --    796.9982               802.4824               816.7535
 Red. masses --      2.1252                 1.6971                 3.4067
 Frc consts  --      0.7954                 0.6439                 1.3390
 IR Inten    --     12.1001                 8.4287                41.9804

                     34                     35                     36
                      A                      A                      A
 Frequencies --    881.3117               895.4679               938.4277
 Red. masses --      3.4216                 1.4078                 3.6180
 Frc consts  --      1.5658                 0.6651                 1.8773
 IR Inten    --      1.7454                 2.8008                 7.4080

                     37                     38                     39
                      A                      A                      A
 Frequencies --    945.2490               957.7247               996.8868
 Red. masses --      2.1479                 1.2666                 2.6280
 Frc consts  --      1.1307                 0.6845                 1.5387
 IR Inten    --      9.6497                 3.6745                13.3264

                     40                     41                     42
                      A                      A                      A
 Frequencies --   1016.0828              1020.7127              1069.1872
 Red. masses --      1.7773                 2.0186                 1.4095
 Frc consts  --      1.0811                 1.2391                 0.9493
 IR Inten    --     23.3100                44.8134                 2.3583

                     43                     44                     45
                      A                      A                      A
 Frequencies --   1073.4788              1091.4699              1098.7530
 Red. masses --      1.3906                 2.7199                 3.0317
 Frc consts  --      0.9441                 1.9091                 2.1564
 IR Inten    --      1.4864                18.2822                14.1218

                     46                     47                     48
                      A                      A                      A
 Frequencies --   1103.7592              1125.9785              1145.1193
 Red. masses --      2.4284                 2.1003                 2.2286
 Frc consts  --      1.7431                 1.5689                 1.7218
 IR Inten    --     37.2079                76.2270                17.4644

                     49                     50                     51
                      A                      A                      A
 Frequencies --   1161.3039              1186.5498              1197.0305
 Red. masses --      4.0916                 3.1897                 1.2433
 Frc consts  --      3.2511                 2.6459                 1.0496
 IR Inten    --     11.4111                10.5088                 2.5675

                     52                     53                     54
                      A                      A                      A
 Frequencies --   1215.1811              1240.2315              1272.3093
 Red. masses --      3.2175                 1.1194                 1.3411
 Frc consts  --      2.7993                 1.0145                 1.2790
 IR Inten    --     26.2527                 1.1242                 1.6087

                     55                     56                     57
                      A                      A                      A
 Frequencies --   1273.6331              1300.0394              1306.4475
 Red. masses --      1.6871                 1.9744                 1.5929
 Frc consts  --      1.6124                 1.9660                 1.6019
 IR Inten    --     11.5153               186.1526                53.6815

                     58                     59                     60
                      A                      A                      A
 Frequencies --   1314.1322              1327.3580              1343.9598
 Red. masses --      1.2172                 1.6572                 2.0327
 Frc consts  --      1.2385                 1.7203                 2.1632
 IR Inten    --     10.4102                27.9614                61.8916

                     61                     62                     63
                      A                      A                      A
 Frequencies --   1389.3666              1398.7216              1407.1439
 Red. masses --      1.6592                 1.4524                 1.3294
 Frc consts  --      1.8870                 1.6742                 1.5509
 IR Inten    --     25.4029                 0.6382                37.5861

                     64                     65                     66
                      A                      A                      A
 Frequencies --   1416.0601              1441.1147              1444.8547
 Red. masses --      1.3937                 1.3111                 1.2415
 Frc consts  --      1.6466                 1.6043                 1.5270
 IR Inten    --     47.4885                75.5649                 5.4793

                     67                     68                     69
                      A                      A                      A
 Frequencies --   1492.0554              1501.1764              1507.7655
 Red. masses --      1.1613                 2.0518                 1.1660
 Frc consts  --      1.5232                 2.7243                 1.5617
 IR Inten    --      9.4909               100.6712                38.7664

                     70                     71                     72
                      A                      A                      A
 Frequencies --   1508.8562              1509.8104              1510.1523
 Red. masses --      1.0881                 1.2572                 1.0424
 Frc consts  --      1.4596                 1.6885                 1.4007
 IR Inten    --     14.3457                 8.2322                 6.0588

                     73                     74                     75
                      A                      A                      A
 Frequencies --   1518.6739              1536.2341              1536.6302
 Red. masses --      1.9159                 1.1813                 1.1626
 Frc consts  --      2.6035                 1.6425                 1.6174
 IR Inten    --     39.8774                 7.0254                 9.7314

                     76                     77                     78
                      A                      A                      A
 Frequencies --   1538.0020              1646.0797              1653.4344
 Red. masses --      1.1304                 7.1227                 6.0017
 Frc consts  --      1.5755                11.3709                 9.6671
 IR Inten    --     15.7484                28.6764                 2.6075

                     79                     80                     81
                      A                      A                      A
 Frequencies --   2379.4870              2962.8483              3031.3876
 Red. masses --     11.8246                 1.0720                 1.0863
 Frc consts  --     39.4460                 5.5447                 5.8814
 IR Inten    --      3.0850                42.6615                25.7517

                     82                     83                     84
                      A                      A                      A
 Frequencies --   3038.3668              3044.3760              3053.5561
 Red. masses --      1.0346                 1.0667                 1.0590
 Frc consts  --      5.6274                 5.8249                 5.8179
 IR Inten    --     41.9096                26.9877                18.3472

                     85                     86                     87
                      A                      A                      A
 Frequencies --   3061.2361              3065.2818              3091.2477
 Red. masses --      1.0649                 1.0631                 1.0969
 Frc consts  --      5.8797                 5.8855                 6.1757
 IR Inten    --     49.8570                26.0946                12.5397

                     88                     89                     90
                      A                      A                      A
 Frequencies --   3095.7323              3098.2734              3099.9565
 Red. masses --      1.0992                 1.1017                 1.1013
 Frc consts  --      6.2068                 6.2307                 6.2353
 IR Inten    --     36.3523                14.3858                13.1668

                     91                     92                     93
                      A                      A                      A
 Frequencies --   3122.6447              3125.1984              3189.0831
 Red. masses --      1.1063                 1.1079                 1.0856
 Frc consts  --      6.3559                 6.3754                 6.5053
 IR Inten    --     36.4920                39.1501                 5.0856

                     94                     95                     96
                      A                      A                      A
 Frequencies --   3203.7266              3218.8417              3512.4535
 Red. masses --      1.0913                 1.0952                 1.0741
 Frc consts  --      6.5992                 6.6855                 7.8078
 IR Inten    --     18.9940                12.5805                 0.4001

 - Thermochemistry -
 -------------------
 Temperature   298.150 Kelvin.  Pressure   1.00000 Atm.
 Atom     1 has atomic number  6 and mass  12.00000

 Molecular mass:   231.12593 amu.
 Principal axes and moments of inertia in atomic units:
                           1         2         3
     Eigenvalues --  1593.824169086.88042**********
           X            0.99995   0.01013  -0.00178
           Y           -0.01012   0.99995   0.00136
           Z            0.00180  -0.00134   1.00000
 This molecule is an asymmetric top.
 Rotational symmetry number  1.
 Warning -- assumption of classical behavior for rotation
           may cause significant error
 Rotational temperatures (Kelvin)      0.05434     0.00953     0.00858
 Rotational constants (GHZ):           1.13233     0.19861     0.17882
 Zero-point vibrational energy     754790.8 (Joules/Mol)
                                  180.39933 (Kcal/Mol)
 Warning -- explicit consideration of  24 degrees of freedom as
           vibrations may cause significant error
 Vibrational temperatures:     22.29    27.60    34.93   118.80   121.53
          (Kelvin)            142.08   184.92   246.83   292.43   319.91
                              341.27   397.76   418.68   433.63   485.10
                              525.14   528.18   529.25   612.96   677.74
                              738.10   760.93   798.25   844.90   894.13
                              917.15  1006.22  1051.16  1121.57  1128.53
                             1146.70  1154.59  1175.13  1268.01  1288.38
                             1350.19  1360.00  1377.95  1434.30  1461.92
                             1468.58  1538.32  1544.50  1570.38  1580.86
                             1588.06  1620.03  1647.57  1670.86  1707.18
                             1722.26  1748.37  1784.42  1830.57  1832.47
                             1870.47  1879.69  1890.74  1909.77  1933.66
                             1998.99  2012.45  2024.57  2037.39  2073.44
                             2078.82  2146.73  2159.86  2169.34  2170.91
                             2172.28  2172.77  2185.03  2210.30  2210.87
                             2212.84  2368.34  2378.92  3423.55  4262.88
                             4361.49  4371.53  4380.18  4393.39  4404.44
                             4410.26  4447.62  4454.07  4457.72  4460.15
                             4492.79  4496.46  4588.38  4609.45  4631.20
                             5053.64

 Zero-point correction=                           0.287485 (Hartree/Particle)
 Thermal correction to Energy=                    0.303857
 Thermal correction to Enthalpy=                  0.304801
 Thermal correction to Gibbs Free Energy=         0.240570
 Sum of electronic and zero-point Energies=           -748.604050
 Sum of electronic and thermal Energies=              -748.587678
 Sum of electronic and thermal Enthalpies=            -748.586734
 Sum of electronic and thermal Free Energies=         -748.650964

                     E (Thermal)             CV                S
                      KCal/Mol        Cal/Mol-Kelvin    Cal/Mol-Kelvin
 Total                  190.673             61.329            135.185
 Electronic               0.000              0.000              0.000
 Translational            0.889              2.981             42.215
 Rotational               0.889              2.981             33.346
 Vibrational            188.896             55.368             59.623
 Vibration     1          0.593              1.986              7.142
 Vibration     2          0.593              1.986              6.717
 Vibration     3          0.593              1.985              6.249
 Vibration     4          0.600              1.961              3.829
 Vibration     5          0.601              1.960              3.784
 Vibration     6          0.604              1.950              3.479
 Vibration     7          0.611              1.925              2.968
 Vibration     8          0.626              1.877              2.418
 Vibration     9          0.639              1.835              2.103
 Vibration    10          0.648              1.807              1.940
 Vibration    11          0.656              1.784              1.824
 Vibration    12          0.678              1.717              1.555
 Vibration    13          0.687              1.690              1.468
 Vibration    14          0.693              1.671              1.409
 Vibration    15          0.718              1.601              1.226
 Vibration    16          0.738              1.544              1.101
 Vibration    17          0.740              1.540              1.092
 Vibration    18          0.740              1.538              1.089
 Vibration    19          0.788              1.414              0.872
 Vibration    20          0.828              1.314              0.735
 Vibration    21          0.868              1.221              0.626
 Vibration    22          0.884              1.186              0.590
 Vibration    23          0.910              1.129              0.534
 Vibration    24          0.944              1.059              0.472

 Optimization completed.
    -- Stationary point found.
 Normal termination of Gaussian 16 at Fri Dec 11 13:28:30 2020.

 ----------------------------------------------------------------------
 # B3LYP/6-311++G(d,p) empiricaldispersion=gd3bj scf=xqc pop=npa geom=c
 heck
 ----------------------------------------------------------------------

 ---------------------------------------
 CID_113342019_JID_7925_Energie_neutraal
 ---------------------------------------
 Structure from the checkpoint file:  "JID_7925.chk"
 Charge =  0 Multiplicity = 1

 SCF Done:  E(RB3LYP) =  -749.099075023     A.U. after   16 cycles
 Normal termination of Gaussian 16 at Fri Dec 11 13:34:24 2020.

 ----------------------------------------------------------------------
 # B3LYP/6-311++G(d,p) empiricaldispersion=gd3bj scf=xqc pop=npa geom=c
 heck
 ----------------------------------------------------------------------

 -------------------------------------
 CID_113342019_JID_7925_Energie_kation
 -------------------------------------
 Structure from the checkpoint file:  "JID_7925.chk"
 Charge =  1 Multiplicity = 2

 SCF Done:  E(UB3LYP) =  -748.816867386     A.U. after   28 cycles
 Normal termination of Gaussian 16 at Fri Dec 11 13:49:32 2020.
 Gaussian 16:  ES64L-G16RevA.03 25-Dec-2016

 ----------------------------------------------------------------------
 # B3LYP/6-311++G(d,p) empiricaldispersion=gd3bj scf=xqc pop=npa geom=c
 heck
 ----------------------------------------------------------------------

 ------------------------------------
 CID_113342019_JID_7925_Energie_anion
 ------------------------------------
 Structure from the checkpoint file:  "JID_7925.chk"
 Charge = -1 Multiplicity = 2

                         Standard orientation:
 ---------------------------------------------------------------------
 Center     Atomic      Atomic             Coordinates (Angstroms)
 Number     Number       Type             X           Y           Z
 ---------------------------------------------------------------------
      1          6           0        6.780982    0.264986    0.328533
      2          6           0        5.371158   -0.099080    0.436323
      3          6           0        4.208204   -0.414637    0.531950
      4          6           0        2.789449   -0.757051    0.622331
      5          7           0        2.242372   -1.111157   -0.694638
      6          6           0        0.791967   -1.227692   -0.706115
      7          6           0       -0.016031    0.049849   -0.483333
      8          6           0       -1.385522   -0.063857   -0.196796
      9          6           0       -2.170133    1.088127   -0.000330
     10          6           0       -1.588247    2.349713   -0.141972
     11          6           0       -0.237523    2.467460   -0.450420
     12          6           0        0.544645    1.322072   -0.604285
     13          8           0       -3.511587    1.056710    0.308520
     14          6           0       -3.930664    0.014011    1.197232
     15          6           0       -4.271356   -1.266937    0.436645
     16          6           0       -3.209309   -1.547332   -0.625309
     17          8           0       -1.887601   -1.346510   -0.109863
     18          1           0        7.372981   -0.203444    1.124142
     19          1           0        6.923751    1.349905    0.403022
     20          1           0        7.201246   -0.060834   -0.630656
     21          1           0        2.653863   -1.626299    1.281613
     22          1           0        2.249819    0.078495    1.102852
     23          1           0        2.562293   -0.438893   -1.387707
     24          1           0        0.494586   -1.669606   -1.666206
     25          1           0        0.509421   -1.965507    0.052534
     26          1           0       -2.218822    3.219452    0.011122
     27          1           0        0.210383    3.451438   -0.552112
     28          1           0        1.602130    1.419137   -0.830991
     29          1           0       -4.805109    0.405777    1.724198
     30          1           0       -3.141050   -0.173448    1.933618
     31          1           0       -4.334439   -2.096368    1.151525
     32          1           0       -5.247730   -1.179122   -0.055213
     33          1           0       -3.244626   -2.589008   -0.956247
     34          1           0       -3.357507   -0.902967   -1.499004
 ---------------------------------------------------------------------

 SCF Done:  E(UB3LYP) =  -749.086273085     A.U. after   33 cycles
 SCF Done:  E(UB3LYP) =  -749.086273086     a.u. after    1 cycles

 The electronic state is 2-A.
 Alpha  occ. eigenvalues --  -19.06293 -19.06263 -14.21906 -10.14912 -10.14718
 Alpha  occ. eigenvalues --  -10.13912 -10.13834 -10.12961 -10.11423 -10.09981
 Alpha  occ. eigenvalues --  -10.09793 -10.09093 -10.08940 -10.08755 -10.08521
 Alpha  occ. eigenvalues --  -10.07993 -10.07335  -0.99073  -0.96555  -0.83159
 Alpha  occ. eigenvalues --   -0.77369  -0.70683  -0.70000  -0.68449  -0.64944
 Alpha  occ. eigenvalues --   -0.64517  -0.61461  -0.59420  -0.56565  -0.52501
 Alpha  occ. eigenvalues --   -0.51418  -0.50484  -0.44202  -0.43451  -0.42803
 Alpha  occ. eigenvalues --   -0.42476  -0.39462  -0.38843  -0.37726  -0.37371
 Alpha  occ. eigenvalues --   -0.36601  -0.35729  -0.34226  -0.34006  -0.33423
 Alpha  occ. eigenvalues --   -0.33287  -0.33014  -0.32453  -0.31177  -0.30273
 Alpha  occ. eigenvalues --   -0.28994  -0.28110  -0.27589  -0.25956  -0.24239
 Alpha  occ. eigenvalues --   -0.22433  -0.21638  -0.17769  -0.17377  -0.15547
 Alpha  occ. eigenvalues --   -0.14714  -0.13701   0.03875
 Alpha virt. eigenvalues --    0.04823   0.06542   0.06656   0.07344   0.07447
 Alpha virt. eigenvalues --    0.07815   0.08115   0.08390   0.08818   0.09021
 Alpha virt. eigenvalues --    0.09613   0.09980   0.10526   0.10821   0.11533

  Beta  occ. eigenvalues --  -19.06294 -19.06263 -14.21903 -10.14903 -10.14704
  Beta  occ. eigenvalues --  -10.13889 -10.13811 -10.12953 -10.11418 -10.09924
  Beta  occ. eigenvalues --  -10.09795 -10.09082 -10.08940 -10.08746 -10.08484
  Beta  occ. eigenvalues --  -10.07990 -10.07332  -0.99064  -0.96548  -0.83152
  Beta  occ. eigenvalues --   -0.77351  -0.70639  -0.69975  -0.68421  -0.64908
  Beta  occ. eigenvalues --   -0.64484  -0.61420  -0.59383  -0.56540  -0.52446
  Beta  occ. eigenvalues --   -0.51385  -0.50461  -0.44180  -0.43433  -0.42772
  Beta  occ. eigenvalues --   -0.42445  -0.39434  -0.38813  -0.37692  -0.37326
  Beta  occ. eigenvalues --   -0.36583  -0.35694  -0.34181  -0.33951  -0.33391
  Beta  occ. eigenvalues --   -0.33264  -0.32992  -0.32410  -0.31154  -0.30257
  Beta  occ. eigenvalues --   -0.28980  -0.28080  -0.27562  -0.25931  -0.24211
  Beta  occ. eigenvalues --   -0.22392  -0.21616  -0.17752  -0.17361  -0.15529
  Beta  occ. eigenvalues --   -0.14704  -0.13658
  Beta virt. eigenvalues --    0.05757   0.06155   0.06808   0.06811   0.07665
  Beta virt. eigenvalues --    0.07759   0.08018   0.08495   0.08719   0.09243
  Beta virt. eigenvalues --    0.09458   0.09941   0.10193   0.10826   0.10992

 Mulliken charges and spin densities:
               1          2
     1  C    2.066157  -2.597179
     2  C   -1.002568   1.041781
     3  C    0.217905  -0.153022
     4  C   -0.987189   0.472438
     5  N   -0.027028  -0.000147
     6  C   -0.290434  -0.285854
     7  C    0.920230  -0.092360
     8  C   -0.091992   0.395516
     9  C   -0.453814  -0.047351
    10  C    0.471412  -0.655614
    11  C   -0.493309   0.060495
    12  C   -0.520278   0.034719
    13  O   -0.122724   0.041012
    14  C   -0.376112   0.142130
    15  C    1.661718  -2.034308
    16  C   -0.338273   0.198875
    17  O   -0.136202   0.043933
    18  H   -0.298514   0.457988
    19  H   -0.343961   0.504102
    20  H   -0.262939   0.423614
    21  H    0.034615   0.114212
    22  H    0.109771   0.022219
    23  H    0.192708   0.002928
    24  H    0.118875   0.105426
    25  H    0.117386   0.082046
    26  H    0.095845   0.075993
    27  H    0.031919   0.135559
    28  H    0.096501   0.048574
    29  H   -0.574503   0.775383
    30  H    0.149828   0.030280
    31  H   -0.360198   0.524942
    32  H   -0.294880   0.453208
    33  H   -0.396250   0.593243
    34  H    0.086299   0.085219
 Sum of Mulliken charges =  -1.00000   1.00000

 Dipole moment (field-independent basis, Debye):
    X=             -2.0500    Y=              2.3434    Z=             -1.4494  Tot=              3.4343
 Quadrupole moment (field-independent basis, Debye-Ang):
   XX=           -267.1908   YY=           -140.9585   ZZ=           -128.2758
   XY=            -12.5980   XZ=              2.7841   YZ=             -0.8489

 Summary of Natural Population Analysis:

                                       Natural Population
                Natural  -----------------------------------------------
    Atom  No    Charge         Core      Valence    Rydberg      Total
 -----------------------------------------------------------------------
      C    1   -0.33136      0.99965     2.32066    0.01106     3.33136
      C    2    0.04169      0.99924     1.95138    0.00769     2.95831
      C    3   -0.04564      0.99931     2.03486    0.01147     3.04564
      C    4   -0.12400      0.99957     2.11378    0.01065     3.12400
      N    5   -0.32992      0.99975     2.81881    0.01136     3.82992
      C    6   -0.09528      0.99959     2.08468    0.01101     3.09528
      C    7   -0.03424      0.99947     2.02623    0.00853     3.03424
      C    8    0.13248      0.99928     1.85616    0.01208     2.86752
      C    9    0.13518      0.99933     1.85334    0.01215     2.86482
      C   10   -0.11903      0.99953     2.10995    0.00955     3.11903
      C   11   -0.10302      0.99957     2.09384    0.00960     3.10302
      C   12   -0.11438      0.99952     2.10642    0.00845     3.11438
      O   13   -0.28607      0.99986     3.27657    0.00964     4.28607
      C   14   -0.01080      0.99956     1.99762    0.01362     3.01080
      C   15   -0.21444      0.99963     2.20587    0.00895     3.21444
      C   16   -0.00998      0.99956     1.99696    0.01347     3.00998
      O   17   -0.28793      0.99986     3.27870    0.00937     4.28793
      H   18    0.11259      0.00000     0.38578    0.00162     0.38741
      H   19    0.11258      0.00000     0.38557    0.00185     0.38742
      H   20    0.11309      0.00000     0.38528    0.00164     0.38691
      H   21    0.10284      0.00000     0.39551    0.00165     0.39716
      H   22    0.09826      0.00000     0.39980    0.00193     0.40174
      H   23    0.17299      0.00000     0.32397    0.00304     0.32701
      H   24    0.10375      0.00000     0.39502    0.00123     0.39625
      H   25    0.10433      0.00000     0.39415    0.00152     0.39567
      H   26    0.10629      0.00000     0.39268    0.00103     0.39371
      H   27    0.10038      0.00000     0.39886    0.00075     0.39962
      H   28    0.10019      0.00000     0.39775    0.00206     0.39981
      H   29    0.09642      0.00000     0.40179    0.00179     0.40358
      H   30    0.08659      0.00000     0.41182    0.00159     0.41341
      H   31    0.10429      0.00000     0.39353    0.00218     0.39571
      H   32    0.10423      0.00000     0.39354    0.00222     0.39577
      H   33    0.09637      0.00000     0.40214    0.00149     0.40363
      H   34    0.08661      0.00000     0.41188    0.00151     0.41339
 =======================================================================
   * Total *    0.00506     16.99228    44.79489    0.20777    61.99494

 Normal termination of Gaussian 16 at Fri Dec 11 14:07:27 2020.
