 Gaussian 16, Revision A.03,

 -----------------------------------------------------------
 # opt freq B3LYP/6-31G(d) empiricaldispersion=gd3bj scf=xqc
 -----------------------------------------------------------

 ------------------------------
 CID_61751488_JID_9339_neutraal
 ------------------------------
 Symbolic Z-matrix:
 Charge =  0 Multiplicity = 1

 SCF Done:  E(RB3LYP) =  -844.883493286     A.U. after   15 cycles
 SCF Done:  E(RB3LYP) =  -844.890200361     A.U. after   12 cycles
 SCF Done:  E(RB3LYP) =  -844.890249744     A.U. after   14 cycles
 SCF Done:  E(RB3LYP) =  -844.890820200     A.U. after   12 cycles
 SCF Done:  E(RB3LYP) =  -844.891586160     A.U. after   12 cycles
 SCF Done:  E(RB3LYP) =  -844.892031374     A.U. after   12 cycles
 SCF Done:  E(RB3LYP) =  -844.892485196     A.U. after   13 cycles
 SCF Done:  E(RB3LYP) =  -844.892744395     A.U. after   12 cycles
 SCF Done:  E(RB3LYP) =  -844.893018429     A.U. after   12 cycles
 SCF Done:  E(RB3LYP) =  -844.893102703     A.U. after   11 cycles
 SCF Done:  E(RB3LYP) =  -844.893330160     A.U. after    7 cycles
 SCF Done:  E(RB3LYP) =  -844.893330073     A.U. after    7 cycles
 SCF Done:  E(RB3LYP) =  -844.893330000     A.U. after    8 cycles
 SCF Done:  E(RB3LYP) =  -844.893329972     A.U. after    8 cycles
 SCF Done:  E(RB3LYP) =  -844.893330264     A.U. after    9 cycles
 SCF Done:  E(RB3LYP) =  -844.893329974     A.U. after    9 cycles
 Optimization completed.
    -- Stationary point found.
 Normal termination of Gaussian 16 at Mon Dec 14 17:01:06 2020.

 --------------------------------------------------------------------
 #N Geom=AllCheck Guess=TCheck SCRF=Check GenChk RB3LYP/6-31G(d) Freq
 --------------------------------------------------------------------

 Structure from the checkpoint file:  "JID_9339.chk"
 ------------------------------
 CID_61751488_JID_9339_neutraal
 ------------------------------
 Charge =  0 Multiplicity = 1

 SCF Done:  E(RB3LYP) =  -844.893329974     A.U. after    1 cycles

  Exact polarizability: 198.992  11.263 170.664 -11.172  18.763 141.519
 Approx polarizability: 270.332  14.838 252.476 -21.653  45.352 228.250

                      1                      2                      3
                      A                      A                      A
 Frequencies --     17.5169                34.0185                50.1661
 Red. masses --      3.8617                 4.1015                 3.9842
 Frc consts  --      0.0007                 0.0028                 0.0059
 IR Inten    --      0.3245                 4.3141                 1.5244

                      4                      5                      6
                      A                      A                      A
 Frequencies --     53.4506                64.1339                86.8659
 Red. masses --      3.1442                 2.1008                 2.1429
 Frc consts  --      0.0053                 0.0051                 0.0095
 IR Inten    --      0.4938                 1.4254                 0.9267

                      7                      8                      9
                      A                      A                      A
 Frequencies --     94.2443               104.4168               138.4277
 Red. masses --      3.2762                 3.6039                 1.2765
 Frc consts  --      0.0171                 0.0232                 0.0144
 IR Inten    --      2.5233                 3.6492                 0.8286

                     10                     11                     12
                      A                      A                      A
 Frequencies --    141.7557               164.2825               178.4511
 Red. masses --      2.2416                 1.4393                 2.3506
 Frc consts  --      0.0265                 0.0229                 0.0441
 IR Inten    --      2.5829                 0.7585                 0.0817

                     13                     14                     15
                      A                      A                      A
 Frequencies --    197.6228               220.7224               236.8926
 Red. masses --      4.6887                 2.5876                 3.8274
 Frc consts  --      0.1079                 0.0743                 0.1265
 IR Inten    --      1.3456                 2.5849                 3.2665

                     16                     17                     18
                      A                      A                      A
 Frequencies --    256.8508               270.7446               298.6838
 Red. masses --      2.0695                 1.5933                 2.8311
 Frc consts  --      0.0804                 0.0688                 0.1488
 IR Inten    --      3.9763                 1.7102                 0.0429

                     19                     20                     21
                      A                      A                      A
 Frequencies --    314.1554               315.6302               347.1164
 Red. masses --      3.2469                 3.7287                 2.5241
 Frc consts  --      0.1888                 0.2189                 0.1792
 IR Inten    --      1.5795                 0.6841                 0.8730

                     22                     23                     24
                      A                      A                      A
 Frequencies --    421.1755               455.2564               491.6454
 Red. masses --      2.9467                 3.0409                 3.9763
 Frc consts  --      0.3080                 0.3713                 0.5663
 IR Inten    --      1.0534                 0.7423                 4.1313

                     25                     26                     27
                      A                      A                      A
 Frequencies --    509.5696               526.3025               565.7074
 Red. masses --      3.4350                 3.6465                 3.9432
 Frc consts  --      0.5255                 0.5951                 0.7435
 IR Inten    --      0.8807                 0.8980                 2.7301

                     28                     29                     30
                      A                      A                      A
 Frequencies --    573.2331               626.0186               681.4048
 Red. masses --      4.0618                 4.8188                 4.2987
 Frc consts  --      0.7864                 1.1127                 1.1760
 IR Inten    --      2.3672                12.5593                 2.3825

                     31                     32                     33
                      A                      A                      A
 Frequencies --    715.0923               720.1065               736.3423
 Red. masses --      4.7674                 2.8856                 2.3333
 Frc consts  --      1.4363                 0.8816                 0.7454
 IR Inten    --     13.6695                20.2711                17.8291

                     34                     35                     36
                      A                      A                      A
 Frequencies --    746.6781               769.0454               790.4405
 Red. masses --      7.1662                 4.3510                 2.8239
 Frc consts  --      2.3540                 1.5162                 1.0395
 IR Inten    --     42.4005                 0.9725                18.9991

                     37                     38                     39
                      A                      A                      A
 Frequencies --    827.3913               831.7934               858.0653
 Red. masses --      1.3504                 1.7338                 1.7395
 Frc consts  --      0.5447                 0.7068                 0.7546
 IR Inten    --      6.5847                13.9728                 6.3705

                     40                     41                     42
                      A                      A                      A
 Frequencies --    896.5325               907.8910               926.3196
 Red. masses --      1.4795                 1.8605                 2.6468
 Frc consts  --      0.7006                 0.9035                 1.3381
 IR Inten    --      0.1770                12.2867                 1.8066

                     43                     44                     45
                      A                      A                      A
 Frequencies --    946.4711               965.1327               976.2613
 Red. masses --      1.4890                 1.7492                 1.3889
 Frc consts  --      0.7859                 0.9600                 0.7799
 IR Inten    --      5.8435                 2.7671                 3.2088

                     46                     47                     48
                      A                      A                      A
 Frequencies --    991.2410              1016.4308              1027.6477
 Red. masses --      2.5104                 1.7128                 1.6385
 Frc consts  --      1.4533                 1.0426                 1.0195
 IR Inten    --      9.4586                12.1889                 4.5584

                     49                     50                     51
                      A                      A                      A
 Frequencies --   1045.1686              1058.6365              1061.1682
 Red. masses --      2.0909                 2.6063                 1.4409
 Frc consts  --      1.3457                 1.7209                 0.9560
 IR Inten    --      1.6405                 3.2864                 4.8179

                     52                     53                     54
                      A                      A                      A
 Frequencies --   1081.6702              1085.8896              1107.4168
 Red. masses --      3.9194                 1.5958                 4.3977
 Frc consts  --      2.7019                 1.1087                 3.1776
 IR Inten    --     49.8937                 0.0795                74.3151

                     55                     56                     57
                      A                      A                      A
 Frequencies --   1147.0590              1152.2973              1155.5713
 Red. masses --      2.1657                 2.3092                 1.6023
 Frc consts  --      1.6789                 1.8065                 1.2606
 IR Inten    --     63.4394                 5.2970                 3.9183

                     58                     59                     60
                      A                      A                      A
 Frequencies --   1166.2510              1188.2251              1195.8239
 Red. masses --      2.5854                 1.8474                 1.5900
 Frc consts  --      2.0718                 1.5368                 1.3396
 IR Inten    --     71.7226                 1.2489                28.0605

                     61                     62                     63
                      A                      A                      A
 Frequencies --   1240.3024              1244.6617              1254.1987
 Red. masses --      1.7887                 1.1985                 1.9154
 Frc consts  --      1.6212                 1.0940                 1.7752
 IR Inten    --      7.4603                18.0862                47.7321

                     64                     65                     66
                      A                      A                      A
 Frequencies --   1264.7917              1272.3907              1281.8373
 Red. masses --      1.2939                 1.5341                 2.8059
 Frc consts  --      1.2195                 1.4633                 2.7163
 IR Inten    --     18.0654                14.9316                 9.2383

                     67                     68                     69
                      A                      A                      A
 Frequencies --   1302.5391              1306.1021              1323.6299
 Red. masses --      1.5498                 1.4447                 1.4438
 Frc consts  --      1.5492                 1.4520                 1.4903
 IR Inten    --     37.5114                27.3701                 8.2487

                     70                     71                     72
                      A                      A                      A
 Frequencies --   1350.4845              1364.0074              1370.8323
 Red. masses --      3.4015                 1.8372                 1.5326
 Frc consts  --      3.6551                 2.0140                 1.6969
 IR Inten    --      3.0203                17.8629                36.6671

                     73                     74                     75
                      A                      A                      A
 Frequencies --   1406.2680              1418.7762              1425.9924
 Red. masses --      1.3437                 1.3001                 1.4294
 Frc consts  --      1.5656                 1.5419                 1.7125
 IR Inten    --     22.1619                 0.7229                 3.3854

                     76                     77                     78
                      A                      A                      A
 Frequencies --   1438.3548              1444.7773              1450.3633
 Red. masses --      1.2703                 1.3456                 1.2432
 Frc consts  --      1.5484                 1.6549                 1.5408
 IR Inten    --      0.0141                 9.2412                 0.3635

                     79                     80                     81
                      A                      A                      A
 Frequencies --   1457.4337              1477.4170              1507.6266
 Red. masses --      2.6833                 2.2477                 1.0455
 Frc consts  --      3.3581                 2.8906                 1.4001
 IR Inten    --      3.5338               110.9298                 0.0460

                     82                     83                     84
                      A                      A                      A
 Frequencies --   1508.1116              1521.4841              1522.9359
 Red. masses --      1.1663                 1.1618                 1.0673
 Frc consts  --      1.5629                 1.5846                 1.4585
 IR Inten    --     40.6747                17.3266                 9.1716

                     85                     86                     87
                      A                      A                      A
 Frequencies --   1523.2654              1524.5842              1527.2938
 Red. masses --      1.0582                 1.1434                 1.0783
 Frc consts  --      1.4466                 1.5658                 1.4819
 IR Inten    --     13.9043                 2.3554                35.9208

                     88                     89                     90
                      A                      A                      A
 Frequencies --   1530.8463              1548.9775              1554.1990
 Red. masses --      1.0766                 1.1217                 1.8130
 Frc consts  --      1.4865                 1.5856                 2.5802
 IR Inten    --      4.4170                13.3213                25.1203

                     91                     92                     93
                      A                      A                      A
 Frequencies --   1554.7615              1564.2382              1631.3283
 Red. masses --      1.2416                 1.1030                 5.6692
 Frc consts  --      1.7684                 1.5901                 8.8890
 IR Inten    --      3.6534                 9.5681                 1.7205

                     94                     95                     96
                      A                      A                      A
 Frequencies --   1675.7171              1862.9113              2943.5539
 Red. masses --      5.9402                11.9793                 1.0734
 Frc consts  --      9.8277                24.4943                 5.4797
 IR Inten    --      3.3354               448.6067                76.0466

                     97                     98                     99
                      A                      A                      A
 Frequencies --   3013.9133              3024.2990              3035.1341
 Red. masses --      1.0691                 1.0825                 1.0392
 Frc consts  --      5.7219                 5.8337                 5.6406
 IR Inten    --     49.7976                12.8423                14.1152

                    100                    101                    102
                      A                      A                      A
 Frequencies --   3036.3919              3038.1068              3046.0850
 Red. masses --      1.0389                 1.0722                 1.0431
 Frc consts  --      5.6431                 5.8306                 5.7024
 IR Inten    --     73.5034                60.3452                16.9630

                    103                    104                    105
                      A                      A                      A
 Frequencies --   3058.2797              3076.0702              3080.8244
 Red. masses --      1.0819                 1.0775                 1.1000
 Frc consts  --      5.9623                 6.0071                 6.1515
 IR Inten    --     33.1465                16.7763                41.9618

                    106                    107                    108
                      A                      A                      A
 Frequencies --   3082.7913              3087.3520              3112.3616
 Red. masses --      1.1000                 1.0793                 1.0980
 Frc consts  --      6.1591                 6.0615                 6.2668
 IR Inten    --      2.1802                35.4652                44.2457

                    109                    110                    111
                      A                      A                      A
 Frequencies --   3126.3601              3127.7114              3134.7285
 Red. masses --      1.0997                 1.0994                 1.0917
 Frc consts  --      6.3328                 6.3368                 6.3206
 IR Inten    --     35.9846                 2.7755                 3.5810

                    112                    113                    114
                      A                      A                      A
 Frequencies --   3135.5957              3140.5792              3181.0563
 Red. masses --      1.1034                 1.1077                 1.0887
 Frc consts  --      6.3921                 6.4372                 6.4908
 IR Inten    --     28.5561                33.1938                17.5941

                    115                    116                    117
                      A                      A                      A
 Frequencies --   3209.8869              3210.6250              3500.4964
 Red. masses --      1.0889                 1.0928                 1.0731
 Frc consts  --      6.6105                 6.6371                 7.7473
 IR Inten    --      5.6541                 3.0804                 1.0357

 - Thermochemistry -
 -------------------
 Temperature   298.150 Kelvin.  Pressure   1.00000 Atm.
 Atom     1 has atomic number  6 and mass  12.00000

 Molecular mass:   262.16813 amu.
 Principal axes and moments of inertia in atomic units:
                           1         2         3
     Eigenvalues --  4686.004475596.785628499.97913
           X            0.99293   0.11860  -0.00446
           Y           -0.11857   0.99293   0.00528
           Z            0.00506  -0.00471   0.99998
 This molecule is an asymmetric top.
 Rotational symmetry number  1.
 Warning -- assumption of classical behavior for rotation
           may cause significant error
 Rotational temperatures (Kelvin)      0.01848     0.01548     0.01019
 Rotational constants (GHZ):           0.38513     0.32246     0.21232
 Zero-point vibrational energy     936593.3 (Joules/Mol)
                                  223.85116 (Kcal/Mol)
 Warning -- explicit consideration of  28 degrees of freedom as
           vibrations may cause significant error
 Vibrational temperatures:     25.20    48.95    72.18    76.90    92.27
          (Kelvin)            124.98   135.60   150.23   199.17   203.95
                              236.37   256.75   284.34   317.57   340.84
                              369.55   389.54   429.74   452.00   454.12
                              499.42   605.98   655.01   707.37   733.16
                              757.23   813.93   824.75   900.70   980.39
                             1028.86  1036.07  1059.43  1074.30  1106.48
                             1137.27  1190.43  1196.77  1234.56  1289.91
                             1306.25  1332.77  1361.76  1388.61  1404.62
                             1426.17  1462.42  1478.56  1503.76  1523.14
                             1526.78  1556.28  1562.35  1593.33  1650.36
                             1657.90  1662.61  1677.98  1709.59  1720.52
                             1784.52  1790.79  1804.51  1819.75  1830.69
                             1844.28  1874.06  1879.19  1904.41  1943.05
                             1962.50  1972.32  2023.31  2041.30  2051.69
                             2069.47  2078.71  2086.75  2096.92  2125.67
                             2169.14  2169.84  2189.08  2191.17  2191.64
                             2193.54  2197.44  2202.55  2228.63  2236.15
                             2236.96  2250.59  2347.12  2410.98  2680.31
                             4235.12  4336.35  4351.29  4366.88  4368.69
                             4371.16  4382.64  4400.18  4425.78  4432.62
                             4435.45  4442.01  4477.99  4498.13  4500.08
                             4510.18  4511.42  4518.59  4576.83  4618.31
                             4619.37  5036.43

 Zero-point correction=                           0.356730 (Hartree/Particle)
 Thermal correction to Energy=                    0.376213
 Thermal correction to Enthalpy=                  0.377158
 Thermal correction to Gibbs Free Energy=         0.306858
 Sum of electronic and zero-point Energies=           -844.536600
 Sum of electronic and thermal Energies=              -844.517117
 Sum of electronic and thermal Enthalpies=            -844.516172
 Sum of electronic and thermal Free Energies=         -844.586472

                     E (Thermal)             CV                S
                      KCal/Mol        Cal/Mol-Kelvin    Cal/Mol-Kelvin
 Total                  236.077             71.951            147.958
 Electronic               0.000              0.000              0.000
 Translational            0.889              2.981             42.591
 Rotational               0.889              2.981             33.766
 Vibrational            234.300             65.989             71.601
 Vibration     1          0.593              1.986              6.897
 Vibration     2          0.594              1.983              5.580
 Vibration     3          0.595              1.978              4.811
 Vibration     4          0.596              1.976              4.685
 Vibration     5          0.597              1.971              4.326
 Vibration     6          0.601              1.958              3.729
 Vibration     7          0.603              1.953              3.570
 Vibration     8          0.605              1.946              3.370
 Vibration     9          0.614              1.915              2.825
 Vibration    10          0.615              1.911              2.780
 Vibration    11          0.623              1.886              2.500
 Vibration    12          0.629              1.869              2.345
 Vibration    13          0.637              1.843              2.155
 Vibration    14          0.647              1.810              1.953
 Vibration    15          0.656              1.784              1.826
 Vibration    16          0.666              1.751              1.683
 Vibration    17          0.674              1.727              1.591
 Vibration    18          0.692              1.676              1.424
 Vibration    19          0.702              1.647              1.340
 Vibration    20          0.703              1.644              1.333
 Vibration    21          0.725              1.581              1.179
 Vibration    22          0.784              1.424              0.888
 Vibration    23          0.814              1.349              0.780
 Vibration    24          0.847              1.269              0.679
 Vibration    25          0.865              1.229              0.635
 Vibration    26          0.881              1.192              0.596
 Vibration    27          0.922              1.105              0.513
 Vibration    28          0.929              1.089              0.498

                           ! Non-Optimized Parameters !
 Normal termination of Gaussian 16 at Mon Dec 14 17:22:41 2020.

 ----------------------------------------------------------------------
 # B3LYP/6-311++G(d,p) empiricaldispersion=gd3bj scf=xqc pop=npa geom=c
 heck
 ----------------------------------------------------------------------

 --------------------------------------
 CID_61751488_JID_9339_Energie_neutraal
 --------------------------------------
 Structure from the checkpoint file:  "JID_9339.chk"
 Charge =  0 Multiplicity = 1

 SCF Done:  E(RB3LYP) =  -845.126170035     A.U. after   15 cycles
 Normal termination of Gaussian 16 at Mon Dec 14 17:31:32 2020.

 ----------------------------------------------------------------------
 # B3LYP/6-311++G(d,p) empiricaldispersion=gd3bj scf=xqc pop=npa geom=c
 heck
 ----------------------------------------------------------------------

 ------------------------------------
 CID_61751488_JID_9339_Energie_kation
 ------------------------------------
 Structure from the checkpoint file:  "JID_9339.chk"
 Charge =  1 Multiplicity = 2

 SCF Done:  E(UB3LYP) =  -844.834526549     A.U. after   28 cycles
 Normal termination of Gaussian 16 at Mon Dec 14 17:53:09 2020.
 Gaussian 16:  ES64L-G16RevA.03 25-Dec-2016

 ----------------------------------------------------------------------
 # B3LYP/6-311++G(d,p) empiricaldispersion=gd3bj scf=xqc pop=npa geom=c
 heck
 ----------------------------------------------------------------------

 -----------------------------------
 CID_61751488_JID_9339_Energie_anion
 -----------------------------------
 Structure from the checkpoint file:  "JID_9339.chk"
 Charge = -1 Multiplicity = 2

                         Standard orientation:
 ---------------------------------------------------------------------
 Center     Atomic      Atomic             Coordinates (Angstroms)
 Number     Number       Type             X           Y           Z
 ---------------------------------------------------------------------
      1          6           0        3.282882    3.612203    0.527091
      2          6           0        2.876387    2.533256   -0.471988
      3          7           0        1.619762    1.913151   -0.065898
      4          6           0        1.111865    0.866258   -0.956632
      5          6           0        1.933403   -0.455716   -0.918408
      6          7           0        1.508416   -1.393309    0.098332
      7          6           0        1.374228   -1.100650    1.507846
      8          6           0        0.666934   -2.379912    2.007338
      9          8           0        0.775223   -3.327070    0.934775
     10          6           0        1.162916   -2.683278   -0.209558
     11          8           0        1.183196   -3.213161   -1.298158
     12          6           0       -0.377590    0.620397   -0.732088
     13          6           0       -1.142686    1.502326    0.036946
     14          6           0       -2.507816    1.299162    0.262125
     15          6           0       -3.140488    0.175259   -0.302269
     16          6           0       -2.375999   -0.700575   -1.078913
     17          6           0       -1.016479   -0.489850   -1.296255
     18          6           0       -4.609785   -0.081252   -0.078931
     19          6           0       -3.288407    2.281237    1.100722
     20          1           0        2.489439    4.359514    0.626455
     21          1           0        4.202595    4.113397    0.207821
     22          1           0        3.467940    3.180079    1.518919
     23          1           0        2.716317    2.983270   -1.460247
     24          1           0        3.708881    1.814518   -0.590267
     25          1           0        1.700341    1.563479    0.886717
     26          1           0        1.242334    1.266516   -1.972172
     27          1           0        1.853012   -0.997425   -1.863208
     28          1           0        2.994084   -0.204664   -0.780752
     29          1           0        2.353350   -0.938011    1.982334
     30          1           0        0.747966   -0.219122    1.680307
     31          1           0        1.130996   -2.809878    2.897094
     32          1           0       -0.394662   -2.198675    2.202418
     33          1           0       -0.652645    2.373732    0.458493
     34          1           0       -2.853823   -1.572169   -1.519614
     35          1           0       -0.463163   -1.208516   -1.892390
     36          1           0       -4.846419   -0.186113    0.987928
     37          1           0       -5.227039    0.744258   -0.456486
     38          1           0       -4.931292   -0.996774   -0.584028
     39          1           0       -3.740190    1.798448    1.977236
     40          1           0       -2.645989    3.091450    1.457793
     41          1           0       -4.112816    2.732430    0.533523
 ---------------------------------------------------------------------

 SCF Done:  E(UB3LYP) =  -845.118310544     A.U. after   32 cycles

 The electronic state is 2-A.
 Alpha  occ. eigenvalues --  -19.07252 -19.00609 -14.25786 -14.21061 -10.22563
 Alpha  occ. eigenvalues --  -10.14733 -10.12764 -10.12518 -10.12198 -10.10704
 Alpha  occ. eigenvalues --  -10.09041 -10.08945 -10.08930 -10.08294 -10.08141
 Alpha  occ. eigenvalues --  -10.07872 -10.07703 -10.07388 -10.06966  -1.02409
 Alpha  occ. eigenvalues --   -0.93442  -0.86263  -0.82480  -0.77156  -0.70790
 Alpha  occ. eigenvalues --   -0.68173  -0.67568  -0.66357  -0.63646  -0.61231
 Alpha  occ. eigenvalues --   -0.59104  -0.56882  -0.54587  -0.52703  -0.50654
 Alpha  occ. eigenvalues --   -0.48875  -0.46767  -0.43795  -0.42227  -0.41612
 Alpha  occ. eigenvalues --   -0.40229  -0.39600  -0.38954  -0.36691  -0.36051
 Alpha  occ. eigenvalues --   -0.35073  -0.34834  -0.34577  -0.34021  -0.33494
 Alpha  occ. eigenvalues --   -0.32735  -0.32187  -0.31416  -0.31305  -0.30606
 Alpha  occ. eigenvalues --   -0.29896  -0.29522  -0.29454  -0.27822  -0.27714
 Alpha  occ. eigenvalues --   -0.27251  -0.26021  -0.25384  -0.24515  -0.24336
 Alpha  occ. eigenvalues --   -0.20936  -0.19709  -0.17019  -0.15686  -0.14692
 Alpha  occ. eigenvalues --   -0.13731   0.03766
 Alpha virt. eigenvalues --    0.05504   0.06248   0.06866   0.07414   0.07635
 Alpha virt. eigenvalues --    0.08038   0.08291   0.08697   0.09214   0.09521
 Alpha virt. eigenvalues --    0.09917   0.10442   0.10636   0.10893   0.11561

  Beta  occ. eigenvalues --  -19.07251 -19.00607 -14.25787 -14.21045 -10.22562
  Beta  occ. eigenvalues --  -10.14709 -10.12720 -10.12514 -10.12192 -10.10690
  Beta  occ. eigenvalues --  -10.09039 -10.08941 -10.08929 -10.08272 -10.08139
  Beta  occ. eigenvalues --  -10.07868 -10.07675 -10.07383 -10.06928  -1.02404
  Beta  occ. eigenvalues --   -0.93438  -0.86253  -0.82458  -0.77146  -0.70773
  Beta  occ. eigenvalues --   -0.68137  -0.67549  -0.66328  -0.63610  -0.61202
  Beta  occ. eigenvalues --   -0.59069  -0.56826  -0.54558  -0.52635  -0.50634
  Beta  occ. eigenvalues --   -0.48852  -0.46743  -0.43773  -0.42188  -0.41579
  Beta  occ. eigenvalues --   -0.40190  -0.39579  -0.38925  -0.36668  -0.36026
  Beta  occ. eigenvalues --   -0.35052  -0.34809  -0.34557  -0.33994  -0.33464
  Beta  occ. eigenvalues --   -0.32705  -0.32157  -0.31394  -0.31277  -0.30583
  Beta  occ. eigenvalues --   -0.29869  -0.29500  -0.29432  -0.27776  -0.27676
  Beta  occ. eigenvalues --   -0.27219  -0.25986  -0.25365  -0.24500  -0.24321
  Beta  occ. eigenvalues --   -0.20925  -0.19705  -0.17000  -0.15674  -0.14669
  Beta  occ. eigenvalues --   -0.13711
  Beta virt. eigenvalues --    0.05743   0.06233   0.06891   0.07236   0.07656
  Beta virt. eigenvalues --    0.07860   0.08364   0.08519   0.08911   0.09550
  Beta virt. eigenvalues --    0.09865   0.10169   0.10572   0.10851   0.11110

 Mulliken charges and spin densities:
               1          2
     1  C    1.015031  -1.552466
     2  C   -0.221029   0.111594
     3  N   -0.000164  -0.093805
     4  C   -0.348024   0.304619
     5  C   -0.190286  -0.383867
     6  N   -0.121478   0.130333
     7  C    0.463353  -0.354071
     8  C    0.566050  -1.227579
     9  O   -0.106654   0.038797
    10  C    0.101080   0.020929
    11  O   -0.356059   0.005244
    12  C    0.649078  -0.032076
    13  C   -0.668121   0.049940
    14  C   -0.900573   1.228616
    15  C   -0.392076   0.780198
    16  C   -0.171391  -0.446698
    17  C   -0.185964  -0.177819
    18  C    0.272784  -0.834140
    19  C    0.537542  -1.143440
    20  H   -0.104575   0.253924
    21  H   -0.165754   0.293112
    22  H   -0.431692   0.578737
    23  H    0.020234   0.112638
    24  H   -0.075858   0.170614
    25  H    0.246678  -0.040166
    26  H    0.061235   0.138204
    27  H    0.177997   0.009114
    28  H    0.047301   0.158067
    29  H   -0.545216   0.775617
    30  H   -0.172304   0.296568
    31  H   -0.187405   0.363656
    32  H    0.059631   0.142834
    33  H    0.467812  -0.219786
    34  H    0.118622   0.031376
    35  H    0.117420   0.027330
    36  H   -0.033549   0.195359
    37  H   -0.032486   0.180311
    38  H   -0.013113   0.156932
    39  H   -0.084354   0.243037
    40  H   -0.414289   0.565109
    41  H    0.000564   0.143103
 Sum of Mulliken charges =  -1.00000   1.00000

 Dipole moment (field-independent basis, Debye):
    X=             -2.8478    Y=             -0.9039    Z=             -4.6254  Tot=              5.5065
 Quadrupole moment (field-independent basis, Debye-Ang):
   XX=           -186.9262   YY=           -184.2129   ZZ=           -158.9159
   XY=             -0.2711   XZ=             -7.9346   YZ=             -9.8155

 Summary of Natural Population Analysis:

                                       Natural Population
                Natural  -----------------------------------------------
    Atom  No    Charge         Core      Valence    Rydberg      Total
 -----------------------------------------------------------------------
      C    1   -0.28749      0.99967     2.28258    0.00524     3.28749
      C    2   -0.08274      0.99964     2.07297    0.01013     3.08274
      N    3   -0.34453      0.99973     2.83359    0.01121     3.84453
      C    4   -0.01831      0.99956     2.00640    0.01235     3.01831
      C    5   -0.09097      0.99959     2.08048    0.01090     3.09097
      N    6   -0.26597      0.99963     2.75518    0.01115     3.76597
      C    7   -0.09466      0.99963     2.08369    0.01134     3.09466
      C    8   -0.01084      0.99960     1.99964    0.01160     3.01084
      O    9   -0.27808      0.99987     3.27130    0.00692     4.27808
      C   10    0.46605      0.99965     1.50761    0.02669     2.53395
      O   11   -0.32492      0.99986     3.32003    0.00502     4.32492
      C   12   -0.01941      0.99949     2.00973    0.01019     3.01941
      C   13   -0.10012      0.99946     2.09078    0.00987     3.10012
      C   14   -0.01200      0.99947     2.00291    0.00962     3.01200
      C   15   -0.01947      0.99947     2.01031    0.00969     3.01947
      C   16   -0.09612      0.99952     2.08831    0.00829     3.09612
      C   17   -0.10629      0.99951     2.09869    0.00809     3.10629
      C   18   -0.29274      0.99964     2.28859    0.00452     3.29274
      C   19   -0.29471      0.99964     2.28946    0.00561     3.29471
      H   20    0.10020      0.00000     0.39860    0.00119     0.39980
      H   21    0.09911      0.00000     0.39994    0.00095     0.40089
      H   22    0.10046      0.00000     0.39768    0.00186     0.39954
      H   23    0.08770      0.00000     0.41102    0.00128     0.41230
      H   24    0.07742      0.00000     0.42086    0.00172     0.42258
      H   25    0.17449      0.00000     0.32127    0.00424     0.32551
      H   26    0.10155      0.00000     0.39680    0.00165     0.39845
      H   27    0.11385      0.00000     0.38507    0.00108     0.38615
      H   28    0.09886      0.00000     0.39991    0.00123     0.40114
      H   29    0.09819      0.00000     0.39855    0.00326     0.40181
      H   30    0.10097      0.00000     0.39673    0.00230     0.39903
      H   31    0.09382      0.00000     0.40465    0.00153     0.40618
      H   32    0.08998      0.00000     0.40843    0.00159     0.41002
      H   33    0.11215      0.00000     0.38627    0.00158     0.38785
      H   34    0.09740      0.00000     0.40140    0.00120     0.40260
      H   35    0.10701      0.00000     0.39138    0.00160     0.39299
      H   36    0.10465      0.00000     0.39402    0.00134     0.39535
      H   37    0.10277      0.00000     0.39593    0.00130     0.39723
      H   38    0.10075      0.00000     0.39840    0.00085     0.39925
      H   39    0.10515      0.00000     0.39358    0.00127     0.39485
      H   40    0.10480      0.00000     0.39411    0.00109     0.39520
      H   41    0.10204      0.00000     0.39696    0.00101     0.39796
 =======================================================================
   * Total *    0.00000     18.99263    51.78382    0.22355    71.00000

 Normal termination of Gaussian 16 at Mon Dec 14 18:18:10 2020.
