 Gaussian 16, Revision A.03,

 -----------------------------------------------------------
 # opt freq B3LYP/6-31G(d) empiricaldispersion=gd3bj scf=xqc
 -----------------------------------------------------------

 -------------------------------
 CID_103028092_JID_6125_neutraal
 -------------------------------
 Symbolic Z-matrix:
 Charge =  0 Multiplicity = 1

 SCF Done:  E(RB3LYP) =  -729.297691173     A.U. after   14 cycles
 SCF Done:  E(RB3LYP) =  -729.299512749     A.U. after   12 cycles
 SCF Done:  E(RB3LYP) =  -729.298063647     A.U. after   13 cycles
 SCF Done:  E(RB3LYP) =  -729.300322814     A.U. after   12 cycles
 SCF Done:  E(RB3LYP) =  -729.300988907     A.U. after   12 cycles
 SCF Done:  E(RB3LYP) =  -729.301693786     A.U. after   12 cycles
 SCF Done:  E(RB3LYP) =  -729.301819003     A.U. after   11 cycles
 SCF Done:  E(RB3LYP) =  -729.301875383     A.U. after   10 cycles
 SCF Done:  E(RB3LYP) =  -729.301910359     A.U. after   10 cycles
 SCF Done:  E(RB3LYP) =  -729.301929339     A.U. after   10 cycles
 SCF Done:  E(RB3LYP) =  -729.301977474     A.U. after    8 cycles
 SCF Done:  E(RB3LYP) =  -729.301978743     A.U. after    8 cycles
 SCF Done:  E(RB3LYP) =  -729.301979358     A.U. after    8 cycles
 SCF Done:  E(RB3LYP) =  -729.301979934     A.U. after    8 cycles
 SCF Done:  E(RB3LYP) =  -729.301980074     A.U. after    7 cycles
 Optimization completed.
    -- Stationary point found.
 Normal termination of Gaussian 16 at Thu Dec 10 21:18:59 2020.

 --------------------------------------------------------------------
 #N Geom=AllCheck Guess=TCheck SCRF=Check GenChk RB3LYP/6-31G(d) Freq
 --------------------------------------------------------------------

 Structure from the checkpoint file:  "JID_6125.chk"
 -------------------------------
 CID_103028092_JID_6125_neutraal
 -------------------------------
 Charge =  0 Multiplicity = 1

 SCF Done:  E(RB3LYP) =  -729.301980074     A.U. after    1 cycles

  Exact polarizability: 166.907  -2.332 137.329 -13.311   3.215 110.439
 Approx polarizability: 206.082   3.760 216.709 -25.950   7.278 173.807

                      1                      2                      3
                      A                      A                      A
 Frequencies --     28.7541                36.4307                45.0743
 Red. masses --      4.9452                 4.3309                 3.6739
 Frc consts  --      0.0024                 0.0034                 0.0044
 IR Inten    --      0.9639                 3.5505                 0.3945

                      4                      5                      6
                      A                      A                      A
 Frequencies --     80.0922                86.0256               101.8260
 Red. masses --      2.6392                 3.1874                 5.0798
 Frc consts  --      0.0100                 0.0139                 0.0310
 IR Inten    --      1.6930                 1.3318                 0.2531

                      7                      8                      9
                      A                      A                      A
 Frequencies --    136.1153               145.6606               188.6280
 Red. masses --      1.5216                 2.2317                 2.9087
 Frc consts  --      0.0166                 0.0279                 0.0610
 IR Inten    --      0.1134                 1.2923                 1.2777

                     10                     11                     12
                      A                      A                      A
 Frequencies --    198.0463               233.5149               244.3290
 Red. masses --      2.9936                 3.8591                 1.1131
 Frc consts  --      0.0692                 0.1240                 0.0392
 IR Inten    --      6.3247                 1.0988                 0.6683

                     13                     14                     15
                      A                      A                      A
 Frequencies --    288.5668               318.7947               320.2719
 Red. masses --      2.8477                 2.6804                 2.2456
 Frc consts  --      0.1397                 0.1605                 0.1357
 IR Inten    --      0.4527                 1.2581                 7.8371

                     16                     17                     18
                      A                      A                      A
 Frequencies --    362.8844               376.4757               406.8165
 Red. masses --      1.3686                 2.0486                 2.5332
 Frc consts  --      0.1062                 0.1711                 0.2470
 IR Inten    --    151.2497                28.6261                 1.3482

                     19                     20                     21
                      A                      A                      A
 Frequencies --    445.1606               453.6728               475.8994
 Red. masses --      2.9500                 2.9844                 2.3489
 Frc consts  --      0.3444                 0.3619                 0.3134
 IR Inten    --      5.5880                10.2867                 3.0427

                     22                     23                     24
                      A                      A                      A
 Frequencies --    545.5389               618.6632               629.8449
 Red. masses --      2.4519                 3.2015                 4.1950
 Frc consts  --      0.4299                 0.7219                 0.9805
 IR Inten    --      0.9294                 0.2256                 2.6485

                     25                     26                     27
                      A                      A                      A
 Frequencies --    661.9387               685.0088               693.2733
 Red. masses --      6.4865                 3.9468                 3.1214
 Frc consts  --      1.6745                 1.0912                 0.8839
 IR Inten    --      4.4304                 2.3941                13.5907

                     28                     29                     30
                      A                      A                      A
 Frequencies --    750.2182               788.3263               840.0749
 Red. masses --      3.4878                 1.2376                 2.9979
 Frc consts  --      1.1566                 0.4532                 1.2465
 IR Inten    --      2.4237                32.9452                16.8178

                     31                     32                     33
                      A                      A                      A
 Frequencies --    863.0229               872.2473               897.0943
 Red. masses --      3.1116                 1.2968                 2.2903
 Frc consts  --      1.3654                 0.5813                 1.0860
 IR Inten    --      3.2140                 2.4539                 1.6896

                     34                     35                     36
                      A                      A                      A
 Frequencies --    918.7266               923.5022               930.2594
 Red. masses --      1.4894                 2.1706                 2.0902
 Frc consts  --      0.7407                 1.0907                 1.0657
 IR Inten    --      3.3569                 8.8191                 2.7518

                     37                     38                     39
                      A                      A                      A
 Frequencies --    953.2107               988.1626               995.8028
 Red. masses --      4.6288                 1.8306                 1.4175
 Frc consts  --      2.4780                 1.0532                 0.8282
 IR Inten    --     12.2143                 4.0595                 2.5084

                     40                     41                     42
                      A                      A                      A
 Frequencies --   1021.0413              1039.7920              1059.5355
 Red. masses --      2.2274                 2.0537                 2.7168
 Frc consts  --      1.3682                 1.3082                 1.7969
 IR Inten    --     26.1444                23.1905                27.3599

                     43                     44                     45
                      A                      A                      A
 Frequencies --   1073.0182              1080.6597              1104.0567
 Red. masses --      1.9974                 1.9960                 2.6766
 Frc consts  --      1.3549                 1.3734                 1.9223
 IR Inten    --     19.6502                14.2605                45.1533

                     46                     47                     48
                      A                      A                      A
 Frequencies --   1137.7158              1142.1275              1147.1992
 Red. masses --      1.7380                 2.6784                 2.7459
 Frc consts  --      1.3255                 2.0585                 2.1292
 IR Inten    --     22.5708                37.3865                27.0815

                     49                     50                     51
                      A                      A                      A
 Frequencies --   1159.2336              1168.6479              1187.3524
 Red. masses --      1.3238                 1.9831                 2.2268
 Frc consts  --      1.0481                 1.5957                 1.8497
 IR Inten    --      3.3390                13.2552                 8.9080

                     52                     53                     54
                      A                      A                      A
 Frequencies --   1216.8457              1231.1811              1241.7903
 Red. masses --      1.4199                 1.4756                 1.3937
 Frc consts  --      1.2388                 1.3178                 1.2663
 IR Inten    --     14.8587                13.1944                11.5141

                     55                     56                     57
                      A                      A                      A
 Frequencies --   1243.9016              1263.8401              1284.5217
 Red. masses --      1.3168                 1.2441                 1.3172
 Frc consts  --      1.2005                 1.1708                 1.2805
 IR Inten    --      6.3962                 1.5485                 1.9808

                     58                     59                     60
                      A                      A                      A
 Frequencies --   1314.4489              1327.9459              1341.1708
 Red. masses --      1.2503                 4.1926                 1.2617
 Frc consts  --      1.2727                 4.3561                 1.3371
 IR Inten    --      8.6814                11.1547                12.0846

                     61                     62                     63
                      A                      A                      A
 Frequencies --   1360.6610              1372.0656              1376.1581
 Red. masses --      1.3266                 1.7417                 1.7050
 Frc consts  --      1.4471                 1.9319                 1.9025
 IR Inten    --      2.7434                 5.8497                 2.9071

                     64                     65                     66
                      A                      A                      A
 Frequencies --   1383.7866              1388.7983              1411.9013
 Red. masses --      1.3822                 1.5890                 1.3815
 Frc consts  --      1.5594                 1.8058                 1.6226
 IR Inten    --      8.5911                14.3138                10.7909

                     67                     68                     69
                      A                      A                      A
 Frequencies --   1415.9680              1421.6812              1440.8315
 Red. masses --      1.3678                 1.4014                 1.8613
 Frc consts  --      1.6158                 1.6688                 2.2767
 IR Inten    --      8.8428                 6.0040                12.0332

                     70                     71                     72
                      A                      A                      A
 Frequencies --   1441.0736              1469.2233              1473.2116
 Red. masses --      1.6873                 1.7084                 1.5911
 Frc consts  --      2.0645                 2.1728                 2.0345
 IR Inten    --     38.3472                14.7120                25.2513

                     73                     74                     75
                      A                      A                      A
 Frequencies --   1511.5119              1514.7581              1515.4213
 Red. masses --      1.0652                 1.0700                 1.1092
 Frc consts  --      1.4339                 1.4465                 1.5009
 IR Inten    --      1.8167                 2.2688                 4.5556

                     76                     77                     78
                      A                      A                      A
 Frequencies --   1516.9870              1517.8900              1529.2965
 Red. masses --      1.1267                 1.1160                 1.0500
 Frc consts  --      1.5277                 1.5149                 1.4469
 IR Inten    --      4.5066                12.1173                 3.5073

                     79                     80                     81
                      A                      A                      A
 Frequencies --   1530.7077              1545.5886              1558.9872
 Red. masses --      2.0798                 1.3551                 1.0905
 Frc consts  --      2.8712                 1.9072                 1.5616
 IR Inten    --      3.6251                24.6769                 3.0928

                     82                     83                     84
                      A                      A                      A
 Frequencies --   1585.8270              2961.4596              2970.3942
 Red. masses --      4.5435                 1.0826                 1.0836
 Frc consts  --      6.7321                 5.5941                 5.6332
 IR Inten    --      7.0950                54.8664                63.4631

                     85                     86                     87
                      A                      A                      A
 Frequencies --   3005.4359              3041.8820              3043.2195
 Red. masses --      1.0663                 1.0852                 1.0638
 Frc consts  --      5.6748                 5.9163                 5.8047
 IR Inten    --     55.0886                18.6777                26.1366

                     88                     89                     90
                      A                      A                      A
 Frequencies --   3049.5603              3054.8071              3057.6479
 Red. masses --      1.0723                 1.0398                 1.0677
 Frc consts  --      5.8753                 5.7171                 5.8811
 IR Inten    --      7.6752                16.3101                 9.3381

                     91                     92                     93
                      A                      A                      A
 Frequencies --   3064.5122              3070.7483              3082.5302
 Red. masses --      1.0866                 1.0365                 1.0993
 Frc consts  --      6.0125                 5.7585                 6.1545
 IR Inten    --     96.8061                31.7445                39.9753

                     94                     95                     96
                      A                      A                      A
 Frequencies --   3110.6834              3124.5201              3131.6973
 Red. masses --      1.0950                 1.1024                 1.1025
 Frc consts  --      6.2429                 6.3408                 6.3707
 IR Inten    --     30.3239                19.4550                26.7748

                     97                     98                     99
                      A                      A                      A
 Frequencies --   3137.2266              3137.9465              3187.2827
 Red. masses --      1.0973                 1.1055                 1.1019
 Frc consts  --      6.3632                 6.4135                 6.5955
 IR Inten    --     27.6195                11.6716                 3.3594

                    100                    101                    102
                      A                      A                      A
 Frequencies --   3251.9437              3269.1715              3726.8264
 Red. masses --      1.0914                 1.1017                 1.0664
 Frc consts  --      6.8003                 6.9375                 8.7270
 IR Inten    --      9.5313                 5.6251                27.8532

 - Thermochemistry -
 -------------------
 Temperature   298.150 Kelvin.  Pressure   1.00000 Atm.
 Atom     1 has atomic number  6 and mass  12.00000

 Molecular mass:   224.15248 amu.
 Principal axes and moments of inertia in atomic units:
                           1         2         3
     Eigenvalues --  1417.818297177.585537673.61397
           X            0.99992  -0.01216   0.00370
           Y            0.01208   0.99971   0.02107
           Z           -0.00396  -0.02102   0.99977
 This molecule is an asymmetric top.
 Rotational symmetry number  1.
 Warning -- assumption of classical behavior for rotation
           may cause significant error
 Rotational temperatures (Kelvin)      0.06109     0.01207     0.01129
 Rotational constants (GHZ):           1.27290     0.25144     0.23519
 Zero-point vibrational energy     831858.1 (Joules/Mol)
                                  198.81886 (Kcal/Mol)
 Warning -- explicit consideration of  23 degrees of freedom as
           vibrations may cause significant error
 Vibrational temperatures:     41.37    52.42    64.85   115.23   123.77
          (Kelvin)            146.50   195.84   209.57   271.39   284.94
                              335.98   351.53   415.18   458.67   460.80
                              522.11   541.66   585.32   640.49   652.73
                              684.71   784.91   890.12   906.21   952.38
                              985.57   997.47  1079.40  1134.23  1208.68
                             1241.70  1254.97  1290.72  1321.84  1328.71
                             1338.44  1371.46  1421.75  1432.74  1469.05
                             1496.03  1524.44  1543.83  1554.83  1588.49
                             1636.92  1643.27  1650.56  1667.88  1681.42
                             1708.34  1750.77  1771.40  1786.66  1789.70
                             1818.38  1848.14  1891.20  1910.62  1929.65
                             1957.69  1974.10  1979.98  1990.96  1998.17
                             2031.41  2037.26  2045.48  2073.04  2073.38
                             2113.88  2119.62  2174.73  2179.40  2180.35
                             2182.61  2183.91  2200.32  2202.35  2223.76
                             2243.03  2281.65  4260.88  4273.73  4324.15
                             4376.59  4378.51  4387.64  4395.19  4399.27
                             4409.15  4418.12  4435.07  4475.58  4495.49
                             4505.81  4513.77  4514.81  4585.79  4678.82
                             4703.61  5362.07

 Zero-point correction=                           0.316838 (Hartree/Particle)
 Thermal correction to Energy=                    0.333047
 Thermal correction to Enthalpy=                  0.333991
 Thermal correction to Gibbs Free Energy=         0.271801
 Sum of electronic and zero-point Energies=           -728.985142
 Sum of electronic and thermal Energies=              -728.968933
 Sum of electronic and thermal Enthalpies=            -728.967989
 Sum of electronic and thermal Free Energies=         -729.030179

                     E (Thermal)             CV                S
                      KCal/Mol        Cal/Mol-Kelvin    Cal/Mol-Kelvin
 Total                  208.990             60.946            130.890
 Electronic               0.000              0.000              0.000
 Translational            0.889              2.981             42.124
 Rotational               0.889              2.981             32.724
 Vibrational            207.213             54.984             56.042
 Vibration     1          0.593              1.984              5.914
 Vibration     2          0.594              1.982              5.444
 Vibration     3          0.595              1.979              5.023
 Vibration     4          0.600              1.963              3.889
 Vibration     5          0.601              1.959              3.748
 Vibration     6          0.604              1.948              3.419
 Vibration     7          0.614              1.917              2.858
 Vibration     8          0.617              1.907              2.728
 Vibration     9          0.633              1.855              2.241
 Vibration    10          0.637              1.843              2.151
 Vibration    11          0.654              1.790              1.852
 Vibration    12          0.660              1.772              1.771
 Vibration    13          0.685              1.695              1.482
 Vibration    14          0.705              1.638              1.316
 Vibration    15          0.706              1.635              1.309
 Vibration    16          0.737              1.549              1.110
 Vibration    17          0.747              1.520              1.053
 Vibration    18          0.772              1.455              0.938
 Vibration    19          0.805              1.372              0.811
 Vibration    20          0.812              1.353              0.785
 Vibration    21          0.833              1.304              0.721
 Vibration    22          0.901              1.149              0.553
 Vibration    23          0.979              0.992              0.419

 Optimization completed.
    -- Stationary point found.
 Normal termination of Gaussian 16 at Thu Dec 10 21:31:02 2020.

 ----------------------------------------------------------------------
 # B3LYP/6-311++G(d,p) empiricaldispersion=gd3bj scf=xqc pop=npa geom=c
 heck
 ----------------------------------------------------------------------

 ---------------------------------------
 CID_103028092_JID_6125_Energie_neutraal
 ---------------------------------------
 Structure from the checkpoint file:  "JID_6125.chk"
 Charge =  0 Multiplicity = 1

 SCF Done:  E(RB3LYP) =  -729.512189868     A.U. after   14 cycles
 Normal termination of Gaussian 16 at Thu Dec 10 21:36:16 2020.

 ----------------------------------------------------------------------
 # B3LYP/6-311++G(d,p) empiricaldispersion=gd3bj scf=xqc pop=npa geom=c
 heck
 ----------------------------------------------------------------------

 -------------------------------------
 CID_103028092_JID_6125_Energie_kation
 -------------------------------------
 Structure from the checkpoint file:  "JID_6125.chk"
 Charge =  1 Multiplicity = 2

 SCF Done:  E(UB3LYP) =  -729.206976453     A.U. after   32 cycles
 Normal termination of Gaussian 16 at Thu Dec 10 21:53:21 2020.
 Gaussian 16:  ES64L-G16RevA.03 25-Dec-2016

 ----------------------------------------------------------------------
 # B3LYP/6-311++G(d,p) empiricaldispersion=gd3bj scf=xqc pop=npa geom=c
 heck
 ----------------------------------------------------------------------

 ------------------------------------
 CID_103028092_JID_6125_Energie_anion
 ------------------------------------
 Structure from the checkpoint file:  "JID_6125.chk"
 Charge = -1 Multiplicity = 2

                         Standard orientation:
 ---------------------------------------------------------------------
 Center     Atomic      Atomic             Coordinates (Angstroms)
 Number     Number       Type             X           Y           Z
 ---------------------------------------------------------------------
      1          6           0        4.966594   -1.114105    0.434263
      2          6           0        3.659245   -0.735117   -0.239213
      3          6           0        2.421582   -0.758787    0.658077
      4          6           0        1.487689    0.226822   -0.056017
      5          6           0        2.486388    1.267275   -0.596914
      6          8           0        3.754712    0.623271   -0.700685
      7          6           0        0.399635    0.815299    0.836510
      8          6           0       -0.498388    1.840211    0.126008
      9          6           0       -1.434521    1.263067   -0.956990
     10          6           0       -2.574106    0.467431   -0.390276
     11          6           0       -3.639213    0.883236    0.399455
     12          6           0       -4.373545   -0.290614    0.669317
     13          7           0       -3.818966   -1.360179    0.100928
     14          7           0       -2.729977   -0.878040   -0.548770
     15          6           0       -1.806896   -1.820151   -1.151472
     16          8           0       -0.339447   -0.291255    1.353540
     17          1           0        5.143344   -0.473720    1.305129
     18          1           0        5.805482   -0.992262   -0.258133
     19          1           0        4.940070   -2.158590    0.764780
     20          1           0        3.491687   -1.393079   -1.109311
     21          1           0        1.986649   -1.754128    0.773716
     22          1           0        2.676079   -0.380227    1.657086
     23          1           0        1.011748   -0.291821   -0.897528
     24          1           0        2.578163    2.122509    0.090393
     25          1           0        2.190472    1.658748   -1.578893
     26          1           0        0.905652    1.340565    1.665789
     27          1           0       -1.114103    2.352126    0.877481
     28          1           0        0.140988    2.612491   -0.319294
     29          1           0       -1.846246    2.101402   -1.531585
     30          1           0       -0.861863    0.659572   -1.667774
     31          1           0       -3.859462    1.896049    0.706992
     32          1           0       -5.285005   -0.402198    1.241890
     33          1           0       -0.918132   -1.925050   -0.522497
     34          1           0       -2.328184   -2.774089   -1.225417
     35          1           0       -1.515671   -1.488717   -2.152368
     36          1           0       -1.187985    0.034416    1.695120
 ---------------------------------------------------------------------

 SCF Done:  E(UB3LYP) =  -729.500500163     A.U. after   33 cycles
 SCF Done:  E(UB3LYP) =  -729.500500163     a.u. after    1 cycles

 The electronic state is 2-A.
 Alpha  occ. eigenvalues --  -19.03047 -19.02368 -14.29220 -14.23101 -10.13221
 Alpha  occ. eigenvalues --  -10.12746 -10.11806 -10.11619 -10.11102 -10.09486
 Alpha  occ. eigenvalues --  -10.08894 -10.08286 -10.08105 -10.07448 -10.07402
 Alpha  occ. eigenvalues --  -10.06777  -0.95331  -0.94172  -0.93368  -0.74942
 Alpha  occ. eigenvalues --   -0.72458  -0.70836  -0.68596  -0.65990  -0.60481
 Alpha  occ. eigenvalues --   -0.59769  -0.57953  -0.53460  -0.50525  -0.49328
 Alpha  occ. eigenvalues --   -0.46686  -0.45961  -0.43021  -0.41685  -0.39234
 Alpha  occ. eigenvalues --   -0.39073  -0.38558  -0.37597  -0.35883  -0.35029
 Alpha  occ. eigenvalues --   -0.34191  -0.33451  -0.32690  -0.31796  -0.30374
 Alpha  occ. eigenvalues --   -0.30234  -0.30041  -0.29523  -0.28945  -0.28001
 Alpha  occ. eigenvalues --   -0.26878  -0.26079  -0.25151  -0.24056  -0.22580
 Alpha  occ. eigenvalues --   -0.22139  -0.19952  -0.19005  -0.15946  -0.15831
 Alpha  occ. eigenvalues --   -0.14557   0.04195
 Alpha virt. eigenvalues --    0.06016   0.06616   0.07388   0.08023   0.08700
 Alpha virt. eigenvalues --    0.08883   0.09192   0.09787   0.10221   0.10234
 Alpha virt. eigenvalues --    0.10923   0.11084   0.12064   0.12342   0.12919

  Beta  occ. eigenvalues --  -19.03035 -19.02366 -14.29215 -14.23095 -10.13212
  Beta  occ. eigenvalues --  -10.12734 -10.11784 -10.11618 -10.11077 -10.09485
  Beta  occ. eigenvalues --  -10.08864 -10.08275 -10.08078 -10.07437 -10.07390
  Beta  occ. eigenvalues --  -10.06760  -0.95320  -0.94161  -0.93343  -0.74925
  Beta  occ. eigenvalues --   -0.72425  -0.70813  -0.68571  -0.65953  -0.60445
  Beta  occ. eigenvalues --   -0.59732  -0.57908  -0.53411  -0.50504  -0.49288
  Beta  occ. eigenvalues --   -0.46643  -0.45918  -0.42989  -0.41644  -0.39193
  Beta  occ. eigenvalues --   -0.39038  -0.38519  -0.37562  -0.35849  -0.35001
  Beta  occ. eigenvalues --   -0.34161  -0.33422  -0.32655  -0.31772  -0.30347
  Beta  occ. eigenvalues --   -0.30204  -0.30011  -0.29496  -0.28917  -0.27969
  Beta  occ. eigenvalues --   -0.26843  -0.26044  -0.25121  -0.24021  -0.22560
  Beta  occ. eigenvalues --   -0.22115  -0.19938  -0.18977  -0.15919  -0.15807
  Beta  occ. eigenvalues --   -0.14527
  Beta virt. eigenvalues --    0.06306   0.06855   0.07204   0.07838   0.08453
  Beta virt. eigenvalues --    0.09118   0.09318   0.09544   0.10033   0.10322
  Beta virt. eigenvalues --    0.10560   0.11344   0.11518   0.12242   0.12477

 Mulliken charges and spin densities:
               1          2
     1  C    0.409670  -1.068459
     2  C   -0.670086   0.745405
     3  C    1.172727  -1.733916
     4  C   -1.189335   1.505488
     5  C    0.870684  -1.484920
     6  O   -0.138849   0.034016
     7  C   -0.181174  -0.076256
     8  C    0.446458  -0.735884
     9  C   -0.202944  -0.278430
    10  C   -0.193089  -0.249720
    11  C    0.267042  -0.132501
    12  C    0.107707  -0.369614
    13  N   -0.128426  -0.052569
    14  N    0.137747   0.156712
    15  C    0.418907  -0.777686
    16  O   -0.124667   0.007482
    17  H    0.072327   0.077712
    18  H    0.028575   0.118897
    19  H    0.016287   0.115021
    20  H   -0.419254   0.589919
    21  H    0.118149   0.031078
    22  H    0.018776   0.152416
    23  H    0.514675  -0.348922
    24  H   -0.071901   0.234759
    25  H   -0.257209   0.457103
    26  H   -0.032370   0.225359
    27  H   -0.472149   0.671189
    28  H   -0.189939   0.357877
    29  H   -0.665332   0.900233
    30  H   -0.197320   0.322468
    31  H   -0.448994   0.614412
    32  H    0.031151   0.112845
    33  H   -0.084153   0.309902
    34  H    0.099750   0.076570
    35  H   -0.296738   0.463931
    36  H    0.233298   0.028085
 Sum of Mulliken charges =  -1.00000   1.00000

 Dipole moment (field-independent basis, Debye):
    X=              0.6823    Y=             -2.8687    Z=              3.1876  Tot=              4.3423
 Quadrupole moment (field-independent basis, Debye-Ang):
   XX=           -171.4655   YY=           -151.3312   ZZ=           -136.4513
   XY=              2.8169   XZ=              2.1435   YZ=              3.5452

 Summary of Natural Population Analysis:

                                       Natural Population
                Natural  -----------------------------------------------
    Atom  No    Charge         Core      Valence    Rydberg      Total
 -----------------------------------------------------------------------
      C    1   -0.28821      0.99964     2.28347    0.00510     3.28821
      C    2    0.06504      0.99957     1.92002    0.01537     2.93496
      C    3   -0.19493      0.99960     2.18760    0.00773     3.19493
      C    4   -0.13136      0.99957     2.12037    0.01143     3.13136
      C    5   -0.00462      0.99956     1.99262    0.01244     3.00462
      O    6   -0.30812      0.99989     3.29904    0.00920     4.30812
      C    7    0.07090      0.99952     1.91518    0.01440     2.92910
      C    8   -0.19628      0.99960     2.18662    0.01006     3.19628
      C    9   -0.21275      0.99959     2.20211    0.01105     3.21275
      C   10    0.08846      0.99952     1.89792    0.01410     2.91154
      C   11   -0.17134      0.99949     2.16264    0.00920     3.17134
      C   12   -0.01718      0.99963     2.00341    0.01414     3.01718
      N   13   -0.15948      0.99974     2.64878    0.01097     3.65948
      N   14   -0.10808      0.99961     2.59525    0.01322     3.60808
      C   15   -0.17765      0.99963     2.17029    0.00772     3.17765
      O   16   -0.37573      0.99989     3.36949    0.00635     4.37573
      H   17    0.09813      0.00000     0.40069    0.00118     0.40187
      H   18    0.10171      0.00000     0.39713    0.00117     0.39829
      H   19    0.09891      0.00000     0.40013    0.00096     0.40109
      H   20    0.07962      0.00000     0.41869    0.00169     0.42038
      H   21    0.11010      0.00000     0.38885    0.00105     0.38990
      H   22    0.09625      0.00000     0.40245    0.00129     0.40375
      H   23    0.10057      0.00000     0.39650    0.00292     0.39943
      H   24    0.08176      0.00000     0.41653    0.00171     0.41824
      H   25    0.08905      0.00000     0.40920    0.00174     0.41095
      H   26    0.07791      0.00000     0.42008    0.00200     0.42209
      H   27    0.10022      0.00000     0.39794    0.00183     0.39978
      H   28    0.10862      0.00000     0.38916    0.00222     0.39138
      H   29    0.11540      0.00000     0.38201    0.00259     0.38460
      H   30    0.10700      0.00000     0.39078    0.00222     0.39300
      H   31    0.11082      0.00000     0.38814    0.00104     0.38918
      H   32    0.09530      0.00000     0.40391    0.00079     0.40470
      H   33    0.10831      0.00000     0.39032    0.00137     0.39169
      H   34    0.10750      0.00000     0.39118    0.00131     0.39250
      H   35    0.09948      0.00000     0.39927    0.00125     0.40052
      H   36    0.23465      0.00000     0.26234    0.00302     0.26535
 =======================================================================
   * Total *   -0.00000     15.99405    44.80012    0.20583    61.00000

 Normal termination of Gaussian 16 at Thu Dec 10 22:11:31 2020.
