 Gaussian 16, Revision A.03,

 -----------------------------------------------------------
 # opt freq B3LYP/6-31G(d) empiricaldispersion=gd3bj scf=xqc
 -----------------------------------------------------------

 -------------------------------
 CID_130684015_JID_2091_neutraal
 -------------------------------
 Symbolic Z-matrix:
 Charge =  0 Multiplicity = 1

 SCF Done:  E(RB3LYP) =  -951.996608749     A.U. after   15 cycles
 SCF Done:  E(RB3LYP) =  -952.005621612     A.U. after   14 cycles
 SCF Done:  E(RB3LYP) =  -952.004885254     A.U. after   14 cycles
 SCF Done:  E(RB3LYP) =  -952.006576297     A.U. after   14 cycles
 SCF Done:  E(RB3LYP) =  -952.006980456     A.U. after   13 cycles
 SCF Done:  E(RB3LYP) =  -952.007255975     A.U. after   13 cycles
 SCF Done:  E(RB3LYP) =  -952.007460892     A.U. after   13 cycles
 SCF Done:  E(RB3LYP) =  -952.007458906     A.U. after   13 cycles
 SCF Done:  E(RB3LYP) =  -952.007484776     A.U. after   12 cycles
 SCF Done:  E(RB3LYP) =  -952.007530205     A.U. after   11 cycles
 SCF Done:  E(RB3LYP) =  -952.007553726     A.U. after   11 cycles
 SCF Done:  E(RB3LYP) =  -952.007555911     A.U. after   10 cycles
 SCF Done:  E(RB3LYP) =  -952.007556689     A.U. after   10 cycles
 SCF Done:  E(RB3LYP) =  -952.007556815     A.U. after    8 cycles
 SCF Done:  E(RB3LYP) =  -952.007556877     A.U. after    8 cycles
 Optimization completed.
    -- Stationary point found.
 Normal termination of Gaussian 16 at Wed Dec  9 16:49:13 2020.

 --------------------------------------------------------------------
 #N Geom=AllCheck Guess=TCheck SCRF=Check GenChk RB3LYP/6-31G(d) Freq
 --------------------------------------------------------------------

 Structure from the checkpoint file:  "JID_2091.chk"
 -------------------------------
 CID_130684015_JID_2091_neutraal
 -------------------------------
 Charge =  0 Multiplicity = 1

 SCF Done:  E(RB3LYP) =  -952.007556877     A.U. after    1 cycles

  Exact polarizability: 122.688  -0.765 104.783   1.999  -4.814  81.603
 Approx polarizability: 157.640  -9.444 161.265   6.308 -20.625 131.389

                      1                      2                      3
                      A                      A                      A
 Frequencies --     16.3563                55.5405                59.8171
 Red. masses --      6.7263                 6.3142                 3.9840
 Frc consts  --      0.0011                 0.0115                 0.0084
 IR Inten    --      1.4303                 0.2356                 3.6079

                      4                      5                      6
                      A                      A                      A
 Frequencies --    103.5957               108.4453               125.7499
 Red. masses --      4.9789                 2.7931                 4.6627
 Frc consts  --      0.0315                 0.0194                 0.0434
 IR Inten    --      1.1057                 0.2577                 1.0443

                      7                      8                      9
                      A                      A                      A
 Frequencies --    156.4152               173.0015               201.1542
 Red. masses --      1.9997                 1.5079                 4.7171
 Frc consts  --      0.0288                 0.0266                 0.1125
 IR Inten    --      0.9494                 1.1705                 0.5655

                     10                     11                     12
                      A                      A                      A
 Frequencies --    288.8811               336.6665               377.5262
 Red. masses --      6.5964                 4.0829                 4.9360
 Frc consts  --      0.3243                 0.2727                 0.4145
 IR Inten    --      7.5029                 3.8142                 1.8057

                     13                     14                     15
                      A                      A                      A
 Frequencies --    426.3355               440.5688               463.9176
 Red. masses --      3.4648                 5.3833                 4.7131
 Frc consts  --      0.3710                 0.6156                 0.5976
 IR Inten    --      1.4474                 8.1893                 1.1639

                     16                     17                     18
                      A                      A                      A
 Frequencies --    569.6967               618.4920               657.4125
 Red. masses --      3.8671                 6.8592                 2.7192
 Frc consts  --      0.7395                 1.5459                 0.6924
 IR Inten    --     34.0107                 3.2407                77.9804

                     19                     20                     21
                      A                      A                      A
 Frequencies --    670.1031               706.2704               715.3413
 Red. masses --      1.1709                 1.5093                 3.9424
 Frc consts  --      0.3098                 0.4436                 1.1886
 IR Inten    --     33.6563               155.0669                10.9068

                     22                     23                     24
                      A                      A                      A
 Frequencies --    740.6097               775.3407               814.4165
 Red. masses --      1.5223                 3.5592                10.8831
 Frc consts  --      0.4920                 1.2606                 4.2530
 IR Inten    --      2.2639                 9.8085                 1.2029

                     25                     26                     27
                      A                      A                      A
 Frequencies --    858.8693               922.9087               940.1134
 Red. masses --      3.0836                 2.2010                 2.3564
 Frc consts  --      1.3402                 1.1046                 1.2271
 IR Inten    --     12.3521                 3.7986                 0.3601

                     28                     29                     30
                      A                      A                      A
 Frequencies --    963.7419               992.5874               994.3701
 Red. masses --      2.0755                 1.3728                 1.2183
 Frc consts  --      1.1358                 0.7969                 0.7097
 IR Inten    --      1.2158                 7.5747                 9.9568

                     31                     32                     33
                      A                      A                      A
 Frequencies --   1024.2541              1064.0076              1116.8973
 Red. masses --      2.3636                 2.0558                 1.6962
 Frc consts  --      1.4610                 1.3713                 1.2467
 IR Inten    --      0.8421                11.7210                 1.1679

                     34                     35                     36
                      A                      A                      A
 Frequencies --   1149.0418              1199.9690              1220.7567
 Red. masses --      2.3357                 2.4740                 1.5138
 Frc consts  --      1.8170                 2.0989                 1.3291
 IR Inten    --     65.4398               338.0279                21.1707

                     37                     38                     39
                      A                      A                      A
 Frequencies --   1251.1979              1270.8811              1280.1861
 Red. masses --      1.3545                 1.3434                 1.3559
 Frc consts  --      1.2493                 1.2784                 1.3092
 IR Inten    --      1.7613                 2.0936                 2.6458

                     40                     41                     42
                      A                      A                      A
 Frequencies --   1300.3088              1314.2436              1347.6942
 Red. masses --      1.4240                 1.3613                 2.1295
 Frc consts  --      1.4185                 1.3854                 2.2788
 IR Inten    --      2.6258                12.2771                81.2215

                     43                     44                     45
                      A                      A                      A
 Frequencies --   1379.9677              1390.7059              1444.0626
 Red. masses --      1.2633                 1.1687                 3.8640
 Frc consts  --      1.4175                 1.3318                 4.7474
 IR Inten    --      1.9039                 3.0219                 1.1370

                     46                     47                     48
                      A                      A                      A
 Frequencies --   1497.6129              1500.1968              1503.5920
 Red. masses --      1.5770                 1.0788                 1.0881
 Frc consts  --      2.0839                 1.4305                 1.4493
 IR Inten    --     68.4947                24.6667                 2.6473

                     49                     50                     51
                      A                      A                      A
 Frequencies --   1514.2130              1524.8988              1791.3665
 Red. masses --      1.0560                 1.1167                 9.9215
 Frc consts  --      1.4265                 1.5299                18.7584
 IR Inten    --      8.6879                 2.4188               540.2437

                     52                     53                     54
                      A                      A                      A
 Frequencies --   1823.8619              3063.1668              3082.9079
 Red. masses --     10.2292                 1.0304                 1.0658
 Frc consts  --     20.0482                 5.6961                 5.9684
 IR Inten    --    148.3013                23.1972                17.2851

                     55                     56                     57
                      A                      A                      A
 Frequencies --   3088.8082              3097.2546              3130.6335
 Red. masses --      1.0812                 1.0617                 1.0881
 Frc consts  --      6.0775                 6.0007                 6.2831
 IR Inten    --     12.8257                21.8984                19.8839

                     58                     59                     60
                      A                      A                      A
 Frequencies --   3138.8120              3145.1116              3158.2832
 Red. masses --      1.1063                 1.1078                 1.1078
 Frc consts  --      6.4217                 6.4561                 6.5105
 IR Inten    --     20.7328                 9.6992                30.0111

                     61                     62                     63
                      A                      A                      A
 Frequencies --   3162.2016              3488.8032              3686.6421
 Red. masses --      1.1042                 1.0756                 1.0641
 Frc consts  --      6.5056                 7.7134                 8.5208
 IR Inten    --      5.5899               148.9006                65.6007

 - Thermochemistry -
 -------------------
 Temperature   298.150 Kelvin.  Pressure   1.00000 Atm.
 Atom     1 has atomic number  6 and mass  12.00000

 Molecular mass:   189.04597 amu.
 Principal axes and moments of inertia in atomic units:
                           1         2         3
     Eigenvalues --  1301.502813777.720074450.99319
           X            0.99994   0.00750   0.00859
           Y           -0.00792   0.99869   0.05050
           Z           -0.00820  -0.05057   0.99869
 This molecule is an asymmetric top.
 Rotational symmetry number  1.
 Warning -- assumption of classical behavior for rotation
           may cause significant error
 Rotational temperatures (Kelvin)      0.06655     0.02293     0.01946
 Rotational constants (GHZ):           1.38666     0.47773     0.40547
 Zero-point vibrational energy     481059.0 (Joules/Mol)
                                  114.97586 (Kcal/Mol)
 Warning -- explicit consideration of  17 degrees of freedom as
           vibrations may cause significant error
 Vibrational temperatures:     23.53    79.91    86.06   149.05   156.03
          (Kelvin)            180.93   225.05   248.91   289.42   415.64
                              484.39   543.18   613.40   633.88   667.47
                              819.67   889.87   945.87   964.13  1016.17
                             1029.22  1065.57  1115.54  1171.76  1235.72
                             1327.86  1352.61  1386.61  1428.11  1430.68
                             1473.67  1530.87  1606.97  1653.21  1726.49
                             1756.40  1800.19  1828.51  1841.90  1870.85
                             1890.90  1939.03  1985.47  2000.92  2077.68
                             2154.73  2158.45  2163.33  2178.61  2193.99
                             2577.38  2624.13  4407.21  4435.62  4444.11
                             4456.26  4504.28  4516.05  4525.11  4544.07
                             4549.70  5019.61  5304.26

 Zero-point correction=                           0.183226 (Hartree/Particle)
 Thermal correction to Energy=                    0.196074
 Thermal correction to Enthalpy=                  0.197018
 Thermal correction to Gibbs Free Energy=         0.141692
 Sum of electronic and zero-point Energies=           -951.824331
 Sum of electronic and thermal Energies=              -951.811483
 Sum of electronic and thermal Enthalpies=            -951.810539
 Sum of electronic and thermal Free Energies=         -951.865865

                     E (Thermal)             CV                S
                      KCal/Mol        Cal/Mol-Kelvin    Cal/Mol-Kelvin
 Total                  123.038             45.710            116.443
 Electronic               0.000              0.000              0.000
 Translational            0.889              2.981             41.616
 Rotational               0.889              2.981             31.460
 Vibrational            121.261             39.749             43.367
 Vibration     1          0.593              1.986              7.034
 Vibration     2          0.596              1.975              4.610
 Vibration     3          0.597              1.973              4.463
 Vibration     4          0.605              1.946              3.386
 Vibration     5          0.606              1.942              3.297
 Vibration     6          0.611              1.927              3.010
 Vibration     7          0.620              1.895              2.593
 Vibration     8          0.627              1.876              2.403
 Vibration     9          0.638              1.838              2.123
 Vibration    10          0.685              1.694              1.481
 Vibration    11          0.717              1.602              1.228
 Vibration    12          0.748              1.518              1.049
 Vibration    13          0.788              1.413              0.871
 Vibration    14          0.800              1.382              0.825
 Vibration    15          0.821              1.330              0.755
 Vibration    16          0.926              1.097              0.505
 Vibration    17          0.978              0.993              0.419

 Optimization completed.
    -- Stationary point found.
 Normal termination of Gaussian 16 at Wed Dec  9 16:54:08 2020.

 ----------------------------------------------------------------------
 # B3LYP/6-311++G(d,p) empiricaldispersion=gd3bj scf=xqc pop=npa geom=c
 heck
 ----------------------------------------------------------------------

 ---------------------------------------
 CID_130684015_JID_2091_Energie_neutraal
 ---------------------------------------
 Structure from the checkpoint file:  "JID_2091.chk"
 Charge =  0 Multiplicity = 1

 SCF Done:  E(RB3LYP) =  -952.207246625     A.U. after   16 cycles
 Normal termination of Gaussian 16 at Wed Dec  9 16:56:13 2020.

 ----------------------------------------------------------------------
 # B3LYP/6-311++G(d,p) empiricaldispersion=gd3bj scf=xqc pop=npa geom=c
 heck
 ----------------------------------------------------------------------

 -------------------------------------
 CID_130684015_JID_2091_Energie_kation
 -------------------------------------
 Structure from the checkpoint file:  "JID_2091.chk"
 Charge =  1 Multiplicity = 2

 SCF Done:  E(UB3LYP) =  -951.887972220     A.U. after   29 cycles
 Normal termination of Gaussian 16 at Wed Dec  9 17:00:59 2020.
 Gaussian 16:  ES64L-G16RevA.03 25-Dec-2016

 ----------------------------------------------------------------------
 # B3LYP/6-311++G(d,p) empiricaldispersion=gd3bj scf=xqc pop=npa geom=c
 heck
 ----------------------------------------------------------------------

 ------------------------------------
 CID_130684015_JID_2091_Energie_anion
 ------------------------------------
 Structure from the checkpoint file:  "JID_2091.chk"
 Charge = -1 Multiplicity = 2

                         Standard orientation:
 ---------------------------------------------------------------------
 Center     Atomic      Atomic             Coordinates (Angstroms)
 Number     Number       Type             X           Y           Z
 ---------------------------------------------------------------------
      1          6           0       -2.716950   -1.678052   -1.149627
      2         16           0       -2.767757   -0.640520    0.355160
      3          6           0       -1.822020    0.794456   -0.238636
      4          6           0       -1.590787    1.929446    0.786563
      5          6           0       -0.161046    2.097541    0.209424
      6          6           0       -0.271323    0.697906   -0.457834
      7          7           0        0.299782   -0.392606    0.311231
      8          6           0        1.588554   -0.798589    0.457729
      9          8           0        1.920073   -1.753195    1.143706
     10          6           0        2.645477    0.020241   -0.306423
     11          8           0        2.432395    1.023724   -0.955140
     12          8           0        3.862336   -0.522593   -0.161307
     13          1           0       -3.260618   -2.599384   -0.927897
     14          1           0       -1.686112   -1.928672   -1.414412
     15          1           0       -3.203312   -1.170559   -1.987715
     16          1           0       -2.289505    1.173811   -1.152028
     17          1           0       -2.273964    2.780524    0.736269
     18          1           0       -1.573562    1.550158    1.813069
     19          1           0        0.657653    2.216310    0.921261
     20          1           0       -0.095687    2.888969   -0.541795
     21          1           0        0.052445    0.641963   -1.497332
     22          1           0       -0.363814   -0.967092    0.828800
     23          1           0        4.472244    0.049354   -0.664650
 ---------------------------------------------------------------------

 SCF Done:  E(UB3LYP) =  -952.209320446     A.U. after   33 cycles
 SCF Done:  E(UB3LYP) =  -952.209320446     a.u. after    1 cycles

 The electronic state is 2-A.
 Alpha  occ. eigenvalues --  -88.74014 -19.02593 -18.95763 -18.93285 -14.19284
 Alpha  occ. eigenvalues --  -10.13619 -10.11523 -10.09716 -10.09486 -10.09402
 Alpha  occ. eigenvalues --  -10.06803 -10.05421  -7.82636  -5.79026  -5.78661
 Alpha  occ. eigenvalues --   -5.78016  -0.96787  -0.88722  -0.87407  -0.79757
 Alpha  occ. eigenvalues --   -0.72721  -0.67713  -0.57725  -0.56054  -0.53654
 Alpha  occ. eigenvalues --   -0.50338  -0.46629  -0.43884  -0.38735  -0.36964
 Alpha  occ. eigenvalues --   -0.34697  -0.34179  -0.33684  -0.32273  -0.31869
 Alpha  occ. eigenvalues --   -0.31267  -0.29894  -0.28994  -0.26880  -0.25205
 Alpha  occ. eigenvalues --   -0.24724  -0.23431  -0.22685  -0.21147  -0.19996
 Alpha  occ. eigenvalues --   -0.18748  -0.16213  -0.12921  -0.11819  -0.10126
 Alpha  occ. eigenvalues --    0.04857
 Alpha virt. eigenvalues --    0.06584   0.07695   0.09236   0.09329   0.10511
 Alpha virt. eigenvalues --    0.11022   0.11510   0.11998   0.12721   0.13627
 Alpha virt. eigenvalues --    0.14353   0.14886   0.16038   0.16493   0.17010

  Beta  occ. eigenvalues --  -88.74012 -19.02508 -18.95393 -18.92966 -14.19221
  Beta  occ. eigenvalues --  -10.13312 -10.11336 -10.09699 -10.09465 -10.09406
  Beta  occ. eigenvalues --  -10.06795 -10.05406  -7.82634  -5.79023  -5.78658
  Beta  occ. eigenvalues --   -5.78015  -0.96413  -0.88220  -0.86864  -0.79568
  Beta  occ. eigenvalues --   -0.72615  -0.67691  -0.57685  -0.55824  -0.52989
  Beta  occ. eigenvalues --   -0.50298  -0.46454  -0.43783  -0.38599  -0.36894
  Beta  occ. eigenvalues --   -0.34479  -0.33755  -0.33590  -0.32200  -0.31234
  Beta  occ. eigenvalues --   -0.30429  -0.29792  -0.28642  -0.26541  -0.24887
  Beta  occ. eigenvalues --   -0.24226  -0.23360  -0.22417  -0.20739  -0.19922
  Beta  occ. eigenvalues --   -0.17297  -0.15922  -0.12865  -0.10897  -0.09719
  Beta virt. eigenvalues --    0.07184   0.08014   0.09296   0.09566   0.10615
  Beta virt. eigenvalues --    0.11140   0.11281   0.11706   0.12107   0.12752
  Beta virt. eigenvalues --    0.13716   0.14452   0.14900   0.16064   0.16487

 Mulliken charges and spin densities:
               1          2
     1  C   -0.157388  -0.558479
     2  S    0.188202   0.006041
     3  C   -0.463844   0.274069
     4  C    0.166476  -0.731587
     5  C   -0.420674   0.151109
     6  C    0.409593  -0.508067
     7  N   -0.192714   0.008731
     8  C    0.079604   0.078297
     9  O   -0.414927   0.111095
    10  C   -0.045602   0.268279
    11  O   -0.382219   0.119825
    12  O   -0.174921   0.009869
    13  H    0.039585   0.116424
    14  H    0.161188   0.037417
    15  H   -0.279640   0.453425
    16  H   -0.377216   0.656357
    17  H   -0.108153   0.251529
    18  H    0.133416  -0.002773
    19  H    0.157446   0.013430
    20  H   -0.087096   0.227333
    21  H    0.246878   0.015126
    22  H    0.278952   0.000177
    23  H    0.243055   0.002372
 Sum of Mulliken charges =  -1.00000   1.00000

 Dipole moment (field-independent basis, Debye):
    X=             -1.4056    Y=              0.7453    Z=              0.6877  Tot=              1.7333
 Quadrupole moment (field-independent basis, Debye-Ang):
   XX=           -122.1869   YY=           -107.1910   ZZ=           -100.5297
   XY=             10.9076   XZ=            -10.5452   YZ=              9.8326

 Summary of Natural Population Analysis:

                                       Natural Population
                Natural  -----------------------------------------------
    Atom  No    Charge         Core      Valence    Rydberg      Total
 -----------------------------------------------------------------------
      C    1   -0.35149      0.99962     2.34545    0.00642     3.35149
      S    2    0.09036      4.99959     2.89134    0.01872     7.90964
      C    3   -0.17710      0.99953     2.16164    0.01593     3.17710
      C    4   -0.19256      0.99962     2.18369    0.00925     3.19256
      C    5   -0.18610      0.99962     2.17711    0.00937     3.18610
      C    6   -0.00475      0.99956     1.99002    0.01517     3.00475
      N    7   -0.32674      0.99966     2.81626    0.01083     3.82674
      C    8    0.31992      0.99965     1.65707    0.02336     2.68008
      O    9   -0.28907      0.99988     3.28309    0.00610     4.28907
      C   10    0.40255      0.99974     1.57309    0.02462     2.59745
      O   11   -0.29219      0.99987     3.28476    0.00756     4.29219
      O   12   -0.33408      0.99987     3.32690    0.00731     4.33408
      H   13    0.10395      0.00000     0.39528    0.00076     0.39605
      H   14    0.10648      0.00000     0.39189    0.00163     0.39352
      H   15    0.10293      0.00000     0.39529    0.00177     0.39707
      H   16    0.10644      0.00000     0.39090    0.00266     0.39356
      H   17    0.09781      0.00000     0.40095    0.00124     0.40219
      H   18    0.09822      0.00000     0.40062    0.00116     0.40178
      H   19    0.10421      0.00000     0.39473    0.00106     0.39579
      H   20    0.10030      0.00000     0.39845    0.00125     0.39970
      H   21    0.10373      0.00000     0.39445    0.00183     0.39627
      H   22    0.19204      0.00000     0.30331    0.00465     0.30796
      H   23    0.22512      0.00000     0.26972    0.00516     0.27488
 =======================================================================
   * Total *   -0.00000     15.99621    33.82599    0.17780    50.00000

 Normal termination of Gaussian 16 at Wed Dec  9 17:06:35 2020.
