 Gaussian 16, Revision A.03,

 -----------------------------------------------------------
 # opt freq B3LYP/6-31G(d) empiricaldispersion=gd3bj scf=xqc
 -----------------------------------------------------------

 ------------------------------
 CID_13148527_JID_2002_neutraal
 ------------------------------
 Symbolic Z-matrix:
 Charge =  0 Multiplicity = 1

 SCF Done:  E(RB3LYP) =  -575.907362170     A.U. after   15 cycles
 SCF Done:  E(RB3LYP) =  -575.910996867     A.U. after   12 cycles
 SCF Done:  E(RB3LYP) =  -575.911126946     A.U. after   12 cycles
 SCF Done:  E(RB3LYP) =  -575.911696198     A.U. after   11 cycles
 SCF Done:  E(RB3LYP) =  -575.911685798     A.U. after   11 cycles
 SCF Done:  E(RB3LYP) =  -575.911782775     A.U. after   11 cycles
 SCF Done:  E(RB3LYP) =  -575.911802946     A.U. after    9 cycles
 SCF Done:  E(RB3LYP) =  -575.911810578     A.U. after   10 cycles
 SCF Done:  E(RB3LYP) =  -575.911811083     A.U. after    8 cycles
 SCF Done:  E(RB3LYP) =  -575.911811409     A.U. after    8 cycles
 SCF Done:  E(RB3LYP) =  -575.911811496     A.U. after    7 cycles
 Optimization completed.
    -- Stationary point found.

 1\1\GINC-NODE363\FOpt\RB3LYP\6-31G(d)\C9H12O3\VSC10255\09-Dec-2020\0\\
 # opt freq B3LYP/6-31G(d) empiricaldispersion=gd3bj scf=xqc\\CID_13148
 527_JID_2002_neutraal\\0,1\C,-2.5279477879,0.7079988918,0.2644167713\C
 ,-1.2575571389,1.4679290663,-0.1345301526\C,0.0027466219,0.7320420553,
 0.3321041884\C,1.2936019197,1.4340233538,-0.0901719482\C,2.5780262918,
 0.6322648416,0.0879562866\O,3.6631127935,1.1596173057,0.1169737573\O,2
 .501159223,-0.7227045793,0.1186730336\C,1.2659857857,-1.4277368804,0.3
 523030501\C,0.0477005199,-0.7119152154,-0.2062621619\C,-1.2413930051,-

 Normal termination of Gaussian 16 at Wed Dec  9 16:44:26 2020.

 --------------------------------------------------------------------
 #N Geom=AllCheck Guess=TCheck SCRF=Check GenChk RB3LYP/6-31G(d) Freq
 --------------------------------------------------------------------

 Structure from the checkpoint file:  "JID_2002.chk"
 ------------------------------
 CID_13148527_JID_2002_neutraal
 ------------------------------
 Charge =  0 Multiplicity = 1

 SCF Done:  E(RB3LYP) =  -575.911811496     A.U. after    1 cycles

  Exact polarizability: 110.672  -4.515  98.478  -0.259  -1.854  72.414
 Approx polarizability: 144.216 -12.971 146.572   0.569  -6.857 118.558

                      1                      2                      3
                      A                      A                      A
 Frequencies --     66.2357                78.6994               123.7339
 Red. masses --      6.5613                 4.3785                 3.0753
 Frc consts  --      0.0170                 0.0160                 0.0277
 IR Inten    --      5.9170                 0.1928                 4.6103

                      4                      5                      6
                      A                      A                      A
 Frequencies --    166.5856               224.2616               243.4293
 Red. masses --      2.9363                 3.7185                 2.8363
 Frc consts  --      0.0480                 0.1102                 0.0990
 IR Inten    --      3.8047                 2.5161                 3.0716

                      7                      8                      9
                      A                      A                      A
 Frequencies --    315.6084               344.2614               378.6812
 Red. masses --      2.4014                 4.3237                 4.3380
 Frc consts  --      0.1409                 0.3019                 0.3665
 IR Inten    --      0.4610                 0.4679                 1.7194

                     10                     11                     12
                      A                      A                      A
 Frequencies --    411.7442               460.8665               488.6251
 Red. masses --      3.2959                 3.4482                 2.6106
 Frc consts  --      0.3292                 0.4315                 0.3672
 IR Inten    --      0.7451                 2.2168                 5.7141

                     13                     14                     15
                      A                      A                      A
 Frequencies --    538.2098               570.7802               595.8277
 Red. masses --      2.7905                 3.1759                 4.1845
 Frc consts  --      0.4762                 0.6096                 0.8753
 IR Inten    --      6.7291                 6.4000                 9.1070

                     16                     17                     18
                      A                      A                      A
 Frequencies --    665.4866               690.9276               788.7350
 Red. masses --      3.5273                 5.9086                 3.0008
 Frc consts  --      0.9204                 1.6619                 1.0999
 IR Inten    --      0.7642                 3.7067                 4.3270

                     19                     20                     21
                      A                      A                      A
 Frequencies --    818.7965               853.6745               880.1305
 Red. masses --      2.7588                 1.6903                 2.1859
 Frc consts  --      1.0898                 0.7258                 0.9976
 IR Inten    --      9.6364                 7.1956                 6.5998

                     22                     23                     24
                      A                      A                      A
 Frequencies --    902.0479               942.4264               961.5342
 Red. masses --      2.5710                 1.7372                 1.8534
 Frc consts  --      1.2326                 0.9091                 1.0096
 IR Inten    --      1.7727                 4.8159                 5.4362

                     25                     26                     27
                      A                      A                      A
 Frequencies --    999.1018              1039.9743              1072.0108
 Red. masses --      1.9290                 2.1544                 1.9794
 Frc consts  --      1.1345                 1.3728                 1.3402
 IR Inten    --      8.6582                 3.3736                51.0521

                     28                     29                     30
                      A                      A                      A
 Frequencies --   1084.5387              1105.8654              1123.2162
 Red. masses --      2.3319                 2.8619                 2.7933
 Frc consts  --      1.6160                 2.0621                 2.0763
 IR Inten    --     21.3851                11.0533                16.2306

                     31                     32                     33
                      A                      A                      A
 Frequencies --   1142.3258              1154.5483              1201.6430
 Red. masses --      2.3692                 2.3001                 1.8227
 Frc consts  --      1.8215                 1.8064                 1.5507
 IR Inten    --     10.2214                 5.4498                90.3696

                     34                     35                     36
                      A                      A                      A
 Frequencies --   1215.1529              1233.3631              1253.7667
 Red. masses --      1.4259                 1.5524                 2.0223
 Frc consts  --      1.2405                 1.3914                 1.8729
 IR Inten    --     22.7961                31.4580               111.7150

                     37                     38                     39
                      A                      A                      A
 Frequencies --   1279.2636              1299.1227              1317.5873
 Red. masses --      1.4232                 1.2815                 1.3047
 Frc consts  --      1.3723                 1.2743                 1.3345
 IR Inten    --     23.4795                 5.4016                 4.9462

                     40                     41                     42
                      A                      A                      A
 Frequencies --   1329.8920              1353.2908              1360.0634
 Red. masses --      1.3893                 1.3583                 1.4880
 Frc consts  --      1.4477                 1.4656                 1.6217
 IR Inten    --      8.5698                31.0205                13.7812

                     43                     44                     45
                      A                      A                      A
 Frequencies --   1378.7908              1395.0083              1399.8019
 Red. masses --      1.3840                 1.4876                 1.4898
 Frc consts  --      1.5502                 1.7057                 1.7200
 IR Inten    --     16.6826                14.0070                10.5352

                     46                     47                     48
                      A                      A                      A
 Frequencies --   1413.8372              1448.5073              1489.9349
 Red. masses --      1.5770                 1.5630                 1.0885
 Frc consts  --      1.8573                 1.9322                 1.4237
 IR Inten    --      1.7246                27.7241                 3.7247

                     49                     50                     51
                      A                      A                      A
 Frequencies --   1496.9849              1518.2562              1528.2597
 Red. masses --      1.0936                 1.0854                 1.0943
 Frc consts  --      1.4440                 1.4742                 1.5059
 IR Inten    --      6.1997                 7.7824                 2.5991

                     52                     53                     54
                      A                      A                      A
 Frequencies --   1536.7809              1812.0501              1850.2244
 Red. masses --      1.0865                11.5361                12.4205
 Frc consts  --      1.5118                22.3178                25.0518
 IR Inten    --      4.0980               188.3035               357.7994

                     55                     56                     57
                      A                      A                      A
 Frequencies --   3000.7454              3012.2554              3026.5018
 Red. masses --      1.0799                 1.0814                 1.0681
 Frc consts  --      5.7292                 5.7812                 5.7645
 IR Inten    --      0.3197                 7.1271                15.8035

                     58                     59                     60
                      A                      A                      A
 Frequencies --   3032.0802              3038.7243              3048.1937
 Red. masses --      1.0696                 1.0708                 1.0631
 Frc consts  --      5.7937                 5.8254                 5.8197
 IR Inten    --      7.7419                22.7952                32.6598

                     61                     62                     63
                      A                      A                      A
 Frequencies --   3078.4180              3082.3830              3096.0696
 Red. masses --      1.0675                 1.0957                 1.1016
 Frc consts  --      5.9604                 6.1336                 6.2213
 IR Inten    --     27.6628                38.3296                36.4698

                     64                     65                     66
                      A                      A                      A
 Frequencies --   3120.6144              3127.6594              3151.5328
 Red. masses --      1.0927                 1.0954                 1.1007
 Frc consts  --      6.2696                 6.3136                 6.4409
 IR Inten    --     11.8294                16.9318                16.5822

 - Thermochemistry -
 -------------------
 Temperature   298.150 Kelvin.  Pressure   1.00000 Atm.
 Atom     1 has atomic number  6 and mass  12.00000

 Molecular mass:   168.07864 amu.
 Principal axes and moments of inertia in atomic units:
                           1         2         3
     Eigenvalues --  1021.912782623.517153493.74927
           X            0.99972   0.02345  -0.00233
           Y           -0.02344   0.99972   0.00196
           Z            0.00237  -0.00191   1.00000
 This molecule is an asymmetric top.
 Rotational symmetry number  1.
 Warning -- assumption of classical behavior for rotation
           may cause significant error
 Rotational temperatures (Kelvin)      0.08476     0.03301     0.02479
 Rotational constants (GHZ):           1.76604     0.68791     0.51656
 Zero-point vibrational energy     533293.1 (Joules/Mol)
                                  127.46012 (Kcal/Mol)
 Warning -- explicit consideration of  15 degrees of freedom as
           vibrations may cause significant error
 Vibrational temperatures:     95.30   113.23   178.03   239.68   322.66
          (Kelvin)            350.24   454.09   495.32   544.84   592.41
                              663.08   703.02   774.36   821.23   857.26
                              957.49   994.09  1134.81  1178.07  1228.25
                             1266.31  1297.85  1355.94  1383.43  1437.48
                             1496.29  1542.38  1560.41  1591.09  1616.06
                             1643.55  1661.14  1728.90  1748.33  1774.53
                             1803.89  1840.57  1869.15  1895.71  1913.42
                             1947.08  1956.83  1983.77  2007.11  2014.00
                             2034.20  2084.08  2143.68  2153.83  2184.43
                             2198.82  2211.08  2607.14  2662.06  4317.40
                             4333.96  4354.46  4362.49  4372.05  4385.67
                             4429.16  4434.86  4454.55  4489.87  4500.00
                             4534.35

 Zero-point correction=                           0.203121 (Hartree/Particle)
 Thermal correction to Energy=                    0.213335
 Thermal correction to Enthalpy=                  0.214279
 Thermal correction to Gibbs Free Energy=         0.167007
 Sum of electronic and zero-point Energies=           -575.708691
 Sum of electronic and thermal Energies=              -575.698476
 Sum of electronic and thermal Enthalpies=            -575.697532
 Sum of electronic and thermal Free Energies=         -575.744804

                     E (Thermal)             CV                S
                      KCal/Mol        Cal/Mol-Kelvin    Cal/Mol-Kelvin
 Total                  133.870             39.713             99.492
 Electronic               0.000              0.000              0.000
 Translational            0.889              2.981             41.266
 Rotational               0.889              2.981             30.616
 Vibrational            132.092             33.752             27.610
 Vibration     1          0.598              1.970              4.262
 Vibration     2          0.600              1.963              3.923
 Vibration     3          0.610              1.929              3.041
 Vibration     4          0.624              1.884              2.474
 Vibration     5          0.649              1.804              1.924
 Vibration     6          0.659              1.774              1.778
 Vibration     7          0.703              1.644              1.333
 Vibration     8          0.723              1.587              1.192
 Vibration     9          0.749              1.516              1.044
 Vibration    10          0.776              1.445              0.920
 Vibration    11          0.819              1.337              0.764
 Vibration    12          0.845              1.275              0.687
 Vibration    13          0.893              1.166              0.569
 Vibration    14          0.927              1.094              0.503
 Vibration    15          0.954              1.041              0.457

                           ! Non-Optimized Parameters !

 1\1\GINC-NODE363\Freq\RB3LYP\6-31G(d)\C9H12O3\VSC10255\09-Dec-2020\0\\
 #N Geom=AllCheck Guess=TCheck SCRF=Check GenChk RB3LYP/6-31G(d) Freq\\
 CID_13148527_JID_2002_neutraal\\0,1\C,-2.5279477879,0.7079988918,0.264
 4167713\C,-1.2575571389,1.4679290663,-0.1345301526\C,0.0027466219,0.73
 20420553,0.3321041884\C,1.2936019197,1.4340233538,-0.0901719482\C,2.57
 80262918,0.6322648416,0.0879562866\O,3.6631127935,1.1596173057,0.11697
 37573\O,2.501159223,-0.7227045793,0.1186730336\C,1.2659857857,-1.42773
 68804,0.3523030501\C,0.0477005199,-0.7119152154,-0.2062621619\C,-1.241

 Normal termination of Gaussian 16 at Wed Dec  9 16:49:43 2020.

 ----------------------------------------------------------------------
 # B3LYP/6-311++G(d,p) empiricaldispersion=gd3bj scf=xqc pop=npa geom=c
 heck
 ----------------------------------------------------------------------

 --------------------------------------
 CID_13148527_JID_2002_Energie_neutraal
 --------------------------------------
 Structure from the checkpoint file:  "JID_2002.chk"
 Charge =  0 Multiplicity = 1

 SCF Done:  E(RB3LYP) =  -576.077001958     A.U. after   15 cycles
 Normal termination of Gaussian 16 at Wed Dec  9 16:51:38 2020.

 ----------------------------------------------------------------------
 # B3LYP/6-311++G(d,p) empiricaldispersion=gd3bj scf=xqc pop=npa geom=c
 heck
 ----------------------------------------------------------------------

 ------------------------------------
 CID_13148527_JID_2002_Energie_kation
 ------------------------------------
 Structure from the checkpoint file:  "JID_2002.chk"
 Charge =  1 Multiplicity = 2

 SCF Done:  E(UB3LYP) =  -575.738443574     A.U. after   23 cycles
 Normal termination of Gaussian 16 at Wed Dec  9 16:55:25 2020.
 Gaussian 16:  ES64L-G16RevA.03 25-Dec-2016

 -----------------------------------
 CID_13148527_JID_2002_Energie_anion
 -----------------------------------
 Structure from the checkpoint file:  "JID_2002.chk"
 Charge = -1 Multiplicity = 2

                         Standard orientation:
 ---------------------------------------------------------------------
 Center     Atomic      Atomic             Coordinates (Angstroms)
 Number     Number       Type             X           Y           Z
 ---------------------------------------------------------------------
      1          6           0       -2.451056   -1.380590   -0.302012
      2          6           0       -1.039225   -1.869857    0.041347
      3          6           0        0.017554   -0.819000   -0.314406
      4          6           0        1.436081   -1.250112    0.058858
      5          6           0        2.502001   -0.161837   -0.002492
      6          8           0        3.679008   -0.421213   -0.063598
      7          8           0        2.116452    1.134760    0.111452
      8          6           0        0.751924    1.560730   -0.072722
      9          6           0       -0.268312    0.528735    0.377521
     10          6           0       -1.694404    0.990386    0.099245
     11          8           0       -1.938669    2.092991   -0.353744
     12          6           0       -2.767623   -0.041367    0.395889
     13          1           0       -3.198048   -2.129224   -0.016391
     14          1           0       -2.537354   -1.247710   -1.388513
     15          1           0       -0.976079   -2.091362    1.117025
     16          1           0       -0.822547   -2.807093   -0.485452
     17          1           0       -0.024848   -0.643934   -1.400639
     18          1           0        1.789564   -2.081087   -0.557906
     19          1           0        1.441367   -1.611689    1.097752
     20          1           0        0.603828    1.795395   -1.132432
     21          1           0        0.658761    2.491159    0.488670
     22          1           0       -0.180406    0.369934    1.464632
     23          1           0       -3.735526    0.363775    0.089386
     24          1           0       -2.794669   -0.202988    1.483632
 ---------------------------------------------------------------------

 SCF Done:  E(UB3LYP) =  -576.075131410     A.U. after   29 cycles

 The electronic state is 2-A.
 Alpha  occ. eigenvalues --  -19.06118 -19.00423 -18.97737 -10.20009 -10.12634
 Alpha  occ. eigenvalues --  -10.11747 -10.08368 -10.08254 -10.07411 -10.06188
 Alpha  occ. eigenvalues --  -10.06055 -10.05386  -0.99857  -0.92069  -0.91445
 Alpha  occ. eigenvalues --   -0.74158  -0.67393  -0.66496  -0.60490  -0.57698
 Alpha  occ. eigenvalues --   -0.51758  -0.48251  -0.44527  -0.43073  -0.40456
 Alpha  occ. eigenvalues --   -0.37562  -0.37077  -0.36455  -0.34472  -0.33327
 Alpha  occ. eigenvalues --   -0.32847  -0.31226  -0.30254  -0.29345  -0.28168
 Alpha  occ. eigenvalues --   -0.26775  -0.25357  -0.24756  -0.24033  -0.22388
 Alpha  occ. eigenvalues --   -0.22102  -0.20942  -0.19583  -0.17088  -0.12375
 Alpha  occ. eigenvalues --    0.04510
 Alpha virt. eigenvalues --    0.07764   0.08345   0.08810   0.09313   0.09755
 Alpha virt. eigenvalues --    0.10918   0.11171   0.11419   0.11769   0.12319
 Alpha virt. eigenvalues --    0.14196   0.14306   0.14774   0.15197   0.15851

  Beta  occ. eigenvalues --  -19.06119 -19.00407 -18.97461 -10.19988 -10.12631
  Beta  occ. eigenvalues --  -10.11478 -10.08346 -10.08223 -10.07421 -10.06147
  Beta  occ. eigenvalues --  -10.06008 -10.05393  -0.99838  -0.92029  -0.90934
  Beta  occ. eigenvalues --   -0.74059  -0.67299  -0.66424  -0.60305  -0.57601
  Beta  occ. eigenvalues --   -0.51680  -0.48018  -0.44473  -0.42749  -0.40412
  Beta  occ. eigenvalues --   -0.37521  -0.36976  -0.36281  -0.34394  -0.33207
  Beta  occ. eigenvalues --   -0.32644  -0.30950  -0.30138  -0.29140  -0.27986
  Beta  occ. eigenvalues --   -0.26663  -0.25265  -0.24300  -0.23746  -0.22290
  Beta  occ. eigenvalues --   -0.21807  -0.20573  -0.19534  -0.17056  -0.12157
  Beta virt. eigenvalues --    0.07586   0.08589   0.09006   0.09349   0.09912
  Beta virt. eigenvalues --    0.10778   0.11223   0.11580   0.11973   0.12308
  Beta virt. eigenvalues --    0.12788   0.14489   0.14555   0.14880   0.15455

 Mulliken charges and spin densities:
               1          2
     1  C   -0.116535  -0.212040
     2  C    0.642291  -0.983039
     3  C   -0.282115   0.681577
     4  C    0.708400  -1.237872
     5  C   -0.025783   0.153436
     6  O   -0.325337   0.010881
     7  O   -0.113888   0.009347
     8  C   -0.113787  -0.539333
     9  C    0.377461  -0.195867
    10  C   -0.162650   0.160633
    11  O   -0.363488   0.099054
    12  C    0.332327  -0.701159
    13  H   -0.993506   1.201769
    14  H    0.214504  -0.114349
    15  H   -0.245946   0.416672
    16  H   -0.271258   0.414790
    17  H   -0.066517   0.240657
    18  H    0.212453  -0.015851
    19  H   -0.097942   0.294998
    20  H    0.190803   0.025186
    21  H    0.184426   0.022911
    22  H   -0.407580   0.655562
    23  H   -0.041995   0.221531
    24  H   -0.234338   0.390508
 Sum of Mulliken charges =  -1.00000   1.00000

 Dipole moment (field-independent basis, Debye):
    X=              3.0676    Y=              1.9200    Z=             -3.4078  Tot=              4.9709
 Quadrupole moment (field-independent basis, Debye-Ang):
   XX=           -137.9129   YY=           -109.7286   ZZ=            -94.8318
   XY=             -6.6510   XZ=              5.3208   YZ=              6.7308

 Summary of Natural Population Analysis:

                                       Natural Population
                Natural  -----------------------------------------------
    Atom  No    Charge         Core      Valence    Rydberg      Total
 -----------------------------------------------------------------------
      C    1   -0.18340      0.99963     2.17471    0.00906     3.18340
      C    2   -0.18919      0.99961     2.17983    0.00975     3.18919
      C    3   -0.10190      0.99958     2.09299    0.00933     3.10190
      C    4   -0.24221      0.99956     2.23314    0.00951     3.24221
      C    5    0.41456      0.99967     1.56072    0.02504     2.58544
      O    6   -0.30103      0.99987     3.29505    0.00612     4.30103
      O    7   -0.28180      0.99985     3.27386    0.00809     4.28180
      C    8   -0.00346      0.99954     1.99238    0.01154     3.00346
      C    9   -0.17112      0.99953     2.16052    0.01108     3.17112
      C   10    0.32755      0.99964     1.65077    0.02204     2.67245
      O   11   -0.27577      0.99987     3.26984    0.00606     4.27577
      C   12   -0.23533      0.99959     2.22641    0.00933     3.23533
      H   13    0.10609      0.00000     0.39017    0.00374     0.39391
      H   14    0.09123      0.00000     0.40755    0.00122     0.40877
      H   15    0.10250      0.00000     0.39374    0.00376     0.39750
      H   16    0.09931      0.00000     0.39965    0.00104     0.40069
      H   17    0.09398      0.00000     0.40434    0.00168     0.40602
      H   18    0.11211      0.00000     0.38695    0.00094     0.38789
      H   19    0.11718      0.00000     0.38149    0.00133     0.38282
      H   20    0.08990      0.00000     0.40888    0.00122     0.41010
      H   21    0.09854      0.00000     0.40026    0.00120     0.40146
      H   22    0.11440      0.00000     0.38285    0.00275     0.38560
      H   23    0.10584      0.00000     0.39317    0.00099     0.39416
      H   24    0.11201      0.00000     0.38403    0.00396     0.38799
 =======================================================================
   * Total *    0.00000     11.99594    32.84329    0.16077    45.00000

 Normal termination of Gaussian 16 at Wed Dec  9 17:00:16 2020.
