 Gaussian 16, Revision A.03,

 -----------------------------------------------------------
 # opt freq B3LYP/6-31G(d) empiricaldispersion=gd3bj scf=xqc
 -----------------------------------------------------------

 ------------------------------
 CID_62448031_JID_8489_neutraal
 ------------------------------
 Symbolic Z-matrix:
 Charge =  0 Multiplicity = 1

 SCF Done:  E(RB3LYP) =  -825.124241453     A.U. after   14 cycles
 SCF Done:  E(RB3LYP) =  -825.129009009     A.U. after   12 cycles
 SCF Done:  E(RB3LYP) =  -825.128762010     A.U. after   12 cycles
 SCF Done:  E(RB3LYP) =  -825.130282416     A.U. after   11 cycles
 SCF Done:  E(RB3LYP) =  -825.130592216     A.U. after   11 cycles
 SCF Done:  E(RB3LYP) =  -825.130733508     A.U. after   11 cycles
 SCF Done:  E(RB3LYP) =  -825.130791578     A.U. after   10 cycles
 SCF Done:  E(RB3LYP) =  -825.130801702     A.U. after   10 cycles
 SCF Done:  E(RB3LYP) =  -825.130803698     A.U. after    9 cycles
 SCF Done:  E(RB3LYP) =  -825.130805167     A.U. after    8 cycles
 SCF Done:  E(RB3LYP) =  -825.130805956     A.U. after    7 cycles
 SCF Done:  E(RB3LYP) =  -825.130806057     A.U. after    7 cycles
 SCF Done:  E(RB3LYP) =  -825.130806144     A.U. after    7 cycles
 SCF Done:  E(RB3LYP) =  -825.130806195     A.U. after    7 cycles
 SCF Done:  E(RB3LYP) =  -825.130806228     A.U. after    7 cycles
 SCF Done:  E(RB3LYP) =  -825.130806246     A.U. after    6 cycles
 Optimization completed.
    -- Stationary point found.
 Normal termination of Gaussian 16 at Fri Dec 11 20:59:37 2020.

 --------------------------------------------------------------------
 #N Geom=AllCheck Guess=TCheck SCRF=Check GenChk RB3LYP/6-31G(d) Freq
 --------------------------------------------------------------------

 Structure from the checkpoint file:  "JID_8489.chk"
 ------------------------------
 CID_62448031_JID_8489_neutraal
 ------------------------------
 Charge =  0 Multiplicity = 1

 SCF Done:  E(RB3LYP) =  -825.130806246     A.U. after    1 cycles

  Exact polarizability: 196.505   5.791 153.170  -6.412  -3.389 137.223
 Approx polarizability: 239.594   4.101 238.603 -15.552  -8.597 205.500

                      1                      2                      3
                      A                      A                      A
 Frequencies --     15.0657                34.8783                38.1233
 Red. masses --      3.8937                 3.0986                 3.7013
 Frc consts  --      0.0005                 0.0022                 0.0032
 IR Inten    --      0.1265                 0.5459                 0.2435

                      4                      5                      6
                      A                      A                      A
 Frequencies --     51.9430                61.3774                74.6931
 Red. masses --      3.8243                 2.7468                 4.7628
 Frc consts  --      0.0061                 0.0061                 0.0157
 IR Inten    --      0.2365                 1.3618                 3.2207

                      7                      8                      9
                      A                      A                      A
 Frequencies --     85.6162                90.4675               121.7736
 Red. masses --      3.1368                 3.6670                 3.3775
 Frc consts  --      0.0135                 0.0177                 0.0295
 IR Inten    --      1.1420                 1.5804                 1.5478

                     10                     11                     12
                      A                      A                      A
 Frequencies --    164.3546               212.6851               224.1113
 Red. masses --      2.6761                 3.8992                 1.6833
 Frc consts  --      0.0426                 0.1039                 0.0498
 IR Inten    --      0.8445                 0.4032                 2.3211

                     13                     14                     15
                      A                      A                      A
 Frequencies --    239.5317               241.1653               258.9680
 Red. masses --      1.0700                 1.3073                 2.5575
 Frc consts  --      0.0362                 0.0448                 0.1011
 IR Inten    --      0.2466                 0.3242                 0.8435

                     16                     17                     18
                      A                      A                      A
 Frequencies --    270.2529               283.1996               294.9165
 Red. masses --      1.6450                 1.3439                 1.3897
 Frc consts  --      0.0708                 0.0635                 0.0712
 IR Inten    --      1.7112                 0.3665                 1.2518

                     19                     20                     21
                      A                      A                      A
 Frequencies --    298.1175               336.7043               341.3913
 Red. masses --      1.6497                 1.9458                 2.1782
 Frc consts  --      0.0864                 0.1300                 0.1496
 IR Inten    --      3.4749                 6.6772                 1.5769

                     22                     23                     24
                      A                      A                      A
 Frequencies --    355.4106               361.4455               386.1663
 Red. masses --      2.2641                 3.2121                 2.7519
 Frc consts  --      0.1685                 0.2472                 0.2418
 IR Inten    --      1.6736                 0.4558                 2.2182

                     25                     26                     27
                      A                      A                      A
 Frequencies --    395.9142               405.8310               431.1672
 Red. masses --      2.5714                 2.4674                 2.3137
 Frc consts  --      0.2375                 0.2394                 0.2534
 IR Inten    --      0.7081                 4.0666                 0.7262

                     28                     29                     30
                      A                      A                      A
 Frequencies --    451.6452               478.3821               554.3029
 Red. masses --      2.1821                 2.0763                 3.6639
 Frc consts  --      0.2623                 0.2800                 0.6633
 IR Inten    --     12.2753                 0.9380                 3.2196

                     31                     32                     33
                      A                      A                      A
 Frequencies --    568.6548               623.9901               678.3263
 Red. masses --      2.3443                 5.0936                 3.7046
 Frc consts  --      0.4466                 1.1685                 1.0043
 IR Inten    --      8.7313                 2.3652                19.8533

                     34                     35                     36
                      A                      A                      A
 Frequencies --    698.9149               738.3811               774.6919
 Red. masses --      2.7192                 2.9560                 3.2842
 Frc consts  --      0.7826                 0.9495                 1.1613
 IR Inten    --     48.9338                 3.2753                32.3389

                     37                     38                     39
                      A                      A                      A
 Frequencies --    803.5589               810.8392               845.4449
 Red. masses --      2.4336                 2.8355                 1.7377
 Frc consts  --      0.9258                 1.0984                 0.7318
 IR Inten    --     12.1382                38.3688                32.6812

                     40                     41                     42
                      A                      A                      A
 Frequencies --    850.2911               890.8498               922.6532
 Red. masses --      2.3746                 2.1147                 4.8449
 Frc consts  --      1.0115                 0.9888                 2.4300
 IR Inten    --     11.5342                11.3087                12.8648

                     43                     44                     45
                      A                      A                      A
 Frequencies --    923.3417               943.7925               963.3311
 Red. masses --      1.7858                 1.7399                 2.3867
 Frc consts  --      0.8971                 0.9131                 1.3050
 IR Inten    --      0.2678                 0.1518                 6.2879

                     46                     47                     48
                      A                      A                      A
 Frequencies --    974.1874               992.7527               997.6937
 Red. masses --      1.2064                 1.9688                 2.2428
 Frc consts  --      0.6746                 1.1432                 1.3153
 IR Inten    --      0.0197                 4.8350                 1.2280

                     49                     50                     51
                      A                      A                      A
 Frequencies --   1029.9032              1038.3252              1039.6993
 Red. masses --      2.8531                 3.9182                 3.0541
 Frc consts  --      1.7830                 2.4889                 1.9452
 IR Inten    --     10.6957                16.2334                59.2070

                     52                     53                     54
                      A                      A                      A
 Frequencies --   1064.6772              1067.3157              1082.0755
 Red. masses --      1.4113                 1.6220                 2.0219
 Frc consts  --      0.9425                 1.0886                 1.3949
 IR Inten    --      6.9382                 9.1086                28.3133

                     55                     56                     57
                      A                      A                      A
 Frequencies --   1085.2557              1144.2329              1156.7899
 Red. masses --      2.0022                 3.6105                 1.6358
 Frc consts  --      1.3894                 2.7851                 1.2897
 IR Inten    --     16.8781                17.4954                 5.7836

                     58                     59                     60
                      A                      A                      A
 Frequencies --   1158.7015              1164.4214              1181.5741
 Red. masses --      1.4878                 5.3662                 1.5699
 Frc consts  --      1.1769                 4.2868                 1.2914
 IR Inten    --     28.7981               118.5795                11.8679

                     61                     62                     63
                      A                      A                      A
 Frequencies --   1198.8943              1222.5218              1233.2306
 Red. masses --      1.4548                 1.6205                 1.5659
 Frc consts  --      1.2320                 1.4269                 1.4031
 IR Inten    --      2.4040                14.8372                16.4742

                     64                     65                     66
                      A                      A                      A
 Frequencies --   1253.0223              1256.1327              1271.5433
 Red. masses --      2.0561                 1.9484                 2.6370
 Frc consts  --      1.9020                 1.8113                 2.5120
 IR Inten    --     25.1751                20.5814                64.4097

                     67                     68                     69
                      A                      A                      A
 Frequencies --   1285.5599              1295.3261              1327.8465
 Red. masses --      1.7058                 1.7887                 1.8497
 Frc consts  --      1.6609                 1.7683                 1.9215
 IR Inten    --      1.2434                13.5503                 3.1896

                     70                     71                     72
                      A                      A                      A
 Frequencies --   1348.1884              1380.0682              1391.9535
 Red. masses --      1.6085                 1.3465                 1.2829
 Frc consts  --      1.7226                 1.5110                 1.4645
 IR Inten    --     10.6086                 1.7460                11.5085

                     73                     74                     75
                      A                      A                      A
 Frequencies --   1408.2898              1424.1230              1426.3397
 Red. masses --      1.2833                 1.2577                 1.2667
 Frc consts  --      1.4995                 1.5029                 1.5183
 IR Inten    --     22.5951                 0.1995                 8.9900

                     76                     77                     78
                      A                      A                      A
 Frequencies --   1428.0742              1438.8959              1453.5066
 Red. masses --      1.4564                 1.3495                 1.2283
 Frc consts  --      1.7500                 1.6462                 1.5290
 IR Inten    --     58.7401                 9.3098                16.1741

                     79                     80                     81
                      A                      A                      A
 Frequencies --   1468.8882              1481.0415              1499.4533
 Red. masses --      4.5397                 1.1502                 1.1191
 Frc consts  --      5.7710                 1.4865                 1.4824
 IR Inten    --     31.7034                 1.2476                 8.4061

                     82                     83                     84
                      A                      A                      A
 Frequencies --   1500.8299              1501.5963              1507.8445
 Red. masses --      1.1039                 1.1527                 1.0933
 Frc consts  --      1.4651                 1.5313                 1.4646
 IR Inten    --      3.3526                 4.9735                 8.1674

                     85                     86                     87
                      A                      A                      A
 Frequencies --   1509.5092              1512.1852              1514.5081
 Red. masses --      1.1304                 1.0828                 1.0479
 Frc consts  --      1.5176                 1.4588                 1.4162
 IR Inten    --      9.9085                 6.7448                 4.7115

                     88                     89                     90
                      A                      A                      A
 Frequencies --   1515.6149              1520.2478              1522.5983
 Red. masses --      1.0871                 1.1318                 1.1434
 Frc consts  --      1.4713                 1.5412                 1.5617
 IR Inten    --      2.0351                 2.5713                 0.5246

                     91                     92                     93
                      A                      A                      A
 Frequencies --   1529.0965              1529.9542              1536.5564
 Red. masses --      1.9670                 1.2267                 1.0905
 Frc consts  --      2.7097                 1.6917                 1.5170
 IR Inten    --      9.3486                13.9722                 3.6161

                     94                     95                     96
                      A                      A                      A
 Frequencies --   1545.3614              1550.6842              1556.2725
 Red. masses --      1.0641                 1.1152                 1.0741
 Frc consts  --      1.4973                 1.5800                 1.5327
 IR Inten    --      7.0428                12.3052                 2.1417

                     97                     98                     99
                      A                      A                      A
 Frequencies --   1556.5837              1655.7334              2946.5026
 Red. masses --      1.0830                 7.3250                 1.0611
 Frc consts  --      1.5460                11.8315                 5.4280
 IR Inten    --      2.3653                23.0571                75.3993

                    100                    101                    102
                      A                      A                      A
 Frequencies --   2976.1699              2996.1441              3011.0824
 Red. masses --      1.0576                 1.0404                 1.0974
 Frc consts  --      5.5194                 5.5026                 5.8622
 IR Inten    --     42.5502                92.9726                59.3339

                    103                    104                    105
                      A                      A                      A
 Frequencies --   3019.9707              3039.1460              3040.5261
 Red. masses --      1.0666                 1.0387                 1.1053
 Frc consts  --      5.7311                 5.6528                 6.0202
 IR Inten    --     43.7467                14.7163                55.0470

                    106                    107                    108
                      A                      A                      A
 Frequencies --   3044.8602              3054.5673              3055.0452
 Red. masses --      1.0388                 1.0676                 1.0471
 Frc consts  --      5.6742                 5.8687                 5.7578
 IR Inten    --     44.3415                32.0764                30.2077

                    109                    110                    111
                      A                      A                      A
 Frequencies --   3057.2133              3073.0625              3083.4002
 Red. masses --      1.0581                 1.0706                 1.0956
 Frc consts  --      5.8269                 5.9570                 6.1370
 IR Inten    --     22.2964                43.5266                17.5083

                    112                    113                    114
                      A                      A                      A
 Frequencies --   3097.5891              3106.6455              3115.2637
 Red. masses --      1.1012                 1.0992                 1.0978
 Frc consts  --      6.2253                 6.2506                 6.2771
 IR Inten    --      6.6094                60.4987                19.6050

                    115                    116                    117
                      A                      A                      A
 Frequencies --   3118.8372              3122.8260              3127.5177
 Red. masses --      1.1035                 1.1020                 1.0986
 Frc consts  --      6.3244                 6.3318                 6.3314
 IR Inten    --     32.3289                23.4249                19.0080

                    118                    119                    120
                      A                      A                      A
 Frequencies --   3133.8941              3135.3479              3138.1738
 Red. masses --      1.1020                 1.0996                 1.0973
 Frc consts  --      6.3768                 6.3686                 6.3670
 IR Inten    --     37.8450                11.3314                27.2380

                    121                    122                    123
                      A                      A                      A
 Frequencies --   3158.4492              3297.4477              3489.4350
 Red. masses --      1.0965                 1.0979                 1.0736
 Frc consts  --      6.4447                 7.0334                 7.7020
 IR Inten    --     19.6018                 0.5668                 2.2540

 - Thermochemistry -
 -------------------
 Temperature   298.150 Kelvin.  Pressure   1.00000 Atm.
 Atom     1 has atomic number  6 and mass  12.00000

 Molecular mass:   255.19468 amu.
 Principal axes and moments of inertia in atomic units:
                           1         2         3
     Eigenvalues --  2441.341869342.29669**********
           X            1.00000  -0.00097   0.00267
           Y            0.00098   0.99999  -0.00357
           Z           -0.00267   0.00357   0.99999
 This molecule is an asymmetric top.
 Rotational symmetry number  1.
 Warning -- assumption of classical behavior for rotation
           may cause significant error
 Rotational temperatures (Kelvin)      0.03548     0.00927     0.00826
 Rotational constants (GHZ):           0.73924     0.19318     0.17213
 Zero-point vibrational energy    1003496.2 (Joules/Mol)
                                  239.84135 (Kcal/Mol)
 Warning -- explicit consideration of  31 degrees of freedom as
           vibrations may cause significant error
 Vibrational temperatures:     21.68    50.18    54.85    74.73    88.31
          (Kelvin)            107.47   123.18   130.16   175.21   236.47
                              306.01   322.45   344.63   346.98   372.60
                              388.83   407.46   424.32   428.92   484.44
                              491.19   511.36   520.04   555.61   569.63
                              583.90   620.35   649.82   688.29   797.52
                              818.17   897.78   975.96  1005.58  1062.37
                             1114.61  1156.14  1166.62  1216.41  1223.38
                             1281.73  1327.49  1328.48  1357.91  1386.02
                             1401.64  1428.35  1435.46  1481.80  1493.92
                             1495.90  1531.83  1535.63  1556.87  1561.44
                             1646.30  1664.36  1667.11  1675.34  1700.02
                             1724.94  1758.94  1774.34  1802.82  1807.29
                             1829.47  1849.63  1863.69  1910.47  1939.74
                             1985.61  2002.71  2026.21  2049.00  2052.18
                             2054.68  2070.25  2091.27  2113.40  2130.89
                             2157.38  2159.36  2160.46  2169.45  2171.85
                             2175.70  2179.04  2180.63  2187.30  2190.68
                             2200.03  2201.26  2210.76  2223.43  2231.09
                             2239.13  2239.58  2382.23  4239.36  4282.04
                             4310.78  4332.28  4345.06  4372.65  4374.64
                             4380.87  4394.84  4395.53  4398.65  4421.45
                             4436.33  4456.74  4469.77  4482.17  4487.31
                             4493.05  4499.80  4508.97  4511.07  4515.13
                             4544.30  4744.29  5020.52

 Zero-point correction=                           0.382212 (Hartree/Particle)
 Thermal correction to Energy=                    0.402551
 Thermal correction to Enthalpy=                  0.403495
 Thermal correction to Gibbs Free Energy=         0.331538
 Sum of electronic and zero-point Energies=           -824.748595
 Sum of electronic and thermal Energies=              -824.728256
 Sum of electronic and thermal Enthalpies=            -824.727311
 Sum of electronic and thermal Free Energies=         -824.799268

                     E (Thermal)             CV                S
                      KCal/Mol        Cal/Mol-Kelvin    Cal/Mol-Kelvin
 Total                  252.604             75.584            151.446
 Electronic               0.000              0.000              0.000
 Translational            0.889              2.981             42.511
 Rotational               0.889              2.981             33.836
 Vibrational            250.827             69.623             75.100
 Vibration     1          0.593              1.986              7.197
 Vibration     2          0.594              1.983              5.531
 Vibration     3          0.594              1.982              5.354
 Vibration     4          0.596              1.977              4.742
 Vibration     5          0.597              1.973              4.412
 Vibration     6          0.599              1.966              4.026
 Vibration     7          0.601              1.959              3.758
 Vibration     8          0.602              1.956              3.650
 Vibration     9          0.609              1.931              3.072
 Vibration    10          0.623              1.886              2.499
 Vibration    11          0.644              1.822              2.021
 Vibration    12          0.649              1.804              1.926
 Vibration    13          0.657              1.780              1.806
 Vibration    14          0.658              1.777              1.794
 Vibration    15          0.668              1.748              1.669
 Vibration    16          0.674              1.728              1.595
 Vibration    17          0.682              1.705              1.514
 Vibration    18          0.689              1.683              1.446
 Vibration    19          0.691              1.677              1.427
 Vibration    20          0.717              1.602              1.228
 Vibration    21          0.721              1.593              1.206
 Vibration    22          0.731              1.564              1.142
 Vibration    23          0.736              1.552              1.116
 Vibration    24          0.755              1.500              1.015
 Vibration    25          0.763              1.479              0.978
 Vibration    26          0.771              1.458              0.941
 Vibration    27          0.792              1.402              0.855
 Vibration    28          0.810              1.357              0.791
 Vibration    29          0.835              1.298              0.714
 Vibration    30          0.910              1.130              0.535
 Vibration    31          0.925              1.099              0.507

 Optimization completed.
    -- Stationary point found.
 Normal termination of Gaussian 16 at Fri Dec 11 21:20:06 2020.

 ----------------------------------------------------------------------
 # B3LYP/6-311++G(d,p) empiricaldispersion=gd3bj scf=xqc pop=npa geom=c
 heck
 ----------------------------------------------------------------------

 --------------------------------------
 CID_62448031_JID_8489_Energie_neutraal
 --------------------------------------
 Structure from the checkpoint file:  "JID_8489.chk"
 Charge =  0 Multiplicity = 1

 SCF Done:  E(RB3LYP) =  -825.364373865     A.U. after   16 cycles
 Normal termination of Gaussian 16 at Fri Dec 11 21:31:07 2020.

 ----------------------------------------------------------------------
 # B3LYP/6-311++G(d,p) empiricaldispersion=gd3bj scf=xqc pop=npa geom=c
 heck
 ----------------------------------------------------------------------

 ------------------------------------
 CID_62448031_JID_8489_Energie_kation
 ------------------------------------
 Structure from the checkpoint file:  "JID_8489.chk"
 Charge =  1 Multiplicity = 2

 SCF Done:  E(UB3LYP) =  -825.084420156     A.U. after   23 cycles
 Normal termination of Gaussian 16 at Fri Dec 11 21:53:50 2020.
 Gaussian 16:  ES64L-G16RevA.03 25-Dec-2016

 ----------------------------------------------------------------------
 # B3LYP/6-311++G(d,p) empiricaldispersion=gd3bj scf=xqc pop=npa geom=c
 heck
 ----------------------------------------------------------------------

 -----------------------------------
 CID_62448031_JID_8489_Energie_anion
 -----------------------------------
 Structure from the checkpoint file:  "JID_8489.chk"
 Charge = -1 Multiplicity = 2

                         Standard orientation:
 ---------------------------------------------------------------------
 Center     Atomic      Atomic             Coordinates (Angstroms)
 Number     Number       Type             X           Y           Z
 ---------------------------------------------------------------------
      1          6           0        4.615266   -0.897677   -0.058953
      2          6           0        3.899330    0.396231    0.349964
      3          6           0        3.012708    0.130539    1.586301
      4          6           0        4.941379    1.469193    0.706183
      5          7           0        3.158621    0.940676   -0.812555
      6          6           0        2.294054    0.066308   -1.602216
      7          6           0        1.114549   -0.550855   -0.891339
      8          7           0        1.081974   -1.847843   -0.670163
      9          8           0       -0.100079   -2.080452    0.048611
     10          6           0       -0.743825   -0.905562    0.236196
     11          6           0       -0.025081    0.101261   -0.334377
     12          6           0       -2.037940   -0.949020    0.981273
     13          7           0       -3.182298   -1.256210    0.115008
     14          6           0       -4.372164   -1.540183    0.899462
     15          6           0       -3.411051   -0.319642   -0.981267
     16          6           0       -3.859071    1.101077   -0.629763
     17          8           0       -2.790953    1.802871   -0.011005
     18          6           0       -3.149080    3.116763    0.361488
     19          1           0        5.292965   -1.213815    0.741049
     20          1           0        5.206592   -0.739702   -0.967613
     21          1           0        3.907068   -1.713046   -0.235612
     22          1           0        3.632013   -0.139623    2.450092
     23          1           0        2.442144    1.028971    1.853403
     24          1           0        2.306903   -0.683919    1.412094
     25          1           0        5.598800    1.659792   -0.147365
     26          1           0        4.451019    2.414116    0.973996
     27          1           0        5.549614    1.155709    1.561980
     28          1           0        2.632996    1.758873   -0.510223
     29          1           0        1.921722    0.666022   -2.441804
     30          1           0        2.893840   -0.738841   -2.032741
     31          1           0       -0.296290    1.145086   -0.367312
     32          1           0       -1.973321   -1.751125    1.725158
     33          1           0       -2.159000    0.002324    1.520068
     34          1           0       -4.707599   -0.701790    1.539124
     35          1           0       -5.196296   -1.804597    0.228178
     36          1           0       -4.179495   -2.397810    1.553583
     37          1           0       -2.494674   -0.253799   -1.575536
     38          1           0       -4.182612   -0.757856   -1.627339
     39          1           0       -4.165765    1.620612   -1.554124
     40          1           0       -4.735321    1.086608    0.038907
     41          1           0       -3.443882    3.718336   -0.512868
     42          1           0       -3.982883    3.120552    1.081124
     43          1           0       -2.272807    3.572621    0.829199
 ---------------------------------------------------------------------

 SCF Done:  E(UB3LYP) =  -825.355521024     A.U. after   32 cycles

 The electronic state is 2-A.
 Alpha  occ. eigenvalues --  -19.11458 -19.03443 -14.26635 -14.21980 -14.21371
 Alpha  occ. eigenvalues --  -10.14961 -10.12565 -10.12113 -10.12043 -10.12013
 Alpha  occ. eigenvalues --  -10.11668 -10.11374 -10.10340 -10.09903 -10.08241
 Alpha  occ. eigenvalues --  -10.07517 -10.07346 -10.06766  -1.04871  -0.94689
 Alpha  occ. eigenvalues --   -0.83933  -0.83058  -0.78128  -0.71475  -0.69931
 Alpha  occ. eigenvalues --   -0.66753  -0.62652  -0.61489  -0.60116  -0.59642
 Alpha  occ. eigenvalues --   -0.59415  -0.55127  -0.51759  -0.49957  -0.47109
 Alpha  occ. eigenvalues --   -0.46431  -0.42027  -0.41297  -0.40608  -0.40410
 Alpha  occ. eigenvalues --   -0.38686  -0.38072  -0.37748  -0.36881  -0.36157
 Alpha  occ. eigenvalues --   -0.35767  -0.34727  -0.33828  -0.33629  -0.31434
 Alpha  occ. eigenvalues --   -0.31179  -0.30688  -0.30059  -0.29929  -0.29788
 Alpha  occ. eigenvalues --   -0.28752  -0.28266  -0.28217  -0.28109  -0.27173
 Alpha  occ. eigenvalues --   -0.26565  -0.25253  -0.24749  -0.23648  -0.21998
 Alpha  occ. eigenvalues --   -0.20211  -0.17407  -0.16971  -0.14393  -0.12728
 Alpha  occ. eigenvalues --    0.03829
 Alpha virt. eigenvalues --    0.05560   0.06529   0.06587   0.07096   0.07666
 Alpha virt. eigenvalues --    0.07912   0.08266   0.09044   0.09293   0.09382
 Alpha virt. eigenvalues --    0.10050   0.10359   0.10605   0.11039   0.11975

  Beta  occ. eigenvalues --  -19.11451 -19.03433 -14.26624 -14.21980 -14.21356
  Beta  occ. eigenvalues --  -10.14955 -10.12565 -10.12082 -10.12042 -10.12009
  Beta  occ. eigenvalues --  -10.11660 -10.11323 -10.10329 -10.09872 -10.08233
  Beta  occ. eigenvalues --  -10.07508 -10.07330 -10.06753  -1.04858  -0.94674
  Beta  occ. eigenvalues --   -0.83923  -0.83038  -0.78113  -0.71460  -0.69916
  Beta  occ. eigenvalues --   -0.66718  -0.62624  -0.61469  -0.60090  -0.59578
  Beta  occ. eigenvalues --   -0.59384  -0.55045  -0.51735  -0.49911  -0.47083
  Beta  occ. eigenvalues --   -0.46404  -0.42008  -0.41259  -0.40584  -0.40357
  Beta  occ. eigenvalues --   -0.38657  -0.38031  -0.37724  -0.36853  -0.36131
  Beta  occ. eigenvalues --   -0.35736  -0.34694  -0.33807  -0.33610  -0.31413
  Beta  occ. eigenvalues --   -0.31157  -0.30667  -0.30037  -0.29906  -0.29776
  Beta  occ. eigenvalues --   -0.28719  -0.28244  -0.28190  -0.28080  -0.27152
  Beta  occ. eigenvalues --   -0.26541  -0.25238  -0.24727  -0.23579  -0.21980
  Beta  occ. eigenvalues --   -0.20186  -0.17375  -0.16938  -0.14377  -0.12714
  Beta virt. eigenvalues --    0.05749   0.06282   0.06621   0.07232   0.07513
  Beta virt. eigenvalues --    0.08067   0.08122   0.08421   0.09414   0.09529
  Beta virt. eigenvalues --    0.09770   0.10333   0.10537   0.10668   0.11233

 Mulliken charges and spin densities:
               1          2
     1  C   -0.310869  -0.297909
     2  C   -0.479235   0.503691
     3  C   -0.174750  -0.415937
     4  C    0.108748  -0.511342
     5  N    0.115473  -0.012686
     6  C   -0.425171  -0.476504
     7  C    0.526688   0.217818
     8  N   -0.305135   0.013460
     9  O    0.191912  -0.005980
    10  C   -0.555299   0.292971
    11  C    0.263190  -0.550004
    12  C   -0.750387   0.200729
    13  N    0.210702  -0.003167
    14  C    0.680523  -0.955480
    15  C   -0.905935   0.342593
    16  C    0.781610  -1.047507
    17  O   -0.216641   0.092818
    18  C    0.860581  -1.135744
    19  H    0.090280   0.039559
    20  H    0.069999   0.072716
    21  H    0.160450   0.014987
    22  H    0.065411   0.075390
    23  H    0.002741   0.144608
    24  H    0.179887   0.019133
    25  H    0.055511   0.101746
    26  H   -0.159863   0.302394
    27  H    0.068709   0.050443
    28  H    0.075550   0.153689
    29  H   -0.051775   0.235574
    30  H    0.204147  -0.023933
    31  H    0.322735  -0.029258
    32  H   -0.014352   0.205829
    33  H    0.183882   0.008064
    34  H   -0.219415   0.354079
    35  H   -0.150272   0.291172
    36  H    0.020465   0.111774
    37  H    0.163477   0.033405
    38  H   -0.248730   0.429226
    39  H   -0.211771   0.353804
    40  H   -0.053053   0.220221
    41  H   -0.259281   0.399578
    42  H   -0.365808   0.502437
    43  H   -0.544928   0.681540
 Sum of Mulliken charges =  -1.00000   1.00000

 Dipole moment (field-independent basis, Debye):
    X=              5.5909    Y=             -4.3978    Z=             -0.6658  Tot=              7.1444
 Quadrupole moment (field-independent basis, Debye-Ang):
   XX=           -209.3452   YY=           -173.9989   ZZ=           -144.7997
   XY=              7.5194   XZ=              2.6433   YZ=             -3.2981

 Summary of Natural Population Analysis:

                                       Natural Population
                Natural  -----------------------------------------------
    Atom  No    Charge         Core      Valence    Rydberg      Total
 -----------------------------------------------------------------------
      C    1   -0.29427      0.99962     2.28902    0.00564     3.29427
      C    2    0.05492      0.99960     1.93346    0.01203     2.94508
      C    3   -0.29597      0.99962     2.28922    0.00714     3.29597
      C    4   -0.28290      0.99962     2.27694    0.00634     3.28290
      N    5   -0.34149      0.99972     2.82939    0.01238     3.84149
      C    6   -0.10463      0.99957     2.09241    0.01266     3.10463
      C    7    0.07420      0.99959     1.91112    0.01509     2.92580
      N    8   -0.09075      0.99966     2.57900    0.01208     3.59075
      O    9   -0.16621      0.99985     3.15802    0.00833     4.16621
      C   10    0.17937      0.99949     1.80605    0.01509     2.82063
      C   11   -0.16934      0.99942     2.16055    0.00937     3.16934
      C   12   -0.11257      0.99955     2.10080    0.01222     3.11257
      N   13   -0.27382      0.99973     2.76183    0.01227     3.77382
      C   14   -0.17817      0.99964     2.16979    0.00874     3.17817
      C   15   -0.09484      0.99960     2.08254    0.01270     3.09484
      C   16   -0.01852      0.99958     2.00693    0.01201     3.01852
      O   17   -0.30639      0.99989     3.29516    0.01135     4.30639
      C   18   -0.09626      0.99962     2.08732    0.00931     3.09626
      H   19    0.10002      0.00000     0.39929    0.00069     0.39998
      H   20    0.10057      0.00000     0.39857    0.00086     0.39943
      H   21    0.10728      0.00000     0.39164    0.00109     0.39272
      H   22    0.09713      0.00000     0.40215    0.00072     0.40287
      H   23    0.10137      0.00000     0.39758    0.00105     0.39863
      H   24    0.10542      0.00000     0.39312    0.00146     0.39458
      H   25    0.10211      0.00000     0.39680    0.00110     0.39789
      H   26    0.10031      0.00000     0.39868    0.00100     0.39969
      H   27    0.09610      0.00000     0.40312    0.00077     0.40390
      H   28    0.17609      0.00000     0.32107    0.00284     0.32391
      H   29    0.10368      0.00000     0.39536    0.00095     0.39632
      H   30    0.10292      0.00000     0.39591    0.00117     0.39708
      H   31    0.12518      0.00000     0.37290    0.00193     0.37482
      H   32    0.10409      0.00000     0.39441    0.00150     0.39591
      H   33    0.10430      0.00000     0.39389    0.00181     0.39570
      H   34    0.08405      0.00000     0.41432    0.00163     0.41595
      H   35    0.09648      0.00000     0.40253    0.00100     0.40352
      H   36    0.09402      0.00000     0.40491    0.00106     0.40598
      H   37    0.10182      0.00000     0.39630    0.00188     0.39818
      H   38    0.09766      0.00000     0.40132    0.00102     0.40234
      H   39    0.08241      0.00000     0.41586    0.00173     0.41759
      H   40    0.08184      0.00000     0.41610    0.00206     0.41816
      H   41    0.07948      0.00000     0.41845    0.00206     0.42052
      H   42    0.08046      0.00000     0.41750    0.00204     0.41954
      H   43    0.09284      0.00000     0.40530    0.00186     0.40716
 =======================================================================
   * Total *   -0.00000     17.99335    51.77665    0.23000    70.00000

 Normal termination of Gaussian 16 at Fri Dec 11 22:24:31 2020.
