 Gaussian 16, Revision A.03,

 -----------------------------------------------------------
 # opt freq B3LYP/6-31G(d) empiricaldispersion=gd3bj scf=xqc
 -----------------------------------------------------------

 ------------------------------
 CID_149684601_JID_969_neutraal
 ------------------------------
 Symbolic Z-matrix:
 Charge =  0 Multiplicity = 1

 SCF Done:  E(RB3LYP) =  -509.416460850     A.U. after   15 cycles
 SCF Done:  E(RB3LYP) =  -509.423325919     A.U. after   13 cycles
 SCF Done:  E(RB3LYP) =  -509.424454899     A.U. after   12 cycles
 SCF Done:  E(RB3LYP) =  -509.425331698     A.U. after   12 cycles
 SCF Done:  E(RB3LYP) =  -509.426485619     A.U. after   13 cycles
 SCF Done:  E(RB3LYP) =  -509.428078985     A.U. after   14 cycles
 SCF Done:  E(RB3LYP) =  -509.429093211     A.U. after   12 cycles
 SCF Done:  E(RB3LYP) =  -509.429610872     A.U. after   12 cycles
 SCF Done:  E(RB3LYP) =  -509.429838642     A.U. after   11 cycles
 SCF Done:  E(RB3LYP) =  -509.429976948     A.U. after   11 cycles
 SCF Done:  E(RB3LYP) =  -509.430235046     A.U. after   10 cycles
 SCF Done:  E(RB3LYP) =  -509.430242665     A.U. after   10 cycles
 SCF Done:  E(RB3LYP) =  -509.430244828     A.U. after    9 cycles
 SCF Done:  E(RB3LYP) =  -509.430246006     A.U. after    8 cycles
 SCF Done:  E(RB3LYP) =  -509.430246090     A.U. after    7 cycles
 Optimization completed.
    -- Stationary point found.
 Normal termination of Gaussian 16 at Tue Dec  8 13:52:52 2020.

 --------------------------------------------------------------------
 #N Geom=AllCheck Guess=TCheck SCRF=Check GenChk RB3LYP/6-31G(d) Freq
 --------------------------------------------------------------------

 Structure from the checkpoint file:  "JID_969.chk"
 ------------------------------
 CID_149684601_JID_969_neutraal
 ------------------------------
 Charge =  0 Multiplicity = 1

 SCF Done:  E(RB3LYP) =  -509.430246090     A.U. after    1 cycles

  Exact polarizability: 105.243  -2.662  88.217  -0.432   1.095  34.866
 Approx polarizability: 157.771  -4.183 141.607  -3.001   3.431  52.780

                      1                      2                      3
                      A                      A                      A
 Frequencies --     69.6967               118.1011               163.5690
 Red. masses --      4.0455                 4.5671                 5.2890
 Frc consts  --      0.0116                 0.0375                 0.0834
 IR Inten    --     15.8347                 3.7199                 2.7627

                      4                      5                      6
                      A                      A                      A
 Frequencies --    180.5312               221.1440               254.3664
 Red. masses --      5.9239                 2.2196                 2.0769
 Frc consts  --      0.1138                 0.0640                 0.0792
 IR Inten    --      0.2653                 8.5059                28.3691

                      7                      8                      9
                      A                      A                      A
 Frequencies --    319.5584               367.9716               384.9475
 Red. masses --      2.3374                 1.8379                 2.0493
 Frc consts  --      0.1406                 0.1466                 0.1789
 IR Inten    --     10.1625               145.7988                82.4457

                     10                     11                     12
                      A                      A                      A
 Frequencies --    440.3334               517.0110               588.8398
 Red. masses --      8.4986                 1.2400                 3.1814
 Frc consts  --      0.9709                 0.1953                 0.6499
 IR Inten    --      6.9056                75.7777                 9.7380

                     13                     14                     15
                      A                      A                      A
 Frequencies --    601.0213               644.7464               658.5357
 Red. masses --      3.8364                 1.6215                 2.4426
 Frc consts  --      0.8165                 0.3971                 0.6241
 IR Inten    --      9.1127                19.0688                65.3661

                     16                     17                     18
                      A                      A                      A
 Frequencies --    689.4006               708.9275               776.1165
 Red. masses --      2.0928                 4.1816                 7.2627
 Frc consts  --      0.5860                 1.2382                 2.5775
 IR Inten    --    108.5647                28.9672                41.9590

                     19                     20                     21
                      A                      A                      A
 Frequencies --    823.8320               825.0442               904.0134
 Red. masses --      1.8928                 1.3912                 5.6837
 Frc consts  --      0.7569                 0.5579                 2.7367
 IR Inten    --     52.3330                 5.7134                11.1499

                     22                     23                     24
                      A                      A                      A
 Frequencies --    963.4095              1052.5523              1070.1483
 Red. masses --      2.3298                 2.5199                 2.9145
 Frc consts  --      1.2740                 1.6448                 1.9665
 IR Inten    --     63.2305                14.3985                33.8510

                     25                     26                     27
                      A                      A                      A
 Frequencies --   1115.2068              1171.8563              1221.5679
 Red. masses --      1.6426                 1.8976                 2.4134
 Frc consts  --      1.2036                 1.5353                 2.1218
 IR Inten    --      8.6408                47.2081                40.3103

                     28                     29                     30
                      A                      A                      A
 Frequencies --   1242.1122              1336.9494              1360.8562
 Red. masses --      2.0290                 2.7665                 1.4982
 Frc consts  --      1.8444                 2.9135                 1.6348
 IR Inten    --      3.6215                 7.5136                47.2132

                     31                     32                     33
                      A                      A                      A
 Frequencies --   1385.2110              1460.5484              1510.4584
 Red. masses --      1.9327                 1.9371                 5.1822
 Frc consts  --      2.1849                 2.4346                 6.9660
 IR Inten    --     90.8901                98.1068                75.4255

                     34                     35                     36
                      A                      A                      A
 Frequencies --   1602.4855              1649.2350              1661.6327
 Red. masses --      5.2002                 1.3519                 4.1430
 Frc consts  --      7.8679                 2.1666                 6.7396
 IR Inten    --     28.1245               236.7104               296.9392

                     37                     38                     39
                      A                      A                      A
 Frequencies --   1727.6662              1744.6765              3258.5313
 Red. masses --      1.1449                 4.5912                 1.0934
 Frc consts  --      2.0134                 8.2339                 6.8404
 IR Inten    --    111.1030               273.3143                 3.9971

                     40                     41                     42
                      A                      A                      A
 Frequencies --   3318.9017              3429.1815              3525.6614
 Red. masses --      1.1026                 1.0502                 1.0923
 Frc consts  --      7.1555                 7.2762                 7.9997
 IR Inten    --      0.2924                10.6513                 5.5464

                     43                     44                     45
                      A                      A                      A
 Frequencies --   3537.9361              3581.1170              3700.6272
 Red. masses --      1.0785                 1.0459                 1.1024
 Frc consts  --      7.9536                 7.9024                 8.8952
 IR Inten    --     81.6026                36.0169                24.7573

 - Thermochemistry -
 -------------------
 Temperature   298.150 Kelvin.  Pressure   1.00000 Atm.
 Atom     1 has atomic number  6 and mass  12.00000

 Molecular mass:   141.05383 amu.
 Principal axes and moments of inertia in atomic units:
                           1         2         3
     Eigenvalues --   905.065881498.940622383.72423
           X            0.99919  -0.03987   0.00463
           Y            0.03987   0.99920   0.00036
           Z           -0.00464  -0.00018   0.99999
 This molecule is an asymmetric top.
 Rotational symmetry number  1.
 Warning -- assumption of classical behavior for rotation
           may cause significant error
 Rotational temperatures (Kelvin)      0.09570     0.05778     0.03634
 Rotational constants (GHZ):           1.99404     1.20401     0.75711
 Zero-point vibrational energy     346236.6 (Joules/Mol)
                                   82.75253 (Kcal/Mol)
 Warning -- explicit consideration of  13 degrees of freedom as
           vibrations may cause significant error
 Vibrational temperatures:    100.28   169.92   235.34   259.74   318.18
          (Kelvin)            365.98   459.77   529.43   553.85   633.54
                              743.86   847.21   864.74   927.65   947.49
                              991.89  1019.99  1116.66  1185.31  1187.05
                             1300.67  1386.13  1514.39  1539.70  1604.53
                             1686.04  1757.56  1787.12  1923.57  1957.97
                             1993.01  2101.40  2173.21  2305.62  2372.88
                             2390.72  2485.73  2510.20  4688.30  4775.16
                             4933.83  5072.64  5090.30  5152.43  5324.38

 Zero-point correction=                           0.131875 (Hartree/Particle)
 Thermal correction to Energy=                    0.141291
 Thermal correction to Enthalpy=                  0.142235
 Thermal correction to Gibbs Free Energy=         0.097335
 Sum of electronic and zero-point Energies=           -509.298372
 Sum of electronic and thermal Energies=              -509.288955
 Sum of electronic and thermal Enthalpies=            -509.288011
 Sum of electronic and thermal Free Energies=         -509.332911

                     E (Thermal)             CV                S
                      KCal/Mol        Cal/Mol-Kelvin    Cal/Mol-Kelvin
 Total                   88.662             35.091             94.500
 Electronic               0.000              0.000              0.000
 Translational            0.889              2.981             40.743
 Rotational               0.889              2.981             29.560
 Vibrational             86.884             29.130             24.197
 Vibration     1          0.598              1.969              4.162
 Vibration     2          0.608              1.934              3.131
 Vibration     3          0.623              1.887              2.508
 Vibration     4          0.629              1.866              2.323
 Vibration     5          0.648              1.809              1.950
 Vibration     6          0.665              1.755              1.700
 Vibration     7          0.705              1.636              1.312
 Vibration     8          0.741              1.538              1.088
 Vibration     9          0.754              1.502              1.020
 Vibration    10          0.800              1.382              0.826
 Vibration    11          0.872              1.212              0.617
 Vibration    12          0.946              1.056              0.469
 Vibration    13          0.959              1.030              0.448

 Optimization completed.
    -- Stationary point found.
 Normal termination of Gaussian 16 at Tue Dec  8 13:55:38 2020.

 ----------------------------------------------------------------------
 # B3LYP/6-311++G(d,p) empiricaldispersion=gd3bj scf=xqc pop=npa geom=c
 heck
 ----------------------------------------------------------------------

 --------------------------------------
 CID_149684601_JID_969_Energie_neutraal
 --------------------------------------
 Structure from the checkpoint file:  "JID_969.chk"
 Charge =  0 Multiplicity = 1

 SCF Done:  E(RB3LYP) =  -509.595168652     A.U. after   15 cycles
 Normal termination of Gaussian 16 at Tue Dec  8 13:56:50 2020.

 ----------------------------------------------------------------------
 # B3LYP/6-311++G(d,p) empiricaldispersion=gd3bj scf=xqc pop=npa geom=c
 heck
 ----------------------------------------------------------------------

 ------------------------------------
 CID_149684601_JID_969_Energie_kation
 ------------------------------------
 Structure from the checkpoint file:  "JID_969.chk"
 Charge =  1 Multiplicity = 2

 SCF Done:  E(UB3LYP) =  -509.311577671     A.U. after   22 cycles
 Normal termination of Gaussian 16 at Tue Dec  8 14:02:19 2020.
 Gaussian 16:  ES64L-G16RevA.03 25-Dec-2016

 ----------------------------------------------------------------------
 # B3LYP/6-311++G(d,p) empiricaldispersion=gd3bj scf=xqc pop=npa geom=c
 heck
 ----------------------------------------------------------------------

 -----------------------------------
 CID_149684601_JID_969_Energie_anion
 -----------------------------------
 Structure from the checkpoint file:  "JID_969.chk"
 Charge = -1 Multiplicity = 2

                         Standard orientation:
 ---------------------------------------------------------------------
 Center     Atomic      Atomic             Coordinates (Angstroms)
 Number     Number       Type             X           Y           Z
 ---------------------------------------------------------------------
      1          6           0       -0.564675    1.838166    0.041597
      2          6           0        0.732337    2.219489    0.020947
      3          8           0        1.557675    1.099718   -0.061874
      4          6           0        0.747674    0.018185   -0.090924
      5          6           0       -0.585187    0.394562   -0.027955
      6          6           0       -1.658662   -0.589457    0.010167
      7          8           0       -1.430625   -1.806886    0.011797
      8          7           0       -2.946618   -0.109978    0.089725
      9          7           0        1.317666   -1.208399   -0.216389
     10          7           0        2.652693   -1.447693    0.176627
     11          1           0       -1.414966    2.502269    0.118478
     12          1           0        1.248127    3.164338    0.064085
     13          1           0       -3.150865    0.829887   -0.217929
     14          1           0       -3.671540   -0.798497   -0.061049
     15          1           0        0.659680   -1.966913   -0.054910
     16          1           0        3.261798   -1.075188   -0.549844
     17          1           0        2.856251   -0.921744    1.029057
 ---------------------------------------------------------------------

 SCF Done:  E(UB3LYP) =  -509.583520427     A.U. after   33 cycles
 SCF Done:  E(UB3LYP) =  -509.583520427     a.u. after    1 cycles

 The electronic state is 2-A.
 Alpha  occ. eigenvalues --  -19.09260 -18.98258 -14.25746 -14.23985 -14.22063
 Alpha  occ. eigenvalues --  -10.17233 -10.17034 -10.11676 -10.07542 -10.06942
 Alpha  occ. eigenvalues --   -1.02219  -0.93006  -0.89293  -0.79539  -0.72842
 Alpha  occ. eigenvalues --   -0.70129  -0.62390  -0.54823  -0.49822  -0.48033
 Alpha  occ. eigenvalues --   -0.44969  -0.41683  -0.40609  -0.39658  -0.38145
 Alpha  occ. eigenvalues --   -0.36022  -0.34858  -0.32017  -0.30614  -0.29771
 Alpha  occ. eigenvalues --   -0.28303  -0.21888  -0.18618  -0.18298  -0.17209
 Alpha  occ. eigenvalues --   -0.15882  -0.09951   0.04468
 Alpha virt. eigenvalues --    0.06256   0.07725   0.08880   0.09590   0.09994
 Alpha virt. eigenvalues --    0.11226   0.11661   0.12485   0.13932   0.14986
 Alpha virt. eigenvalues --    0.16077   0.16297   0.17479   0.17930   0.18867

  Beta  occ. eigenvalues --  -19.09239 -18.98250 -14.25741 -14.23931 -14.22000
  Beta  occ. eigenvalues --  -10.17229 -10.17028 -10.11655 -10.07512 -10.06940
  Beta  occ. eigenvalues --   -1.02183  -0.92989  -0.89244  -0.79447  -0.72776
  Beta  occ. eigenvalues --   -0.70075  -0.62342  -0.54784  -0.49750  -0.47985
  Beta  occ. eigenvalues --   -0.44877  -0.41619  -0.40538  -0.39598  -0.38102
  Beta  occ. eigenvalues --   -0.35975  -0.34815  -0.31967  -0.30584  -0.29741
  Beta  occ. eigenvalues --   -0.28272  -0.21850  -0.18570  -0.18266  -0.17165
  Beta  occ. eigenvalues --   -0.15836  -0.09920
  Beta virt. eigenvalues --    0.07018   0.07899   0.08719   0.09091   0.10526
  Beta virt. eigenvalues --    0.10802   0.11407   0.11780   0.13206   0.14192
  Beta virt. eigenvalues --    0.15082   0.16337   0.16531   0.17243   0.18423

 Mulliken charges and spin densities:
               1          2
     1  C   -2.768909   2.423685
     2  C    2.924097  -2.927920
     3  O   -0.116175   0.021179
     4  C   -3.399967   2.240802
     5  C    4.241505  -2.835366
     6  C    1.725922  -1.971302
     7  O   -0.426361  -0.012776
     8  N   -0.214017  -0.089951
     9  N   -0.370525   0.116641
    10  N   -0.118849  -0.185891
    11  H   -1.254784   1.426849
    12  H   -0.821660   1.015698
    13  H   -0.423148   0.672129
    14  H   -0.109849   0.392404
    15  H    0.332812   0.004100
    16  H   -0.091303   0.358663
    17  H   -0.108789   0.351056
 Sum of Mulliken charges =  -1.00000   1.00000

 Dipole moment (field-independent basis, Debye):
    X=              2.4442    Y=             -2.8756    Z=             -0.2388  Tot=              3.7815
 Quadrupole moment (field-independent basis, Debye-Ang):
   XX=           -117.2543   YY=           -105.8517   ZZ=            -79.1890
   XY=              8.6572   XZ=             -2.0903   YZ=              0.0275

 Summary of Natural Population Analysis:

                                       Natural Population
                Natural  -----------------------------------------------
    Atom  No    Charge         Core      Valence    Rydberg      Total
 -----------------------------------------------------------------------
      C    1   -0.12707      0.99954     2.11799    0.00954     3.12707
      C    2    0.04600      0.99949     1.94042    0.01409     2.95400
      O    3   -0.24586      0.99986     3.23597    0.01003     4.24586
      C    4    0.28382      0.99945     1.69950    0.01723     2.71618
      C    5   -0.15209      0.99943     2.14114    0.01151     3.15209
      C    6    0.32824      0.99963     1.65058    0.02155     2.67176
      O    7   -0.34753      0.99988     3.34176    0.00590     4.34753
      N    8   -0.39869      0.99972     2.89004    0.00893     3.89869
      N    9   -0.23409      0.99963     2.71995    0.01451     3.73409
      N   10   -0.31528      0.99978     2.80426    0.01124     3.81528
      H   11    0.11478      0.00000     0.38058    0.00464     0.38522
      H   12    0.09839      0.00000     0.39933    0.00228     0.40161
      H   13    0.19676      0.00000     0.29361    0.00963     0.30324
      H   14    0.19341      0.00000     0.30432    0.00227     0.30659
      H   15    0.21113      0.00000     0.28673    0.00214     0.28887
      H   16    0.17604      0.00000     0.32122    0.00274     0.32396
      H   17    0.17203      0.00000     0.32489    0.00309     0.32797
 =======================================================================
   * Total *   -0.00000      9.99640    26.85228    0.15132    37.00000

 Normal termination of Gaussian 16 at Tue Dec  8 14:07:54 2020.
