 Gaussian 16, Revision A.03,

 -----------------------------------------------------------
 # opt freq B3LYP/6-31G(d) empiricaldispersion=gd3bj scf=xqc
 -----------------------------------------------------------

 ------------------------------
 CID_79513797_JID_8871_neutraal
 ------------------------------
 Symbolic Z-matrix:
 Charge =  0 Multiplicity = 1

 SCF Done:  E(RB3LYP) =  -1191.64132593     A.U. after   16 cycles
 SCF Done:  E(RB3LYP) =  -1191.65162194     A.U. after   13 cycles
 SCF Done:  E(RB3LYP) =  -1191.65255715     A.U. after   13 cycles
 SCF Done:  E(RB3LYP) =  -1191.65383706     A.U. after   13 cycles
 SCF Done:  E(RB3LYP) =  -1191.65502391     A.U. after   13 cycles
 SCF Done:  E(RB3LYP) =  -1191.65570209     A.U. after   14 cycles
 SCF Done:  E(RB3LYP) =  -1191.65646049     A.U. after   13 cycles
 SCF Done:  E(RB3LYP) =  -1191.65664221     A.U. after   12 cycles
 SCF Done:  E(RB3LYP) =  -1191.65684373     A.U. after   12 cycles
 SCF Done:  E(RB3LYP) =  -1191.65687947     A.U. after   11 cycles
 SCF Done:  E(RB3LYP) =  -1191.65690285     A.U. after    9 cycles
 SCF Done:  E(RB3LYP) =  -1191.65690425     A.U. after    9 cycles
 SCF Done:  E(RB3LYP) =  -1191.65690460     A.U. after    8 cycles
 SCF Done:  E(RB3LYP) =  -1191.65690470     A.U. after    7 cycles
 SCF Done:  E(RB3LYP) =  -1191.65690475     A.U. after    7 cycles
 Optimization completed.
    -- Stationary point found.
 Normal termination of Gaussian 16 at Fri Dec 11 22:18:49 2020.

 --------------------------------------------------------------------
 #N Geom=AllCheck Guess=TCheck SCRF=Check GenChk RB3LYP/6-31G(d) Freq
 --------------------------------------------------------------------

 Structure from the checkpoint file:  "JID_8871.chk"
 ------------------------------
 CID_79513797_JID_8871_neutraal
 ------------------------------
 Charge =  0 Multiplicity = 1

 SCF Done:  E(RB3LYP) =  -1191.65690475     A.U. after    1 cycles

  Exact polarizability: 176.325 -16.452 184.380  27.546   0.076 104.434
 Approx polarizability: 275.108 -38.483 315.293  77.666   4.021 210.495

                      1                      2                      3
                      A                      A                      A
 Frequencies --     29.9265                39.9333                60.9721
 Red. masses --      6.6227                 5.9868                10.8160
 Frc consts  --      0.0035                 0.0056                 0.0237
 IR Inten    --      0.3491                 0.7201                 4.4200

                      4                      5                      6
                      A                      A                      A
 Frequencies --     91.0694               110.5334               140.9772
 Red. masses --      9.4593                 6.6406                 5.3104
 Frc consts  --      0.0462                 0.0478                 0.0622
 IR Inten    --      0.6681                 0.3202                 0.7896

                      7                      8                      9
                      A                      A                      A
 Frequencies --    176.5681               233.2015               250.6099
 Red. masses --      6.2438                 4.3230                 6.9414
 Frc consts  --      0.1147                 0.1385                 0.2569
 IR Inten    --      5.7903                 1.6357                 7.8617

                     10                     11                     12
                      A                      A                      A
 Frequencies --    276.8351               306.3648               344.7054
 Red. masses --      1.1690                 6.3708                 9.4493
 Frc consts  --      0.0528                 0.3523                 0.6615
 IR Inten    --     35.5001                 3.3076                 7.6725

                     13                     14                     15
                      A                      A                      A
 Frequencies --    367.9353               393.4782               421.9407
 Red. masses --      4.6831                 6.5331                 3.8867
 Frc consts  --      0.3735                 0.5960                 0.4077
 IR Inten    --      4.8314                 0.7876                42.9801

                     16                     17                     18
                      A                      A                      A
 Frequencies --    436.5598               495.5107               527.1459
 Red. masses --      3.1064                 7.5383                 5.1590
 Frc consts  --      0.3488                 1.0905                 0.8447
 IR Inten    --      7.1915                 3.4740                14.4063

                     19                     20                     21
                      A                      A                      A
 Frequencies --    560.7283               570.0623               582.4315
 Red. masses --      2.6791                 3.5369                 4.5628
 Frc consts  --      0.4963                 0.6772                 0.9120
 IR Inten    --     55.8250                58.5946                 3.4012

                     22                     23                     24
                      A                      A                      A
 Frequencies --    588.9934               594.3674               617.2678
 Red. masses --      5.0576                 3.5312                 4.9814
 Frc consts  --      1.0337                 0.7350                 1.1183
 IR Inten    --      7.7617                22.8919                 5.7702

                     25                     26                     27
                      A                      A                      A
 Frequencies --    643.7753               659.5820               675.1763
 Red. masses --      5.2675                 2.9963                 2.9474
 Frc consts  --      1.2863                 0.7680                 0.7916
 IR Inten    --     11.2981               121.4337               133.9462

                     28                     29                     30
                      A                      A                      A
 Frequencies --    694.2659               747.3095               763.6155
 Red. masses --      4.9567                 4.0650                 1.3713
 Frc consts  --      1.4076                 1.3376                 0.4711
 IR Inten    --     34.6374                15.7939                75.4978

                     31                     32                     33
                      A                      A                      A
 Frequencies --    764.7193               783.1715               804.1690
 Red. masses --      5.5159                 5.3214                 5.4966
 Frc consts  --      1.9005                 1.9230                 2.0943
 IR Inten    --     15.1774                 6.6130                 9.4784

                     34                     35                     36
                      A                      A                      A
 Frequencies --    850.7620               868.8809               871.5282
 Red. masses --      1.7429                 1.5458                 4.1390
 Frc consts  --      0.7432                 0.6876                 1.8523
 IR Inten    --      3.7019                 1.6999                 4.6912

                     37                     38                     39
                      A                      A                      A
 Frequencies --    882.8515               938.8102               976.9342
 Red. masses --      5.2105                 1.3397                 1.2376
 Frc consts  --      2.3928                 0.6957                 0.6959
 IR Inten    --     27.1570                 3.6219                 0.4182

                     40                     41                     42
                      A                      A                      A
 Frequencies --   1046.5644              1049.6858              1069.9175
 Red. masses --      2.2351                 5.4836                 2.6923
 Frc consts  --      1.4424                 3.5599                 1.8159
 IR Inten    --      5.3662                22.5639                48.8782

                     43                     44                     45
                      A                      A                      A
 Frequencies --   1131.5263              1161.6543              1172.4882
 Red. masses --      2.4832                 2.4978                 2.4746
 Frc consts  --      1.8732                 1.9860                 2.0043
 IR Inten    --     40.5444                59.7514               101.9973

                     46                     47                     48
                      A                      A                      A
 Frequencies --   1187.3785              1191.8114              1219.8688
 Red. masses --      2.1371                 1.2798                 3.6131
 Frc consts  --      1.7752                 1.0711                 3.1678
 IR Inten    --     34.2396                16.0957                91.0202

                     49                     50                     51
                      A                      A                      A
 Frequencies --   1275.7268              1301.1190              1344.5231
 Red. masses --      3.8241                 1.7935                 2.6448
 Frc consts  --      3.6668                 1.7889                 2.8170
 IR Inten    --    151.7005                 4.5594               160.9233

                     52                     53                     54
                      A                      A                      A
 Frequencies --   1347.6896              1384.4640              1399.9547
 Red. masses --      2.4697                 5.2564                 6.1702
 Frc consts  --      2.6428                 5.9362                 7.1249
 IR Inten    --     61.7686               104.9729                 2.1172

                     55                     56                     57
                      A                      A                      A
 Frequencies --   1471.7922              1497.2314              1527.7149
 Red. masses --      1.6967                 2.4852                 2.8219
 Frc consts  --      2.1655                 3.2823                 3.8803
 IR Inten    --     60.1132                30.4564                 7.8115

                     58                     59                     60
                      A                      A                      A
 Frequencies --   1559.6859              1588.5411              1610.5163
 Red. masses --      5.4214                 6.6065                 6.3929
 Frc consts  --      7.7703                 9.8223                 9.7696
 IR Inten    --    254.8110                18.0954               147.0608

                     61                     62                     63
                      A                      A                      A
 Frequencies --   1642.4170              1671.2207              1677.7505
 Red. masses --      6.4043                 1.3083                 7.1246
 Frc consts  --     10.1786                 2.1529                11.8158
 IR Inten    --      0.6356               165.1239                 1.7197

                     64                     65                     66
                      A                      A                      A
 Frequencies --   1777.8974              3194.1376              3209.1897
 Red. masses --      9.0427                 1.0866                 1.0915
 Frc consts  --     16.8408                 6.5317                 6.6234
 IR Inten    --    388.2965                 3.4825                16.5295

                     67                     68                     69
                      A                      A                      A
 Frequencies --   3227.8630              3235.6968              3307.7623
 Red. masses --      1.0947                 1.0927                 1.0988
 Frc consts  --      6.7199                 6.7407                 7.0833
 IR Inten    --     10.3005                 6.2891                 1.8284

                     70                     71                     72
                      A                      A                      A
 Frequencies --   3549.1953              3556.2287              3658.0966
 Red. masses --      1.0475                 1.0750                 1.0991
 Frc consts  --      7.7745                 8.0098                 8.6653
 IR Inten    --     48.4395                42.2069                30.1809

 - Thermochemistry -
 -------------------
 Temperature   298.150 Kelvin.  Pressure   1.00000 Atm.
 Atom     1 has atomic number  6 and mass  12.00000

 Molecular mass:   260.03680 amu.
 Principal axes and moments of inertia in atomic units:
                           1         2         3
     Eigenvalues --  3158.921215522.037707542.13942
           X            1.00000   0.00116  -0.00153
           Y           -0.00117   0.99998  -0.00612
           Z            0.00152   0.00612   0.99998
 This molecule is an asymmetric top.
 Rotational symmetry number  1.
 Warning -- assumption of classical behavior for rotation
           may cause significant error
 Rotational temperatures (Kelvin)      0.02742     0.01569     0.01148
 Rotational constants (GHZ):           0.57132     0.32683     0.23929
 Zero-point vibrational energy     486826.2 (Joules/Mol)
                                  116.35425 (Kcal/Mol)
 Warning -- explicit consideration of  24 degrees of freedom as
           vibrations may cause significant error
 Vibrational temperatures:     43.06    57.46    87.73   131.03   159.03
          (Kelvin)            202.83   254.04   335.52   360.57   398.30
                              440.79   495.95   529.38   566.13   607.08
                              628.11   712.93   758.45   806.76   820.19
                              837.99   847.43   855.16   888.11   926.25
                              948.99   971.43   998.89  1075.21  1098.67
                             1100.26  1126.81  1157.02  1224.06  1250.13
                             1253.93  1270.23  1350.74  1405.59  1505.77
                             1510.26  1539.37  1628.01  1671.36  1686.95
                             1708.37  1714.75  1755.12  1835.49  1872.02
                             1934.47  1939.02  1991.93  2014.22  2117.58
                             2154.18  2198.04  2244.04  2285.56  2317.17
                             2363.07  2404.51  2413.91  2558.00  4595.65
                             4617.31  4644.17  4655.45  4759.13  5106.50
                             5116.62  5263.19

 Zero-point correction=                           0.185422 (Hartree/Particle)
 Thermal correction to Energy=                    0.199976
 Thermal correction to Enthalpy=                  0.200920
 Thermal correction to Gibbs Free Energy=         0.142419
 Sum of electronic and zero-point Energies=          -1191.471482
 Sum of electronic and thermal Energies=             -1191.456929
 Sum of electronic and thermal Enthalpies=           -1191.455985
 Sum of electronic and thermal Free Energies=        -1191.514486

                     E (Thermal)             CV                S
                      KCal/Mol        Cal/Mol-Kelvin    Cal/Mol-Kelvin
 Total                  125.487             56.453            123.126
 Electronic               0.000              0.000              0.000
 Translational            0.889              2.981             42.567
 Rotational               0.889              2.981             33.242
 Vibrational            123.709             50.491             47.317
 Vibration     1          0.594              1.984              5.834
 Vibration     2          0.594              1.981              5.262
 Vibration     3          0.597              1.973              4.425
 Vibration     4          0.602              1.956              3.637
 Vibration     5          0.606              1.941              3.260
 Vibration     6          0.615              1.912              2.791
 Vibration     7          0.628              1.871              2.364
 Vibration     8          0.654              1.790              1.854
 Vibration     9          0.663              1.762              1.726
 Vibration    10          0.678              1.716              1.553
 Vibration    11          0.697              1.662              1.382
 Vibration    12          0.723              1.586              1.190
 Vibration    13          0.741              1.538              1.088
 Vibration    14          0.761              1.484              0.987
 Vibration    15          0.784              1.423              0.885
 Vibration    16          0.797              1.391              0.837
 Vibration    17          0.851              1.260              0.669
 Vibration    18          0.882              1.190              0.594
 Vibration    19          0.916              1.116              0.522
 Vibration    20          0.926              1.096              0.504
 Vibration    21          0.939              1.069              0.481
 Vibration    22          0.946              1.055              0.469
 Vibration    23          0.952              1.044              0.459
 Vibration    24          0.977              0.995              0.421

 Optimization completed.
    -- Stationary point found.
 Normal termination of Gaussian 16 at Fri Dec 11 22:28:41 2020.

 ----------------------------------------------------------------------
 # B3LYP/6-311++G(d,p) empiricaldispersion=gd3bj scf=xqc pop=npa geom=c
 heck
 ----------------------------------------------------------------------

 --------------------------------------
 CID_79513797_JID_8871_Energie_neutraal
 --------------------------------------
 Structure from the checkpoint file:  "JID_8871.chk"
 Charge =  0 Multiplicity = 1

 SCF Done:  E(RB3LYP) =  -1191.90405516     A.U. after   16 cycles
 Normal termination of Gaussian 16 at Fri Dec 11 22:32:29 2020.

 ----------------------------------------------------------------------
 # B3LYP/6-311++G(d,p) empiricaldispersion=gd3bj scf=xqc pop=npa geom=c
 heck
 ----------------------------------------------------------------------

 ------------------------------------
 CID_79513797_JID_8871_Energie_kation
 ------------------------------------
 Structure from the checkpoint file:  "JID_8871.chk"
 Charge =  1 Multiplicity = 2

 SCF Done:  E(UB3LYP) =  -1191.60675120     A.U. after   30 cycles
 Normal termination of Gaussian 16 at Fri Dec 11 22:41:38 2020.
 Gaussian 16:  ES64L-G16RevA.03 25-Dec-2016

 ----------------------------------------------------------------------
 # B3LYP/6-311++G(d,p) empiricaldispersion=gd3bj scf=xqc pop=npa geom=c
 heck
 ----------------------------------------------------------------------

 -----------------------------------
 CID_79513797_JID_8871_Energie_anion
 -----------------------------------
 Structure from the checkpoint file:  "JID_8871.chk"
 Charge = -1 Multiplicity = 2

                         Standard orientation:
 ---------------------------------------------------------------------
 Center     Atomic      Atomic             Coordinates (Angstroms)
 Number     Number       Type             X           Y           Z
 ---------------------------------------------------------------------
      1          6           0       -1.062989   -2.433253    1.134442
      2          6           0       -2.226569   -2.912310    0.507236
      3          6           0       -3.053150   -2.059256   -0.221711
      4          6           0       -2.655297   -0.732437   -0.296714
      5          6           0       -1.489268   -0.222374    0.302082
      6          6           0       -0.685044   -1.096976    1.045092
      7          6           0       -1.487001    1.194109   -0.024079
      8          6           0       -2.621471    1.410302   -0.749792
      9          8           0       -3.338721    0.273057   -0.945543
     10          6           0       -0.584178    2.303361    0.322329
     11          8           0       -0.964940    3.460447    0.419165
     12          7           0        0.759738    2.005897    0.603590
     13          6           0        1.503942    1.001882   -0.002688
     14          7           0        1.258922    0.484243   -1.162899
     15          7           0        2.101268   -0.544420   -1.494578
     16          6           0        2.997328   -0.783215   -0.578130
     17         16           0        2.868524    0.243590    0.853133
     18          7           0        3.927656   -1.791069   -0.669268
     19          1           0       -0.444603   -3.122044    1.702219
     20          1           0       -2.489587   -3.961912    0.596110
     21          1           0       -3.961396   -2.402478   -0.704707
     22          1           0        0.208540   -0.746283    1.547196
     23          1           0       -3.018046    2.310099   -1.194083
     24          1           0        1.264136    2.835363    0.901773
     25          1           0        4.828693   -1.612798   -0.244781
     26          1           0        3.994257   -2.166976   -1.609145
 ---------------------------------------------------------------------

 SCF Done:  E(UB3LYP) =  -1191.91247263     A.U. after   33 cycles
 SCF Done:  E(UB3LYP) =  -1191.91247263     a.u. after    1 cycles

 The electronic state is 2-A.
 Alpha  occ. eigenvalues --  -88.77126 -19.07206 -18.96154 -14.23495 -14.22988
 Alpha  occ. eigenvalues --  -14.21248 -14.21183 -10.15130 -10.14420 -10.14309
 Alpha  occ. eigenvalues --  -10.12075 -10.10113 -10.07542 -10.07426 -10.07343
 Alpha  occ. eigenvalues --  -10.06873 -10.06700 -10.05756  -7.85791  -5.82054
 Alpha  occ. eigenvalues --   -5.81780  -5.81331  -0.99921  -0.92315  -0.91053
 Alpha  occ. eigenvalues --   -0.83363  -0.80961  -0.75243  -0.69285  -0.68028
 Alpha  occ. eigenvalues --   -0.67689  -0.64485  -0.62561  -0.54351  -0.52596
 Alpha  occ. eigenvalues --   -0.51414  -0.49524  -0.48210  -0.45115  -0.43276
 Alpha  occ. eigenvalues --   -0.41021  -0.40365  -0.38162  -0.37850  -0.35238
 Alpha  occ. eigenvalues --   -0.34697  -0.34407  -0.33297  -0.32493  -0.31536
 Alpha  occ. eigenvalues --   -0.31072  -0.29578  -0.28776  -0.27550  -0.26311
 Alpha  occ. eigenvalues --   -0.25148  -0.24472  -0.23622  -0.19758  -0.18821
 Alpha  occ. eigenvalues --   -0.18088  -0.16803  -0.15077  -0.14054  -0.13830
 Alpha  occ. eigenvalues --   -0.11548  -0.11033   0.03670
 Alpha virt. eigenvalues --    0.05599   0.07376   0.07745   0.08419   0.09376
 Alpha virt. eigenvalues --    0.09431   0.10036   0.10544   0.10612   0.11499
 Alpha virt. eigenvalues --    0.11679   0.13067   0.13501   0.14016   0.14365

  Beta  occ. eigenvalues --  -88.77117 -19.07114 -18.95908 -14.23563 -14.22917
  Beta  occ. eigenvalues --  -14.21311 -14.21067 -10.14950 -10.14168 -10.14153
  Beta  occ. eigenvalues --  -10.12102 -10.09746 -10.07499 -10.07422 -10.07344
  Beta  occ. eigenvalues --  -10.06867 -10.06670 -10.05799  -7.85782  -5.82055
  Beta  occ. eigenvalues --   -5.81780  -5.81296  -0.99708  -0.92011  -0.90779
  Beta  occ. eigenvalues --   -0.83189  -0.80845  -0.75210  -0.69123  -0.67962
  Beta  occ. eigenvalues --   -0.67510  -0.64422  -0.62334  -0.53865  -0.52439
  Beta  occ. eigenvalues --   -0.51219  -0.49397  -0.48028  -0.44993  -0.43186
  Beta  occ. eigenvalues --   -0.40873  -0.40235  -0.38047  -0.37669  -0.34859
  Beta  occ. eigenvalues --   -0.34365  -0.34140  -0.33150  -0.32293  -0.31351
  Beta  occ. eigenvalues --   -0.30856  -0.29259  -0.28306  -0.27206  -0.26224
  Beta  occ. eigenvalues --   -0.24833  -0.24120  -0.23300  -0.19600  -0.18594
  Beta  occ. eigenvalues --   -0.17799  -0.16435  -0.14953  -0.13846  -0.13621
  Beta  occ. eigenvalues --   -0.10645  -0.10594
  Beta virt. eigenvalues --    0.06784   0.07622   0.07909   0.08297   0.08721
  Beta virt. eigenvalues --    0.09458   0.09611   0.10530   0.10641   0.11104
  Beta virt. eigenvalues --    0.11800   0.12203   0.13083   0.13562   0.13944

 Mulliken charges and spin densities:
               1          2
     1  C   -0.520489  -0.014595
     2  C   -0.350411  -0.000164
     3  C   -0.562775   0.050942
     4  C    0.044480  -0.041709
     5  C    2.098384   0.059400
     6  C   -1.054298   0.003315
     7  C   -0.071518  -0.106236
     8  C   -0.280198   0.305146
     9  O   -0.081140   0.008555
    10  C   -0.152391   0.147372
    11  O   -0.382077   0.089082
    12  N   -0.181876  -0.022560
    13  C    0.215060  -0.162540
    14  N   -0.077375   0.057899
    15  N   -0.053594  -0.057250
    16  C   -0.078893  -0.326448
    17  S   -0.058948   0.218148
    18  N   -0.244920   0.049040
    19  H    0.154164  -0.000363
    20  H    0.127017  -0.000025
    21  H    0.150836  -0.001498
    22  H    0.100869  -0.003609
    23  H    0.202974  -0.021533
    24  H    0.279724   0.034568
    25  H   -0.324587   0.581435
    26  H    0.101981   0.153628
 Sum of Mulliken charges =  -1.00000   1.00000

 Dipole moment (field-independent basis, Debye):
    X=             -1.9289    Y=             -2.5059    Z=              1.9149  Tot=              3.6969
 Quadrupole moment (field-independent basis, Debye-Ang):
   XX=           -159.5683   YY=           -141.9125   ZZ=           -126.1240
   XY=             15.2505   XZ=              5.5650   YZ=             -2.3804

 Summary of Natural Population Analysis:

                                       Natural Population
                Natural  -----------------------------------------------
    Atom  No    Charge         Core      Valence    Rydberg      Total
 -----------------------------------------------------------------------
      C    1   -0.10106      0.99946     2.09233    0.00927     3.10106
      C    2   -0.11797      0.99961     2.10853    0.00983     3.11797
      C    3   -0.11681      0.99952     2.10901    0.00828     3.11681
      C    4    0.14749      0.99935     1.84078    0.01238     2.85251
      C    5   -0.03864      0.99946     2.02900    0.01018     3.03864
      C    6   -0.09441      0.99956     2.08606    0.00879     3.09441
      C    7   -0.12164      0.99944     2.11284    0.00936     3.12164
      C    8    0.18228      0.99948     1.80555    0.01269     2.81772
      O    9   -0.23446      0.99986     3.22667    0.00793     4.23446
      C   10    0.37455      0.99964     1.60442    0.02140     2.62545
      O   11   -0.29447      0.99988     3.29085    0.00374     4.29447
      N   12   -0.33865      0.99963     2.82947    0.00955     3.83865
      C   13    0.13367      0.99962     1.84640    0.02032     2.86633
      N   14   -0.13567      0.99960     2.62237    0.01370     3.63567
      N   15   -0.19440      0.99961     2.67998    0.01481     3.69440
      C   16    0.14706      0.99964     1.83168    0.02161     2.85294
      S   17    0.12610      4.99944     2.85569    0.01877     7.87390
      N   18   -0.39992      0.99969     2.88819    0.01204     3.89992
      H   19    0.09777      0.00000     0.40153    0.00070     0.40223
      H   20    0.09478      0.00000     0.40421    0.00101     0.40522
      H   21    0.10207      0.00000     0.39697    0.00097     0.39793
      H   22    0.10521      0.00000     0.39316    0.00163     0.39479
      H   23    0.09384      0.00000     0.40536    0.00080     0.40616
      H   24    0.19677      0.00000     0.30107    0.00215     0.30323
      H   25    0.19379      0.00000     0.29894    0.00727     0.30621
      H   26    0.19321      0.00000     0.30432    0.00247     0.30679
 =======================================================================
   * Total *    0.00049     21.99249    44.76538    0.24164    66.99951

 Normal termination of Gaussian 16 at Fri Dec 11 22:52:03 2020.
