 Gaussian 16, Revision A.03,

 ----------------------------------------------------------------------
 # opt=(cartesian,calcfc) freq B3LYP/6-31G(d) empiricaldispersion=gd3bj
  scf=xqc
 ----------------------------------------------------------------------

 ------------------------------
 CID_63731457_JID_1522_neutraal
 ------------------------------
 Symbolic Z-matrix:
 Charge =  0 Multiplicity = 1

 SCF Done:  E(RB3LYP) =  -500.478275565     A.U. after   14 cycles
 SCF Done:  E(RB3LYP) =  -500.478372988     A.U. after   10 cycles
 SCF Done:  E(RB3LYP) =  -500.478404262     A.U. after   10 cycles
 SCF Done:  E(RB3LYP) =  -500.478279860     A.U. after   11 cycles
 SCF Done:  E(RB3LYP) =  -500.478397156     A.U. after   10 cycles
 SCF Done:  E(RB3LYP) =  -500.478415548     A.U. after    7 cycles
 SCF Done:  E(RB3LYP) =  -500.478436017     A.U. after   10 cycles
 SCF Done:  E(RB3LYP) =  -500.478447724     A.U. after   10 cycles
 SCF Done:  E(RB3LYP) =  -500.478459473     A.U. after    9 cycles
 SCF Done:  E(RB3LYP) =  -500.478418355     A.U. after   11 cycles
 SCF Done:  E(RB3LYP) =  -500.478501704     A.U. after    7 cycles
 SCF Done:  E(RB3LYP) =  -500.478501672     A.U. after    7 cycles
 SCF Done:  E(RB3LYP) =  -500.478501715     A.U. after    7 cycles
 SCF Done:  E(RB3LYP) =  -500.478501723     A.U. after    7 cycles
 SCF Done:  E(RB3LYP) =  -500.478501725     A.U. after    6 cycles
 Optimization completed.
    -- Stationary point found.
 Normal termination of Gaussian 16 at Mon Jan  4 09:08:41 2021.

 --------------------------------------------------------------------
 #N Geom=AllCheck Guess=TCheck SCRF=Check GenChk RB3LYP/6-31G(d) Freq
 --------------------------------------------------------------------

 Structure from the checkpoint file:  "JID_1522.chk"
 ------------------------------
 CID_63731457_JID_1522_neutraal
 ------------------------------
 Charge =  0 Multiplicity = 1

 SCF Done:  E(RB3LYP) =  -500.478501725     A.U. after    1 cycles

  Exact polarizability: 118.941   1.342  94.338  -2.566  -2.237  88.894
 Approx polarizability: 152.860   4.562 130.368 -10.347  -9.564 130.355

                      1                      2                      3
                      A                      A                      A
 Frequencies --     28.0922                35.7968                57.6053
 Red. masses --      3.2357                 2.8625                 3.0611
 Frc consts  --      0.0015                 0.0022                 0.0060
 IR Inten    --      0.6182                 0.3275                 0.9259

                      4                      5                      6
                      A                      A                      A
 Frequencies --     68.9728                82.7588               149.6071
 Red. masses --      4.8847                 3.1092                 1.7916
 Frc consts  --      0.0137                 0.0125                 0.0236
 IR Inten    --      0.8464                 0.3471                 1.2792

                      7                      8                      9
                      A                      A                      A
 Frequencies --    215.3942               235.1166               250.5021
 Red. masses --      2.1689                 1.8664                 1.3855
 Frc consts  --      0.0593                 0.0608                 0.0512
 IR Inten    --      0.7761                 8.4299                15.9232

                     10                     11                     12
                      A                      A                      A
 Frequencies --    266.5366               270.7535               294.4435
 Red. masses --      1.2705                 1.4466                 2.2590
 Frc consts  --      0.0532                 0.0625                 0.1154
 IR Inten    --      6.5990                 1.7424                13.7169

                     13                     14                     15
                      A                      A                      A
 Frequencies --    350.4818               375.0614               429.7146
 Red. masses --      2.1392                 3.0731                 2.3966
 Frc consts  --      0.1548                 0.2547                 0.2607
 IR Inten    --      3.3976                13.3190                 2.3259

                     16                     17                     18
                      A                      A                      A
 Frequencies --    438.1523               451.7586               514.0870
 Red. masses --      2.0510                 2.4228                 1.4660
 Frc consts  --      0.2320                 0.2913                 0.2283
 IR Inten    --      0.7368                 7.9806                33.9901

                     19                     20                     21
                      A                      A                      A
 Frequencies --    565.5759               629.4513               639.2170
 Red. masses --      3.1698                 2.8332                 1.8555
 Frc consts  --      0.5974                 0.6614                 0.4467
 IR Inten    --      8.6472                26.3110                58.9298

                     22                     23                     24
                      A                      A                      A
 Frequencies --    747.4593               807.3211               830.8866
 Red. masses --      1.5991                 1.8135                 2.6947
 Frc consts  --      0.5264                 0.6964                 1.0961
 IR Inten    --     14.4659                 1.6848                 1.6995

                     25                     26                     27
                      A                      A                      A
 Frequencies --    833.2275               903.7324               907.6679
 Red. masses --      2.8217                 1.4788                 1.4068
 Frc consts  --      1.1542                 0.7116                 0.6829
 IR Inten    --      4.4776                94.5778                71.1992

                     28                     29                     30
                      A                      A                      A
 Frequencies --    916.2243               958.4323               966.2277
 Red. masses --      1.4494                 2.0557                 1.6370
 Frc consts  --      0.7169                 1.1126                 0.9004
 IR Inten    --      6.4286                 3.2972                 1.1404

                     31                     32                     33
                      A                      A                      A
 Frequencies --   1004.3336              1040.2327              1087.9730
 Red. masses --      1.6323                 1.4603                 1.9773
 Frc consts  --      0.9701                 0.9310                 1.3790
 IR Inten    --      0.8926                 6.5230                 2.2253

                     34                     35                     36
                      A                      A                      A
 Frequencies --   1099.1906              1117.3985              1144.5226
 Red. masses --      2.2151                 1.5925                 2.0984
 Frc consts  --      1.5768                 1.1715                 1.6195
 IR Inten    --     25.4739                 2.2434                12.7003

                     37                     38                     39
                      A                      A                      A
 Frequencies --   1157.3196              1194.6859              1228.0812
 Red. masses --      2.1978                 1.9712                 1.6995
 Frc consts  --      1.7344                 1.6577                 1.5102
 IR Inten    --      5.0888                13.7708                35.7534

                     40                     41                     42
                      A                      A                      A
 Frequencies --   1235.6597              1272.5740              1299.4312
 Red. masses --      1.3150                 1.4422                 1.4672
 Frc consts  --      1.1830                 1.3761                 1.4596
 IR Inten    --      0.9543                19.1068                50.1123

                     43                     44                     45
                      A                      A                      A
 Frequencies --   1325.5831              1336.7263              1381.5784
 Red. masses --      1.3865                 1.1846                 1.3512
 Frc consts  --      1.4354                 1.2471                 1.5196
 IR Inten    --     47.5802                32.6500                 7.3806

                     46                     47                     48
                      A                      A                      A
 Frequencies --   1392.3688              1400.1319              1408.0799
 Red. masses --      1.3912                 1.2858                 1.4417
 Frc consts  --      1.5891                 1.4851                 1.6842
 IR Inten    --     23.1548                 3.5998                 2.4764

                     49                     50                     51
                      A                      A                      A
 Frequencies --   1423.0587              1433.4855              1441.9032
 Red. masses --      1.3756                 1.3762                 1.2683
 Frc consts  --      1.6413                 1.6662                 1.5536
 IR Inten    --      1.6265                35.4650                 4.1988

                     52                     53                     54
                      A                      A                      A
 Frequencies --   1444.1928              1493.0823              1500.4483
 Red. masses --      1.5479                 1.2705                 1.5212
 Frc consts  --      1.9021                 1.6687                 2.0178
 IR Inten    --     22.3373                16.2365                54.1971

                     55                     56                     57
                      A                      A                      A
 Frequencies --   1508.5605              1519.3194              1524.2722
 Red. masses --      1.0904                 1.0788                 1.0509
 Frc consts  --      1.4620                 1.4673                 1.4385
 IR Inten    --      6.0319                 3.6765                 1.7613

                     58                     59                     60
                      A                      A                      A
 Frequencies --   1527.3028              1533.3912              1535.0188
 Red. masses --      1.0806                 1.0521                 1.0641
 Frc consts  --      1.4852                 1.4575                 1.4772
 IR Inten    --      8.9685                12.0937                 2.2529

                     61                     62                     63
                      A                      A                      A
 Frequencies --   1540.3494              1697.9451              1781.3272
 Red. masses --      1.0705                 1.0905                 7.8446
 Frc consts  --      1.4964                 1.8524                14.6659
 IR Inten    --      5.9659                22.5065               322.4897

                     64                     65                     66
                      A                      A                      A
 Frequencies --   3033.3095              3035.2467              3039.7036
 Red. masses --      1.0405                 1.0687                 1.0410
 Frc consts  --      5.6405                 5.8008                 5.6669
 IR Inten    --     17.0909                15.5521                21.9162

                     67                     68                     69
                      A                      A                      A
 Frequencies --   3040.4485              3045.0258              3050.0563
 Red. masses --      1.0747                 1.0656                 1.0688
 Frc consts  --      5.8536                 5.8213                 5.8580
 IR Inten    --      3.0637                44.5492                31.3832

                     70                     71                     72
                      A                      A                      A
 Frequencies --   3055.1436              3088.0747              3097.6542
 Red. masses --      1.0763                 1.0966                 1.0921
 Frc consts  --      5.9191                 6.1611                 6.1744
 IR Inten    --     65.9415                 2.6730                 4.6144

                     73                     74                     75
                      A                      A                      A
 Frequencies --   3103.0075              3109.3559              3112.5501
 Red. masses --      1.0984                 1.1004                 1.0992
 Frc consts  --      6.2313                 6.2681                 6.2741
 IR Inten    --     45.9786                43.2620                75.2167

                     76                     77                     78
                      A                      A                      A
 Frequencies --   3115.4917              3118.2388              3135.3720
 Red. masses --      1.0959                 1.1020                 1.0941
 Frc consts  --      6.2675                 6.3134                 6.3373
 IR Inten    --     37.2442                29.2230                15.5749

                     79                     80                     81
                      A                      A                      A
 Frequencies --   3449.0572              3536.9899              3598.6851
 Red. masses --      1.0506                 1.0907                 1.0760
 Frc consts  --      7.3636                 8.0395                 8.2099
 IR Inten    --      2.5790                 0.2109                15.8389

 - Thermochemistry -
 -------------------
 Temperature   298.150 Kelvin.  Pressure   1.00000 Atm.
 Atom     1 has atomic number  6 and mass  12.00000

 Molecular mass:   158.14191 amu.
 Principal axes and moments of inertia in atomic units:
                           1         2         3
     Eigenvalues --  1292.458642945.539193491.44130
           X            0.99967  -0.02319   0.01132
           Y            0.02278   0.99912   0.03513
           Z           -0.01212  -0.03486   0.99932
 This molecule is an asymmetric top.
 Rotational symmetry number  1.
 Warning -- assumption of classical behavior for rotation
           may cause significant error
 Rotational temperatures (Kelvin)      0.06701     0.02941     0.02481
 Rotational constants (GHZ):           1.39636     0.61270     0.51690
 Zero-point vibrational energy     693913.0 (Joules/Mol)
                                  165.84919 (Kcal/Mol)
 Warning -- explicit consideration of  19 degrees of freedom as
           vibrations may cause significant error
 Vibrational temperatures:     40.42    51.50    82.88    99.24   119.07
          (Kelvin)            215.25   309.90   338.28   360.42   383.49
                              389.55   423.64   504.27   539.63   618.26
                              630.40   649.98   739.66   813.74   905.64
                              919.69  1075.43  1161.56  1195.46  1198.83
                             1300.27  1305.93  1318.24  1378.97  1390.19
                             1445.01  1496.66  1565.35  1581.49  1607.69
                             1646.71  1665.12  1718.89  1766.93  1777.84
                             1830.95  1869.59  1907.22  1923.25  1987.78
                             2003.31  2014.48  2025.91  2047.46  2062.47
                             2074.58  2077.87  2148.21  2158.81  2170.48
                             2185.96  2193.09  2197.45  2206.21  2208.55
                             2216.22  2442.96  2562.93  4364.26  4367.04
                             4373.46  4374.53  4381.11  4388.35  4395.67
                             4443.05  4456.83  4464.54  4473.67  4478.27
                             4482.50  4486.45  4511.10  4962.42  5088.94
                             5177.71

 Zero-point correction=                           0.264298 (Hartree/Particle)
 Thermal correction to Energy=                    0.277900
 Thermal correction to Enthalpy=                  0.278844
 Thermal correction to Gibbs Free Energy=         0.222814
 Sum of electronic and zero-point Energies=           -500.214204
 Sum of electronic and thermal Energies=              -500.200602
 Sum of electronic and thermal Enthalpies=            -500.199658
 Sum of electronic and thermal Free Energies=         -500.255688

                     E (Thermal)             CV                S
                      KCal/Mol        Cal/Mol-Kelvin    Cal/Mol-Kelvin
 Total                  174.385             49.300            117.926
 Electronic               0.000              0.000              0.000
 Translational            0.889              2.981             41.084
 Rotational               0.889              2.981             30.964
 Vibrational            172.607             43.338             45.877
 Vibration     1          0.593              1.984              5.960
 Vibration     2          0.594              1.982              5.479
 Vibration     3          0.596              1.974              4.538
 Vibration     4          0.598              1.969              4.182
 Vibration     5          0.600              1.961              3.824
 Vibration     6          0.618              1.903              2.677
 Vibration     7          0.645              1.818              1.997
 Vibration     8          0.655              1.787              1.840
 Vibration     9          0.663              1.762              1.727
 Vibration    10          0.672              1.734              1.619
 Vibration    11          0.674              1.727              1.591
 Vibration    12          0.689              1.684              1.448
 Vibration    13          0.727              1.574              1.164
 Vibration    14          0.746              1.523              1.059
 Vibration    15          0.791              1.406              0.860
 Vibration    16          0.798              1.387              0.832
 Vibration    17          0.810              1.357              0.790
 Vibration    18          0.869              1.219              0.624
 Vibration    19          0.921              1.106              0.513

 Optimization completed.
    -- Stationary point found.
 Normal termination of Gaussian 16 at Mon Jan  4 09:15:20 2021.

 ----------------------------------------------------------------------
 # B3LYP/6-311++G(d,p) empiricaldispersion=gd3bj scf=xqc pop=npa geom=c
 heck
 ----------------------------------------------------------------------

 --------------------------------------
 CID_63731457_JID_1522_Energie_neutraal
 --------------------------------------
 Structure from the checkpoint file:  "JID_1522.chk"
 Charge =  0 Multiplicity = 1

 SCF Done:  E(RB3LYP) =  -500.636396173     A.U. after   14 cycles
 Normal termination of Gaussian 16 at Mon Jan  4 09:18:00 2021.

 ----------------------------------------------------------------------
 # B3LYP/6-311++G(d,p) empiricaldispersion=gd3bj scf=xqc pop=npa geom=c
 heck
 ----------------------------------------------------------------------

 ------------------------------------
 CID_63731457_JID_1522_Energie_kation
 ------------------------------------
 Structure from the checkpoint file:  "JID_1522.chk"
 Charge =  1 Multiplicity = 2

 SCF Done:  E(UB3LYP) =  -500.312243015     A.U. after   33 cycles
 SCF Done:  E(UB3LYP) =  -500.312243018     a.u. after    2 cycles
 Normal termination of Gaussian 16 at Mon Jan  4 09:30:42 2021.
 Gaussian 16:  ES64L-G16RevA.03 25-Dec-2016

 ----------------------------------------------------------------------
 # B3LYP/6-311++G(d,p) empiricaldispersion=gd3bj scf=xqc pop=npa geom=c
 heck
 ----------------------------------------------------------------------

 -----------------------------------
 CID_63731457_JID_1522_Energie_anion
 -----------------------------------
 Structure from the checkpoint file:  "JID_1522.chk"
 Charge = -1 Multiplicity = 2

                         Standard orientation:
 ---------------------------------------------------------------------
 Center     Atomic      Atomic             Coordinates (Angstroms)
 Number     Number       Type             X           Y           Z
 ---------------------------------------------------------------------
      1          6           0       -2.055588    2.225124    0.408379
      2          6           0       -2.819011    0.899137    0.485178
      3          6           0       -2.658290    0.005061   -0.753162
      4          6           0       -1.215904   -0.427542   -1.035622
      5          6           0       -0.664174   -1.347827    0.051045
      6          8           0       -1.393113   -1.960470    0.824069
      7          7           0        0.697072   -1.505430    0.104727
      8          6           0        1.712442   -0.788804   -0.647281
      9          6           0        2.144649    0.548859   -0.019294
     10          6           0        2.679401    0.365926    1.406068
     11          7           0        3.084086    1.184622   -0.951831
     12          1           0       -0.969873    2.072125    0.386482
     13          1           0       -2.274716    2.856301    1.276859
     14          1           0       -2.326946    2.790471   -0.492249
     15          1           0       -2.502939    0.335315    1.369597
     16          1           0       -3.887913    1.110301    0.619109
     17          1           0       -3.269321   -0.893482   -0.623349
     18          1           0       -3.037892    0.534650   -1.637320
     19          1           0       -1.172266   -0.981301   -1.984396
     20          1           0       -0.569374    0.444689   -1.171254
     21          1           0        0.994830   -2.118719    0.852973
     22          1           0        2.589205   -1.444435   -0.732565
     23          1           0        1.363818   -0.602889   -1.665363
     24          1           0        1.257751    1.194815    0.023585
     25          1           0        3.565833   -0.283307    1.405843
     26          1           0        2.970006    1.330209    1.838144
     27          1           0        1.927338   -0.082598    2.064802
     28          1           0        3.313578    2.120194   -0.619510
     29          1           0        3.964519    0.667483   -0.946079
 ---------------------------------------------------------------------

 SCF Done:  E(UB3LYP) =  -500.624817164     A.U. after   31 cycles

 The electronic state is 2-A.
 Alpha  occ. eigenvalues --  -18.98865 -14.23569 -14.18659 -10.17470 -10.10456
 Alpha  occ. eigenvalues --  -10.09830 -10.08293 -10.07383 -10.06947 -10.06422
 Alpha  occ. eigenvalues --  -10.05236  -0.93981  -0.82607  -0.78146  -0.70946
 Alpha  occ. eigenvalues --   -0.64893  -0.64025  -0.59331  -0.56984  -0.50613
 Alpha  occ. eigenvalues --   -0.48790  -0.44973  -0.41639  -0.39934  -0.38259
 Alpha  occ. eigenvalues --   -0.36959  -0.35287  -0.34225  -0.32857  -0.32047
 Alpha  occ. eigenvalues --   -0.31411  -0.30610  -0.29394  -0.28567  -0.27703
 Alpha  occ. eigenvalues --   -0.27182  -0.25338  -0.24274  -0.23975  -0.23412
 Alpha  occ. eigenvalues --   -0.23165  -0.16147  -0.15761  -0.14050   0.04440
 Alpha virt. eigenvalues --    0.06426   0.07311   0.07976   0.08854   0.09140
 Alpha virt. eigenvalues --    0.09601   0.10624   0.10731   0.11426   0.11570
 Alpha virt. eigenvalues --    0.12176   0.12608   0.13010   0.13763   0.14316

  Beta  occ. eigenvalues --  -18.98863 -14.23556 -14.18605 -10.17471 -10.10428
  Beta  occ. eigenvalues --  -10.09817 -10.08280 -10.07377 -10.06942 -10.06399
  Beta  occ. eigenvalues --  -10.05185  -0.93976  -0.82579  -0.78060  -0.70928
  Beta  occ. eigenvalues --   -0.64844  -0.63965  -0.59254  -0.56946  -0.50563
  Beta  occ. eigenvalues --   -0.48708  -0.44934  -0.41578  -0.39914  -0.38232
  Beta  occ. eigenvalues --   -0.36897  -0.35268  -0.34173  -0.32811  -0.32010
  Beta  occ. eigenvalues --   -0.31380  -0.30553  -0.29365  -0.28537  -0.27669
  Beta  occ. eigenvalues --   -0.27145  -0.25291  -0.24216  -0.23955  -0.23381
  Beta  occ. eigenvalues --   -0.23142  -0.16136  -0.15739  -0.13995
  Beta virt. eigenvalues --    0.06497   0.07540   0.07844   0.08557   0.09419
  Beta virt. eigenvalues --    0.09715   0.09923   0.10707   0.11176   0.11719
  Beta virt. eigenvalues --    0.12103   0.12566   0.12852   0.13390   0.13872

 Mulliken charges and spin densities:
               1          2
     1  C    0.314983  -0.920919
     2  C   -0.650638   0.551988
     3  C    0.180362  -0.643519
     4  C    0.127536   0.070932
     5  C   -0.052447  -0.252704
     6  O   -0.348959   0.021927
     7  N   -0.307990   0.177323
     8  C    1.326351  -1.756521
     9  C   -0.946866   0.712027
    10  C    1.395298  -1.970893
    11  N   -0.353837   0.145676
    12  H   -0.049071   0.181908
    13  H   -0.193286   0.321304
    14  H   -0.026740   0.151836
    15  H    0.135817   0.024489
    16  H    0.037267   0.101977
    17  H    0.165917   0.005591
    18  H   -0.053474   0.195089
    19  H    0.051339   0.137929
    20  H    0.090848   0.089594
    21  H    0.109399   0.188557
    22  H   -0.624105   0.812410
    23  H   -0.090220   0.286342
    24  H    0.094388   0.103145
    25  H   -0.315244   0.473535
    26  H   -0.678868   0.831153
    27  H    0.016198   0.146408
    28  H   -0.289159   0.526317
    29  H   -0.064800   0.287101
 Sum of Mulliken charges =  -1.00000   1.00000

 Dipole moment (field-independent basis, Debye):
    X=             -6.9393    Y=             -1.9342    Z=             -1.1433  Tot=              7.2940
 Quadrupole moment (field-independent basis, Debye-Ang):
   XX=           -143.4529   YY=           -117.1189   ZZ=           -104.0419
   XY=             -7.4078   XZ=              2.0324   YZ=              0.3861

 Summary of Natural Population Analysis:

                                       Natural Population
                Natural  -----------------------------------------------
    Atom  No    Charge         Core      Valence    Rydberg      Total
 -----------------------------------------------------------------------
      C    1   -0.28853      0.99967     2.28332    0.00554     3.28853
      C    2   -0.19332      0.99964     2.18667    0.00701     3.19332
      C    3   -0.18703      0.99963     2.17916    0.00824     3.18703
      C    4   -0.23967      0.99958     2.23241    0.00768     3.23967
      C    5    0.34615      0.99967     1.63228    0.02189     2.65385
      O    6   -0.33114      0.99988     3.32551    0.00575     4.33114
      N    7   -0.31738      0.99967     2.80732    0.01038     3.81738
      C    8   -0.09197      0.99958     2.07947    0.01292     3.09197
      C    9   -0.02158      0.99961     2.01047    0.01150     3.02158
      C   10   -0.29576      0.99965     2.28988    0.00624     3.29576
      N   11   -0.42257      0.99977     2.91239    0.01042     3.92257
      H   12    0.09616      0.00000     0.40201    0.00183     0.40384
      H   13    0.09933      0.00000     0.39984    0.00083     0.40067
      H   14    0.09399      0.00000     0.40496    0.00104     0.40601
      H   15    0.10329      0.00000     0.39537    0.00134     0.39671
      H   16    0.09196      0.00000     0.40693    0.00111     0.40804
      H   17    0.10454      0.00000     0.39426    0.00120     0.39546
      H   18    0.09317      0.00000     0.40573    0.00109     0.40683
      H   19    0.11143      0.00000     0.38757    0.00100     0.38857
      H   20    0.10752      0.00000     0.39069    0.00180     0.39248
      H   21    0.19457      0.00000     0.30315    0.00229     0.30543
      H   22    0.09996      0.00000     0.39835    0.00169     0.40004
      H   23    0.10361      0.00000     0.39465    0.00173     0.39639
      H   24    0.08651      0.00000     0.41017    0.00333     0.41349
      H   25    0.09845      0.00000     0.39913    0.00242     0.40155
      H   26    0.10429      0.00000     0.39353    0.00218     0.39571
      H   27    0.09937      0.00000     0.39924    0.00139     0.40063
      H   28    0.18000      0.00000     0.31645    0.00356     0.32000
      H   29    0.17466      0.00000     0.32123    0.00411     0.32534
 =======================================================================
   * Total *   -0.00000     10.99635    32.86214    0.14151    44.00000

 Normal termination of Gaussian 16 at Mon Jan  4 09:38:08 2021.
