 Gaussian 16, Revision A.03,

 -----------------------------------------------------------
 # opt freq B3LYP/6-31G(d) empiricaldispersion=gd3bj scf=xqc
 -----------------------------------------------------------

 -------------------------------
 CID_131587630_JID_1064_neutraal
 -------------------------------
 Symbolic Z-matrix:
 Charge =  0 Multiplicity = 1

 SCF Done:  E(RB3LYP) =  -876.752894303     A.U. after   15 cycles
 SCF Done:  E(RB3LYP) =  -876.756941853     A.U. after   12 cycles
 SCF Done:  E(RB3LYP) =  -876.757658409     A.U. after   12 cycles
 SCF Done:  E(RB3LYP) =  -876.757835735     A.U. after   12 cycles
 SCF Done:  E(RB3LYP) =  -876.757948885     A.U. after   11 cycles
 SCF Done:  E(RB3LYP) =  -876.758024637     A.U. after   11 cycles
 SCF Done:  E(RB3LYP) =  -876.758075165     A.U. after   11 cycles
 SCF Done:  E(RB3LYP) =  -876.758088952     A.U. after   10 cycles
 SCF Done:  E(RB3LYP) =  -876.758093026     A.U. after    9 cycles
 SCF Done:  E(RB3LYP) =  -876.758097455     A.U. after    9 cycles
 SCF Done:  E(RB3LYP) =  -876.758109216     A.U. after   10 cycles
 SCF Done:  E(RB3LYP) =  -876.758110890     A.U. after    9 cycles
 SCF Done:  E(RB3LYP) =  -876.758111369     A.U. after    8 cycles
 SCF Done:  E(RB3LYP) =  -876.758111662     A.U. after    8 cycles
 SCF Done:  E(RB3LYP) =  -876.758111756     A.U. after    8 cycles
 Optimization completed.
    -- Stationary point found.
 Normal termination of Gaussian 16 at Tue Dec  8 19:13:20 2020.

 --------------------------------------------------------------------
 #N Geom=AllCheck Guess=TCheck SCRF=Check GenChk RB3LYP/6-31G(d) Freq
 --------------------------------------------------------------------

 Structure from the checkpoint file:  "JID_1064.chk"
 -------------------------------
 CID_131587630_JID_1064_neutraal
 -------------------------------
 Charge =  0 Multiplicity = 1

 SCF Done:  E(RB3LYP) =  -876.758111756     A.U. after    1 cycles

  Exact polarizability: 121.151   1.673 102.907   6.296   4.225  73.222
 Approx polarizability: 167.671   7.184 179.257  12.702  19.782 111.281

                      1                      2                      3
                      A                      A                      A
 Frequencies --     29.2529                56.5710                68.8959
 Red. masses --      4.1702                 3.0764                 2.3099
 Frc consts  --      0.0021                 0.0058                 0.0065
 IR Inten    --      0.4400                 6.0090                 1.3511

                      4                      5                      6
                      A                      A                      A
 Frequencies --    108.7704               139.1134               203.1923
 Red. masses --      2.3274                 5.1008                 1.7150
 Frc consts  --      0.0162                 0.0582                 0.0417
 IR Inten    --      1.5725                 0.7376                 3.3138

                      7                      8                      9
                      A                      A                      A
 Frequencies --    220.5484               242.4641               275.4417
 Red. masses --      2.2911                 3.5175                 1.1601
 Frc consts  --      0.0657                 0.1218                 0.0519
 IR Inten    --      6.4216                 2.8748                 1.4941

                     10                     11                     12
                      A                      A                      A
 Frequencies --    303.4494               334.1170               352.7506
 Red. masses --      3.5809                 2.5662                 1.4850
 Frc consts  --      0.1943                 0.1688                 0.1089
 IR Inten    --      0.2570                19.8179                81.8543

                     13                     14                     15
                      A                      A                      A
 Frequencies --    390.8549               447.4913               515.5586
 Red. masses --      5.2761                 4.1813                 3.5665
 Frc consts  --      0.4749                 0.4933                 0.5585
 IR Inten    --     12.7013                 4.5089                13.1262

                     16                     17                     18
                      A                      A                      A
 Frequencies --    520.0736               579.9806               624.1323
 Red. masses --      4.2226                 6.6576                 4.6638
 Frc consts  --      0.6729                 1.3195                 1.0704
 IR Inten    --      3.7285                 6.7163                 2.6398

                     19                     20                     21
                      A                      A                      A
 Frequencies --    739.0143               780.4683               793.9453
 Red. masses --      1.6413                 2.1498                 6.8682
 Frc consts  --      0.5281                 0.7715                 2.5508
 IR Inten    --      9.9203                23.7605                 7.1779

                     22                     23                     24
                      A                      A                      A
 Frequencies --    836.1652               870.2398               957.4458
 Red. masses --      3.4962                 3.4345                 3.4388
 Frc consts  --      1.4402                 1.5325                 1.8573
 IR Inten    --     19.7252                 2.3931                 1.8187

                     25                     26                     27
                      A                      A                      A
 Frequencies --   1021.4986              1031.9544              1081.7693
 Red. masses --      2.1705                 1.9649                 1.6392
 Frc consts  --      1.3344                 1.2328                 1.1302
 IR Inten    --     23.6266                10.2707                10.8215

                     28                     29                     30
                      A                      A                      A
 Frequencies --   1087.4683              1119.1112              1151.8194
 Red. masses --      7.0444                 2.8512                 2.7214
 Frc consts  --      4.9083                 2.1039                 2.1272
 IR Inten    --    172.6428                24.7979                13.2995

                     31                     32                     33
                      A                      A                      A
 Frequencies --   1165.8751              1191.2676              1197.3306
 Red. masses --      2.9965                 1.3008                 1.8711
 Frc consts  --      2.3997                 1.0876                 1.5804
 IR Inten    --     85.9340                 3.3218                42.0173

                     34                     35                     36
                      A                      A                      A
 Frequencies --   1233.4727              1252.9982              1303.0070
 Red. masses --      1.5149                 1.1035                 2.3593
 Frc consts  --      1.3580                 1.0207                 2.3601
 IR Inten    --     12.6215                15.8370                27.8909

                     37                     38                     39
                      A                      A                      A
 Frequencies --   1348.7387              1391.5202              1399.5848
 Red. masses --      1.3260                 1.7343                 1.3352
 Frc consts  --      1.4212                 1.9785                 1.5409
 IR Inten    --     32.5807                 1.8484                13.1081

                     40                     41                     42
                      A                      A                      A
 Frequencies --   1431.2677              1483.6867              1499.2597
 Red. masses --      1.2929                 1.2755                 1.1344
 Frc consts  --      1.5605                 1.6544                 1.5024
 IR Inten    --     13.4952               141.2250                 0.3557

                     43                     44                     45
                      A                      A                      A
 Frequencies --   1516.0113              1523.9653              1532.9154
 Red. masses --      1.0559                 1.0508                 1.3154
 Frc consts  --      1.4298                 1.4379                 1.8212
 IR Inten    --      4.3730                 2.7896                 8.1783

                     46                     47                     48
                      A                      A                      A
 Frequencies --   1538.2322              1539.9544              1557.3279
 Red. masses --      1.0610                 1.0763                 3.6360
 Frc consts  --      1.4792                 1.5038                 5.1955
 IR Inten    --      0.2073                11.2413                 9.3964

                     49                     50                     51
                      A                      A                      A
 Frequencies --   1583.9189              2974.8319              3015.1615
 Red. masses --      6.1614                 1.0736                 1.0362
 Frc consts  --      9.1074                 5.5979                 5.5504
 IR Inten    --     32.1075                47.7479                44.9510

                     52                     53                     54
                      A                      A                      A
 Frequencies --   3059.3620              3061.2295              3068.0016
 Red. masses --      1.0879                 1.0491                 1.0916
 Frc consts  --      5.9990                 5.7926                 6.0539
 IR Inten    --     29.5713                 4.1501                49.2511

                     55                     56                     57
                      A                      A                      A
 Frequencies --   3068.5187              3129.3590              3141.5543
 Red. masses --      1.0825                 1.1018                 1.0987
 Frc consts  --      6.0053                 6.3569                 6.3885
 IR Inten    --     29.8384                32.9726                21.5728

                     58                     59                     60
                      A                      A                      A
 Frequencies --   3144.2426              3286.0790              3658.1305
 Red. masses --      1.1026                 1.0944                 1.0654
 Frc consts  --      6.4226                 6.9630                 8.4004
 IR Inten    --     25.5128                 1.4755                64.0622

 - Thermochemistry -
 -------------------
 Temperature   298.150 Kelvin.  Pressure   1.00000 Atm.
 Atom     1 has atomic number  6 and mass  12.00000

 Molecular mass:   173.05105 amu.
 Principal axes and moments of inertia in atomic units:
                           1         2         3
     Eigenvalues --  1234.892322836.616913555.51065
           X            0.99979  -0.02044  -0.00005
           Y            0.02043   0.99924  -0.03307
           Z            0.00073   0.03306   0.99945
 This molecule is an asymmetric top.
 Rotational symmetry number  1.
 Warning -- assumption of classical behavior for rotation
           may cause significant error
 Rotational temperatures (Kelvin)      0.07014     0.03053     0.02436
 Rotational constants (GHZ):           1.46146     0.63623     0.50759
 Zero-point vibrational energy     467622.4 (Joules/Mol)
                                  111.76444 (Kcal/Mol)
 Warning -- explicit consideration of  17 degrees of freedom as
           vibrations may cause significant error
 Vibrational temperatures:     42.09    81.39    99.13   156.50   200.15
          (Kelvin)            292.35   317.32   348.85   396.30   436.60
                              480.72   507.53   562.35   643.84   741.77
                              748.27   834.46   897.99  1063.28  1122.92
                             1142.31  1203.06  1252.08  1377.55  1469.71
                             1484.75  1556.42  1564.62  1610.15  1657.21
                             1677.43  1713.97  1722.69  1774.69  1802.78
                             1874.74  1940.53  2002.09  2013.69  2059.27
                             2134.69  2157.10  2181.20  2192.65  2205.52
                             2213.17  2215.65  2240.65  2278.91  4280.12
                             4338.14  4401.74  4404.43  4414.17  4414.91
                             4502.45  4520.00  4523.86  4727.93  5263.23

 Zero-point correction=                           0.178108 (Hartree/Particle)
 Thermal correction to Energy=                    0.190090
 Thermal correction to Enthalpy=                  0.191034
 Thermal correction to Gibbs Free Energy=         0.138735
 Sum of electronic and zero-point Energies=           -876.580004
 Sum of electronic and thermal Energies=              -876.568022
 Sum of electronic and thermal Enthalpies=            -876.567078
 Sum of electronic and thermal Free Energies=         -876.619376

                     E (Thermal)             CV                S
                      KCal/Mol        Cal/Mol-Kelvin    Cal/Mol-Kelvin
 Total                  119.283             42.705            110.072
 Electronic               0.000              0.000              0.000
 Translational            0.889              2.981             41.353
 Rotational               0.889              2.981             30.900
 Vibrational            117.506             36.744             37.820
 Vibration     1          0.593              1.984              5.879
 Vibration     2          0.596              1.975              4.573
 Vibration     3          0.598              1.969              4.185
 Vibration     4          0.606              1.942              3.291
 Vibration     5          0.615              1.914              2.816
 Vibration     6          0.639              1.835              2.104
 Vibration     7          0.647              1.810              1.955
 Vibration     8          0.659              1.775              1.785
 Vibration     9          0.677              1.719              1.562
 Vibration    10          0.695              1.667              1.398
 Vibration    11          0.716              1.607              1.240
 Vibration    12          0.729              1.570              1.154
 Vibration    13          0.759              1.490              0.997
 Vibration    14          0.807              1.366              0.803
 Vibration    15          0.871              1.216              0.620
 Vibration    16          0.875              1.206              0.610
 Vibration    17          0.937              1.075              0.485

 Optimization completed.
    -- Stationary point found.
 Normal termination of Gaussian 16 at Tue Dec  8 19:17:25 2020.

 ----------------------------------------------------------------------
 # B3LYP/6-311++G(d,p) empiricaldispersion=gd3bj scf=xqc pop=npa geom=c
 heck
 ----------------------------------------------------------------------

 ---------------------------------------
 CID_131587630_JID_1064_Energie_neutraal
 ---------------------------------------
 Structure from the checkpoint file:  "JID_1064.chk"
 Charge =  0 Multiplicity = 1

 SCF Done:  E(RB3LYP) =  -876.931388914     A.U. after   15 cycles
 Normal termination of Gaussian 16 at Tue Dec  8 19:19:13 2020.

 ----------------------------------------------------------------------
 # B3LYP/6-311++G(d,p) empiricaldispersion=gd3bj scf=xqc pop=npa geom=c
 heck
 ----------------------------------------------------------------------

 -------------------------------------
 CID_131587630_JID_1064_Energie_kation
 -------------------------------------
 Structure from the checkpoint file:  "JID_1064.chk"
 Charge =  1 Multiplicity = 2

 SCF Done:  E(UB3LYP) =  -876.606461456     A.U. after   25 cycles
 Normal termination of Gaussian 16 at Tue Dec  8 19:23:26 2020.
 Gaussian 16:  ES64L-G16RevA.03 25-Dec-2016

 ----------------------------------------------------------------------
 # B3LYP/6-311++G(d,p) empiricaldispersion=gd3bj scf=xqc pop=npa geom=c
 heck
 ----------------------------------------------------------------------

 ------------------------------------
 CID_131587630_JID_1064_Energie_anion
 ------------------------------------
 Structure from the checkpoint file:  "JID_1064.chk"
 Charge = -1 Multiplicity = 2

                         Standard orientation:
 ---------------------------------------------------------------------
 Center     Atomic      Atomic             Coordinates (Angstroms)
 Number     Number       Type             X           Y           Z
 ---------------------------------------------------------------------
      1          6           0       -3.009678    0.752552   -0.817554
      2          6           0       -1.890958   -0.287788   -0.748852
      3          6           0       -0.550153    0.292594   -0.358745
      4          6           0       -0.283335    1.573538    0.030644
      5         16           0        1.406748    1.764447    0.399586
      6          6           0        1.635761    0.070065    0.005725
      7          7           0        0.553197   -0.545474   -0.362550
      8          6           0        2.950471   -0.661524    0.118276
      9          8           0        2.887806   -1.909682   -0.526919
     10          8           0       -2.231862   -1.403500    0.074379
     11          6           0       -2.324691   -1.134841    1.461437
     12          1           0       -3.145179    1.275880    0.134565
     13          1           0       -3.949533    0.254055   -1.070063
     14          1           0       -2.793608    1.499852   -1.588151
     15          1           0       -1.772743   -0.740754   -1.739840
     16          1           0       -0.963174    2.408767    0.112848
     17          1           0        3.755514   -0.067538   -0.333181
     18          1           0        3.197039   -0.774160    1.188647
     19          1           0        1.940236   -2.129800   -0.596283
     20          1           0       -1.385334   -0.735171    1.867726
     21          1           0       -3.136868   -0.433537    1.701280
     22          1           0       -2.538747   -2.092551    1.941663
 ---------------------------------------------------------------------

 SCF Done:  E(UB3LYP) =  -876.920973783     A.U. after   33 cycles
 SCF Done:  E(UB3LYP) =  -876.920973783     a.u. after    1 cycles

 The electronic state is 2-A.
 Alpha  occ. eigenvalues --  -88.75847 -19.01371 -19.01012 -14.19168 -10.12220
 Alpha  occ. eigenvalues --  -10.11490 -10.10732 -10.09691 -10.08314 -10.07238
 Alpha  occ. eigenvalues --  -10.04976  -7.84481  -5.80763  -5.80415  -5.80088
 Alpha  occ. eigenvalues --   -0.92320  -0.92145  -0.84139  -0.67753  -0.67543
 Alpha  occ. eigenvalues --   -0.62975  -0.57934  -0.56982  -0.50237  -0.46624
 Alpha  occ. eigenvalues --   -0.42723  -0.39536  -0.38170  -0.37601  -0.35734
 Alpha  occ. eigenvalues --   -0.34167  -0.32950  -0.31689  -0.29725  -0.29069
 Alpha  occ. eigenvalues --   -0.27663  -0.26709  -0.26304  -0.24722  -0.23529
 Alpha  occ. eigenvalues --   -0.19839  -0.17685  -0.16819  -0.16540  -0.14987
 Alpha  occ. eigenvalues --   -0.12638   0.04993
 Alpha virt. eigenvalues --    0.07233   0.08048   0.08626   0.09078   0.09902
 Alpha virt. eigenvalues --    0.11217   0.11433   0.11610   0.11838   0.12963
 Alpha virt. eigenvalues --    0.13378   0.14171   0.14616   0.14724   0.15228

  Beta  occ. eigenvalues --  -88.75820 -19.01369 -19.01005 -14.19143 -10.12236
  Beta  occ. eigenvalues --  -10.11489 -10.10454 -10.09665 -10.08301 -10.07036
  Beta  occ. eigenvalues --  -10.04934  -7.84456  -5.80753  -5.80406  -5.79995
  Beta  occ. eigenvalues --   -0.92299  -0.92131  -0.83939  -0.67578  -0.67374
  Beta  occ. eigenvalues --   -0.62770  -0.57871  -0.56897  -0.50045  -0.46398
  Beta  occ. eigenvalues --   -0.42593  -0.39388  -0.38104  -0.37532  -0.35508
  Beta  occ. eigenvalues --   -0.34107  -0.32873  -0.31588  -0.29631  -0.28926
  Beta  occ. eigenvalues --   -0.27288  -0.26559  -0.26180  -0.24626  -0.23431
  Beta  occ. eigenvalues --   -0.19800  -0.17600  -0.16489  -0.16240  -0.14915
  Beta  occ. eigenvalues --   -0.11743
  Beta virt. eigenvalues --    0.07602   0.08350   0.09075   0.09189   0.09682
  Beta virt. eigenvalues --    0.10174   0.11305   0.11783   0.11999   0.12204
  Beta virt. eigenvalues --    0.13386   0.13545   0.14308   0.14820   0.15101

 Mulliken charges and spin densities:
               1          2
     1  C    1.837772  -2.240736
     2  C   -3.233962   2.422160
     3  C    1.056131  -2.153765
     4  C    0.001493   0.933821
     5  S   -0.258640  -0.275193
     6  C    0.222620   0.377368
     7  N    0.049852   0.072324
     8  C    0.790840  -0.854970
     9  O   -0.312596   0.008694
    10  O   -0.044478  -0.013424
    11  C    0.497334  -0.801935
    12  H   -0.071523   0.222458
    13  H   -0.333249   0.494425
    14  H   -0.253409   0.393977
    15  H   -0.030865   0.210184
    16  H   -0.839460   1.112516
    17  H    0.147064   0.008991
    18  H   -0.147452   0.322225
    19  H    0.254096   0.026938
    20  H   -0.083940   0.233985
    21  H   -0.254502   0.371311
    22  H    0.006872   0.128646
 Sum of Mulliken charges =  -1.00000   1.00000

 Dipole moment (field-independent basis, Debye):
    X=              3.3485    Y=             -1.0205    Z=              0.2708  Tot=              3.5110
 Quadrupole moment (field-independent basis, Debye-Ang):
   XX=           -127.4800   YY=           -111.9496   ZZ=            -97.7961
   XY=             12.3097   XZ=             -2.9618   YZ=              1.0681

 Summary of Natural Population Analysis:

                                       Natural Population
                Natural  -----------------------------------------------
    Atom  No    Charge         Core      Valence    Rydberg      Total
 -----------------------------------------------------------------------
      C    1   -0.30095      0.99965     2.29511    0.00618     3.30095
      C    2    0.05759      0.99950     1.92664    0.01627     2.94241
      C    3    0.04510      0.99946     1.93975    0.01569     2.95490
      C    4   -0.16968      0.99944     2.15912    0.01111     3.16968
      S    5    0.18368      4.99944     2.79714    0.01973     7.81632
      C    6    0.06883      0.99960     1.91491    0.01666     2.93117
      N    7   -0.26749      0.99960     2.75490    0.01298     3.76749
      C    8   -0.02646      0.99954     2.01393    0.01300     3.02646
      O    9   -0.37302      0.99990     3.36591    0.00720     4.37302
      O   10   -0.29787      0.99989     3.28791    0.01007     4.29787
      C   11   -0.10057      0.99960     2.09240    0.00857     3.10057
      H   12    0.09938      0.00000     0.39871    0.00191     0.40062
      H   13    0.10295      0.00000     0.39586    0.00118     0.39705
      H   14    0.10644      0.00000     0.39177    0.00179     0.39356
      H   15    0.09567      0.00000     0.40254    0.00178     0.40433
      H   16    0.11330      0.00000     0.38459    0.00212     0.38670
      H   17    0.08633      0.00000     0.41216    0.00151     0.41367
      H   18    0.08671      0.00000     0.41088    0.00241     0.41329
      H   19    0.24203      0.00000     0.25447    0.00350     0.25797
      H   20    0.08453      0.00000     0.41384    0.00163     0.41547
      H   21    0.07723      0.00000     0.42100    0.00177     0.42277
      H   22    0.08626      0.00000     0.41251    0.00123     0.41374
 =======================================================================
   * Total *   -0.00000     14.99563    30.84608    0.15829    46.00000

 Normal termination of Gaussian 16 at Tue Dec  8 19:29:18 2020.
