 Gaussian 16, Revision A.03,

 -----------------------------------------------------------
 # opt freq B3LYP/6-31G(d) empiricaldispersion=gd3bj scf=xqc
 -----------------------------------------------------------

 -----------------------------
 CID_79947426_JID_299_neutraal
 -----------------------------
 Symbolic Z-matrix:
 Charge =  0 Multiplicity = 1

 SCF Done:  E(RB3LYP) =  -784.073156352     A.U. after   13 cycles
 SCF Done:  E(RB3LYP) =  -784.079895401     A.U. after   11 cycles
 SCF Done:  E(RB3LYP) =  -784.080978048     A.U. after   11 cycles
 SCF Done:  E(RB3LYP) =  -784.080961601     A.U. after   10 cycles
 SCF Done:  E(RB3LYP) =  -784.081235763     A.U. after   10 cycles
 SCF Done:  E(RB3LYP) =  -784.081249508     A.U. after    9 cycles
 SCF Done:  E(RB3LYP) =  -784.081250775     A.U. after    8 cycles
 SCF Done:  E(RB3LYP) =  -784.081251222     A.U. after    7 cycles
 SCF Done:  E(RB3LYP) =  -784.081251299     A.U. after    6 cycles
 SCF Done:  E(RB3LYP) =  -784.081251342     A.U. after    6 cycles
 SCF Done:  E(RB3LYP) =  -784.084944899     A.U. after   11 cycles
 SCF Done:  E(RB3LYP) =  -784.084170473     A.U. after   11 cycles
 SCF Done:  E(RB3LYP) =  -784.085484728     A.U. after   10 cycles
 SCF Done:  E(RB3LYP) =  -784.085515539     A.U. after   10 cycles
 SCF Done:  E(RB3LYP) =  -784.085518909     A.U. after    8 cycles
 SCF Done:  E(RB3LYP) =  -784.085519119     A.U. after    6 cycles
 Optimization completed.
    -- Stationary point found.
 Normal termination of Gaussian 16 at Tue Dec  8 10:29:56 2020.

 --------------------------------------------------------------------
 #N Geom=AllCheck Guess=TCheck SCRF=Check GenChk RB3LYP/6-31G(d) Freq
 --------------------------------------------------------------------

 Structure from the checkpoint file:  "JID_299.chk"
 -----------------------------
 CID_79947426_JID_299_neutraal
 -----------------------------
 Charge =  0 Multiplicity = 1

 SCF Done:  E(RB3LYP) =  -784.085519119     A.U. after    1 cycles

  Exact polarizability: 108.798   1.515 103.234   1.723   0.304  90.767
 Approx polarizability: 152.102   1.969 145.807   3.845  -2.590 140.826

                      1                      2                      3
                      A                      A                      A
 Frequencies --    109.8271               123.6821               174.9140
 Red. masses --      3.3741                 3.6120                 2.6757
 Frc consts  --      0.0240                 0.0326                 0.0482
 IR Inten    --      2.6626                 0.4849                 4.0147

                      4                      5                      6
                      A                      A                      A
 Frequencies --    221.5411               231.4478               247.4719
 Red. masses --      2.1292                 2.1587                 1.3992
 Frc consts  --      0.0616                 0.0681                 0.0505
 IR Inten    --      1.3255                 2.7460                10.2102

                      7                      8                      9
                      A                      A                      A
 Frequencies --    265.5930               301.2032               309.4565
 Red. masses --      1.1940                 2.5872                 1.9045
 Frc consts  --      0.0496                 0.1383                 0.1075
 IR Inten    --      4.5535                 0.1319                 9.7684

                     10                     11                     12
                      A                      A                      A
 Frequencies --    321.4148               364.4891               378.8367
 Red. masses --      1.4450                 3.1486                 2.3433
 Frc consts  --      0.0880                 0.2465                 0.1981
 IR Inten    --     34.2356                12.3446                 0.2118

                     13                     14                     15
                      A                      A                      A
 Frequencies --    413.3710               416.7071               462.9263
 Red. masses --      2.1652                 2.0761                 2.5233
 Frc consts  --      0.2180                 0.2124                 0.3186
 IR Inten    --      0.5012                 0.3227                 0.6231

                     16                     17                     18
                      A                      A                      A
 Frequencies --    543.2821               634.2576               704.4111
 Red. masses --      3.3926                 4.4457                 4.1213
 Frc consts  --      0.5900                 1.0537                 1.2048
 IR Inten    --      6.1780                 9.6284                 2.8586

                     19                     20                     21
                      A                      A                      A
 Frequencies --    750.6957               757.9424               798.7429
 Red. masses --      3.4915                 4.0565                 1.8981
 Frc consts  --      1.1593                 1.3730                 0.7135
 IR Inten    --      6.0739                12.3858                40.5947

                     22                     23                     24
                      A                      A                      A
 Frequencies --    850.0594               867.3688               891.5342
 Red. masses --      1.9197                 1.7688                 1.9298
 Frc consts  --      0.8173                 0.7840                 0.9037
 IR Inten    --     15.2987                 2.9663                 3.5891

                     25                     26                     27
                      A                      A                      A
 Frequencies --    923.2127               947.8892               958.2450
 Red. masses --      2.0641                 1.7361                 1.5278
 Frc consts  --      1.0365                 0.9190                 0.8266
 IR Inten    --     22.1529                10.7781                 1.4441

                     28                     29                     30
                      A                      A                      A
 Frequencies --    982.0715              1029.0575              1041.1611
 Red. masses --      1.8055                 1.6470                 1.3472
 Frc consts  --      1.0259                 1.0276                 0.8604
 IR Inten    --     12.6184                73.7545                 0.6948

                     31                     32                     33
                      A                      A                      A
 Frequencies --   1080.6486              1096.4260              1147.4411
 Red. masses --      1.8090                 1.6747                 1.4004
 Frc consts  --      1.2447                 1.1862                 1.0863
 IR Inten    --      5.5724                 2.7344                 4.1463

                     34                     35                     36
                      A                      A                      A
 Frequencies --   1164.9684              1191.0249              1197.9714
 Red. masses --      1.5681                 1.4738                 1.9289
 Frc consts  --      1.2539                 1.2318                 1.6310
 IR Inten    --      3.5150                 4.5817                 2.5111

                     37                     38                     39
                      A                      A                      A
 Frequencies --   1280.2158              1288.8887              1304.3943
 Red. masses --      1.7516                 1.7063                 1.6091
 Frc consts  --      1.6914                 1.6700                 1.6130
 IR Inten    --     10.3807                15.8245                 2.6205

                     40                     41                     42
                      A                      A                      A
 Frequencies --   1320.0562              1330.0581              1339.4601
 Red. masses --      1.5838                 1.2396                 1.3456
 Frc consts  --      1.6261                 1.2920                 1.4224
 IR Inten    --      1.5375                 5.3945                 8.0663

                     43                     44                     45
                      A                      A                      A
 Frequencies --   1365.7814              1369.3357              1412.6204
 Red. masses --      1.4679                 1.4707                 1.3363
 Frc consts  --      1.6133                 1.6248                 1.5711
 IR Inten    --      1.7178                 9.8613                 1.9389

                     46                     47                     48
                      A                      A                      A
 Frequencies --   1425.2340              1447.6308              1483.3813
 Red. masses --      1.2479                 1.2197                 1.0972
 Frc consts  --      1.4935                 1.5060                 1.4224
 IR Inten    --      5.9725                 5.1568                 7.6145

                     49                     50                     51
                      A                      A                      A
 Frequencies --   1490.3883              1510.2246              1517.6321
 Red. masses --      1.0856                 1.0695                 1.0614
 Frc consts  --      1.4208                 1.4372                 1.4403
 IR Inten    --      5.3107                 0.4339                 1.5806

                     52                     53                     54
                      A                      A                      A
 Frequencies --   1524.8571              1530.6641              1535.2423
 Red. masses --      1.0828                 1.0886                 1.0808
 Frc consts  --      1.4834                 1.5028                 1.5008
 IR Inten    --      2.3837                11.3148                 9.9286

                     55                     56                     57
                      A                      A                      A
 Frequencies --   1547.3202              1709.8852              3022.2232
 Red. masses --      1.0649                 1.0806                 1.0696
 Frc consts  --      1.5021                 1.8615                 5.7559
 IR Inten    --     13.3060                13.8383                10.6414

                     58                     59                     60
                      A                      A                      A
 Frequencies --   3037.6535              3039.1053              3045.1390
 Red. masses --      1.0478                 1.0691                 1.0500
 Frc consts  --      5.6966                 5.8178                 5.7365
 IR Inten    --     23.8147                31.4378                44.9119

                     61                     62                     63
                      A                      A                      A
 Frequencies --   3050.9186              3070.2274              3088.0493
 Red. masses --      1.0502                 1.0638                 1.0939
 Frc consts  --      5.7596                 5.9083                 6.1458
 IR Inten    --     26.4652                37.4017                12.6821

                     64                     65                     66
                      A                      A                      A
 Frequencies --   3101.5689              3103.6787              3109.9277
 Red. masses --      1.1022                 1.1027                 1.1013
 Frc consts  --      6.2469                 6.2584                 6.2758
 IR Inten    --      6.5038                 0.1137                64.5323

                     67                     68                     69
                      A                      A                      A
 Frequencies --   3111.1309              3134.2623              3141.4612
 Red. masses --      1.1023                 1.1032                 1.0975
 Frc consts  --      6.2861                 6.3849                 6.3815
 IR Inten    --     42.2572                 8.0165                24.6207

                     70                     71                     72
                      A                      A                      A
 Frequencies --   3419.9694              3458.2480              3540.4395
 Red. masses --      1.0529                 1.0732                 1.0899
 Frc consts  --      7.2557                 7.5620                 8.0495
 IR Inten    --     14.8905                 1.4980                 0.3130

 - Thermochemistry -
 -------------------
 Temperature   298.150 Kelvin.  Pressure   1.00000 Atm.
 Atom     1 has atomic number  6 and mass  12.00000

 Molecular mass:   160.10342 amu.
 Principal axes and moments of inertia in atomic units:
                           1         2         3
     Eigenvalues --  1387.442581639.579352332.12138
           X            0.99568   0.09239  -0.00882
           Y           -0.09198   0.99500   0.03901
           Z            0.01238  -0.03803   0.99920
 This molecule is an asymmetric top.
 Rotational symmetry number  1.
 Warning -- assumption of classical behavior for rotation
           may cause significant error
 Rotational temperatures (Kelvin)      0.06243     0.05283     0.03714
 Rotational constants (GHZ):           1.30077     1.10073     0.77386
 Zero-point vibrational energy     616726.2 (Joules/Mol)
                                  147.40110 (Kcal/Mol)
 Warning -- explicit consideration of  16 degrees of freedom as
           vibrations may cause significant error
 Vibrational temperatures:    158.02   177.95   251.66   318.75   333.00
          (Kelvin)            356.06   382.13   433.36   445.24   462.44
                              524.42   545.06   594.75   599.55   666.05
                              781.66   912.56  1013.49  1080.08  1090.51
                             1149.21  1223.05  1247.95  1282.72  1328.30
                             1363.80  1378.70  1412.98  1480.58  1498.00
                             1554.81  1577.51  1650.91  1676.13  1713.62
                             1723.61  1841.95  1854.42  1876.73  1899.27
                             1913.66  1927.18  1965.05  1970.17  2032.45
                             2050.59  2082.82  2134.25  2144.34  2172.88
                             2183.53  2193.93  2202.28  2208.87  2226.25
                             2460.14  4348.31  4370.51  4372.59  4381.28
                             4389.59  4417.37  4443.01  4462.47  4465.50
                             4474.49  4476.22  4509.50  4519.86  4920.57
                             4975.65  5093.90

 Zero-point correction=                           0.234899 (Hartree/Particle)
 Thermal correction to Energy=                    0.245876
 Thermal correction to Enthalpy=                  0.246820
 Thermal correction to Gibbs Free Energy=         0.199517
 Sum of electronic and zero-point Energies=           -783.850621
 Sum of electronic and thermal Energies=              -783.839643
 Sum of electronic and thermal Enthalpies=            -783.838699
 Sum of electronic and thermal Free Energies=         -783.886002

                     E (Thermal)             CV                S
                      KCal/Mol        Cal/Mol-Kelvin    Cal/Mol-Kelvin
 Total                  154.289             43.578             99.558
 Electronic               0.000              0.000              0.000
 Translational            0.889              2.981             41.121
 Rotational               0.889              2.981             30.052
 Vibrational            152.512             37.616             28.385
 Vibration     1          0.606              1.941              3.272
 Vibration     2          0.610              1.929              3.042
 Vibration     3          0.627              1.873              2.382
 Vibration     4          0.648              1.808              1.946
 Vibration     5          0.653              1.793              1.868
 Vibration     6          0.661              1.767              1.749
 Vibration     7          0.671              1.736              1.625
 Vibration     8          0.693              1.671              1.410
 Vibration     9          0.699              1.656              1.365
 Vibration    10          0.707              1.633              1.303
 Vibration    11          0.738              1.545              1.103
 Vibration    12          0.749              1.515              1.044
 Vibration    13          0.777              1.441              0.915
 Vibration    14          0.780              1.434              0.903
 Vibration    15          0.821              1.332              0.758
 Vibration    16          0.898              1.154              0.558

 Optimization completed.
    -- Stationary point found.
 Normal termination of Gaussian 16 at Tue Dec  8 10:37:00 2020.

 ----------------------------------------------------------------------
 # B3LYP/6-311++G(d,p) empiricaldispersion=gd3bj scf=xqc pop=npa geom=c
 heck
 ----------------------------------------------------------------------

 -------------------------------------
 CID_79947426_JID_299_Energie_neutraal
 -------------------------------------
 Structure from the checkpoint file:  "JID_299.chk"
 Charge =  0 Multiplicity = 1

 SCF Done:  E(RB3LYP) =  -784.231872180     A.U. after   13 cycles
 Normal termination of Gaussian 16 at Tue Dec  8 10:40:38 2020.

 ----------------------------------------------------------------------
 # B3LYP/6-311++G(d,p) empiricaldispersion=gd3bj scf=xqc pop=npa geom=c
 heck
 ----------------------------------------------------------------------

 -----------------------------------
 CID_79947426_JID_299_Energie_kation
 -----------------------------------
 Structure from the checkpoint file:  "JID_299.chk"
 Charge =  1 Multiplicity = 2

 SCF Done:  E(UB3LYP) =  -783.937660758     A.U. after   21 cycles
 Normal termination of Gaussian 16 at Tue Dec  8 10:50:18 2020.
 Gaussian 16:  ES64L-G16RevA.03 25-Dec-2016

 ----------------------------------------------------------------------
 # B3LYP/6-311++G(d,p) empiricaldispersion=gd3bj scf=xqc pop=npa geom=c
 heck
 ----------------------------------------------------------------------

 ----------------------------------
 CID_79947426_JID_299_Energie_anion
 ----------------------------------
 Structure from the checkpoint file:  "JID_299.chk"
 Charge = -1 Multiplicity = 2

                         Standard orientation:
 ---------------------------------------------------------------------
 Center     Atomic      Atomic             Coordinates (Angstroms)
 Number     Number       Type             X           Y           Z
 ---------------------------------------------------------------------
      1          6           0       -0.839588   -1.247193   -1.330102
      2          6           0       -1.186039   -0.652664    0.045543
      3          6           0       -0.020163   -0.789602    1.055978
      4          6           0        1.232068    0.098715    0.870730
      5          6           0        0.869886    1.583650    0.796364
      6         16           0       -0.263246    1.961754   -0.598877
      7          6           0       -1.608648    0.824155   -0.091269
      8          7           0        2.115735   -0.211881   -0.255427
      9          7           0        2.444196   -1.601456   -0.302629
     10          6           0       -2.392409   -1.428939    0.607572
     11          1           0       -0.508617   -2.287375   -1.226074
     12          1           0       -0.059145   -0.679352   -1.841867
     13          1           0       -1.721606   -1.246320   -1.981719
     14          1           0       -0.417606   -0.564863    2.056458
     15          1           0        0.308149   -1.834810    1.087085
     16          1           0        1.840495   -0.044765    1.773755
     17          1           0        1.770192    2.182551    0.635615
     18          1           0        0.396682    1.907833    1.729585
     19          1           0       -2.396555    0.930460   -0.844545
     20          1           0       -2.014778    1.183865    0.862354
     21          1           0        1.678687    0.106521   -1.120025
     22          1           0        1.806659   -2.112844   -0.916356
     23          1           0        3.375002   -1.674375   -0.705787
     24          1           0       -3.251759   -1.368490   -0.071217
     25          1           0       -2.142551   -2.488252    0.740201
     26          1           0       -2.701482   -1.033219    1.582057
 ---------------------------------------------------------------------

 SCF Done:  E(UB3LYP) =  -784.216739493     A.U. after   29 cycles

 The electronic state is 2-A.
 Alpha  occ. eigenvalues --  -88.73401 -14.21386 -14.21212 -10.09644 -10.09541
 Alpha  occ. eigenvalues --  -10.08946 -10.08241 -10.05579 -10.05026 -10.04910
 Alpha  occ. eigenvalues --   -7.82035  -5.78408  -5.78076  -5.77417  -0.85672
 Alpha  occ. eigenvalues --   -0.74485  -0.69880  -0.66234  -0.61198  -0.58321
 Alpha  occ. eigenvalues --   -0.57745  -0.51680  -0.48054  -0.42167  -0.41222
 Alpha  occ. eigenvalues --   -0.38503  -0.36972  -0.35476  -0.33964  -0.33146
 Alpha  occ. eigenvalues --   -0.32235  -0.29806  -0.28932  -0.27896  -0.26616
 Alpha  occ. eigenvalues --   -0.25316  -0.25103  -0.24404  -0.22522  -0.20886
 Alpha  occ. eigenvalues --   -0.19531  -0.15580  -0.13311  -0.11859   0.04755
 Alpha virt. eigenvalues --    0.07126   0.07633   0.08812   0.09598   0.09854
 Alpha virt. eigenvalues --    0.10078   0.10876   0.11071   0.12584   0.12777
 Alpha virt. eigenvalues --    0.12992   0.13627   0.14001   0.14371   0.14903

  Beta  occ. eigenvalues --  -88.73397 -14.21374 -14.21168 -10.09639 -10.09531
  Beta  occ. eigenvalues --  -10.08914 -10.08239 -10.05558 -10.04983 -10.04861
  Beta  occ. eigenvalues --   -7.82032  -5.78403  -5.78069  -5.77413  -0.85635
  Beta  occ. eigenvalues --   -0.74454  -0.69834  -0.66192  -0.61136  -0.58248
  Beta  occ. eigenvalues --   -0.57671  -0.51635  -0.48008  -0.42098  -0.41156
  Beta  occ. eigenvalues --   -0.38459  -0.36925  -0.35435  -0.33928  -0.33093
  Beta  occ. eigenvalues --   -0.32200  -0.29766  -0.28892  -0.27857  -0.26571
  Beta  occ. eigenvalues --   -0.25275  -0.25071  -0.24371  -0.22477  -0.20844
  Beta  occ. eigenvalues --   -0.19495  -0.15541  -0.13283  -0.11838
  Beta virt. eigenvalues --    0.07172   0.08068   0.08307   0.09313   0.10159
  Beta virt. eigenvalues --    0.10550   0.10608   0.11328   0.11502   0.12945
  Beta virt. eigenvalues --    0.13289   0.13579   0.13919   0.14146   0.14758

 Mulliken charges and spin densities:
               1          2
     1  C    1.967827  -2.732981
     2  C   -3.534477   4.620083
     3  C    2.063097  -3.189198
     4  C   -0.268457   0.771704
     5  C   -0.346095  -0.611477
     6  S    0.217168  -0.113590
     7  C    0.005965  -0.766658
     8  N    0.015591  -0.017056
     9  N   -0.347277  -0.201249
    10  C    1.145471  -1.639552
    11  H   -0.426119   0.589494
    12  H   -0.264340   0.400818
    13  H   -0.145560   0.304402
    14  H    0.075844   0.081348
    15  H    0.131112   0.064890
    16  H   -0.057998   0.265069
    17  H    0.110825   0.128329
    18  H   -0.011827   0.183395
    19  H   -0.184807   0.399883
    20  H   -0.155183   0.366075
    21  H    0.276916  -0.094145
    22  H   -0.075487   0.308854
    23  H   -0.106363   0.373152
    24  H   -0.379558   0.518420
    25  H   -0.223431   0.369941
    26  H   -0.482838   0.620048
 Sum of Mulliken charges =  -1.00000   1.00000

 Dipole moment (field-independent basis, Debye):
    X=              2.3533    Y=              4.1705    Z=              0.6415  Tot=              4.8314
 Quadrupole moment (field-independent basis, Debye-Ang):
   XX=           -125.2235   YY=           -116.0273   ZZ=           -107.7789
   XY=              2.0156   XZ=              2.7397   YZ=             -2.7724

 Summary of Natural Population Analysis:

                                       Natural Population
                Natural  -----------------------------------------------
    Atom  No    Charge         Core      Valence    Rydberg      Total
 -----------------------------------------------------------------------
      C    1   -0.28835      0.99961     2.28015    0.00859     3.28835
      C    2   -0.05612      0.99956     2.04153    0.01503     3.05612
      C    3   -0.20241      0.99956     2.19046    0.01239     3.20241
      C    4   -0.01249      0.99957     1.99793    0.01498     3.01249
      C    5   -0.25059      0.99956     2.23967    0.01136     3.25059
      S    6    0.07964      4.99963     2.90358    0.01715     7.92036
      C    7   -0.24609      0.99952     2.23355    0.01303     3.24609
      N    8   -0.26418      0.99973     2.74860    0.01585     3.76418
      N    9   -0.33164      0.99977     2.81933    0.01254     3.83164
      C   10   -0.28167      0.99962     2.27389    0.00817     3.28167
      H   11    0.10170      0.00000     0.39634    0.00196     0.39830
      H   12    0.09897      0.00000     0.39896    0.00207     0.40103
      H   13    0.10234      0.00000     0.39622    0.00144     0.39766
      H   14    0.10179      0.00000     0.39659    0.00162     0.39821
      H   15    0.11061      0.00000     0.38761    0.00178     0.38939
      H   16    0.09698      0.00000     0.40117    0.00184     0.40302
      H   17    0.10955      0.00000     0.38929    0.00117     0.39045
      H   18    0.10297      0.00000     0.39588    0.00115     0.39703
      H   19    0.10983      0.00000     0.38887    0.00130     0.39017
      H   20    0.10321      0.00000     0.39498    0.00182     0.39679
      H   21    0.16755      0.00000     0.32819    0.00426     0.33245
      H   22    0.16977      0.00000     0.32761    0.00262     0.33023
      H   23    0.17389      0.00000     0.32391    0.00220     0.32611
      H   24    0.10100      0.00000     0.39744    0.00155     0.39900
      H   25    0.10283      0.00000     0.39576    0.00141     0.39717
      H   26    0.10090      0.00000     0.39738    0.00172     0.39910
 =======================================================================
   * Total *   -0.00000     13.99613    29.84489    0.15898    44.00000

 Normal termination of Gaussian 16 at Tue Dec  8 10:58:25 2020.
