 Gaussian 16, Revision A.03,

 -----------------------------------------------------------
 # opt freq B3LYP/6-31G(d) empiricaldispersion=gd3bj scf=xqc
 -----------------------------------------------------------

 -------------------------------
 CID_141887528_JID_4878_neutraal
 -------------------------------
 Symbolic Z-matrix:
 Charge =  0 Multiplicity = 1

 SCF Done:  E(RB3LYP) =  -546.785248057     A.U. after   13 cycles
 SCF Done:  E(RB3LYP) =  -546.787347428     A.U. after   12 cycles
 SCF Done:  E(RB3LYP) =  -546.787953185     A.U. after   12 cycles
 SCF Done:  E(RB3LYP) =  -546.788486187     A.U. after   11 cycles
 SCF Done:  E(RB3LYP) =  -546.788389123     A.U. after   11 cycles
 SCF Done:  E(RB3LYP) =  -546.788712408     A.U. after   11 cycles
 SCF Done:  E(RB3LYP) =  -546.788957254     A.U. after   11 cycles
 SCF Done:  E(RB3LYP) =  -546.789053553     A.U. after   12 cycles
 SCF Done:  E(RB3LYP) =  -546.789025138     A.U. after   11 cycles
 SCF Done:  E(RB3LYP) =  -546.789126409     A.U. after   11 cycles
 SCF Done:  E(RB3LYP) =  -546.789179124     A.U. after    7 cycles
 SCF Done:  E(RB3LYP) =  -546.789179335     A.U. after    7 cycles
 SCF Done:  E(RB3LYP) =  -546.789179464     A.U. after    7 cycles
 SCF Done:  E(RB3LYP) =  -546.789179654     A.U. after    7 cycles
 SCF Done:  E(RB3LYP) =  -546.789179754     A.U. after    6 cycles
 Optimization completed.
    -- Stationary point found.
 Normal termination of Gaussian 16 at Thu Dec 10 11:12:19 2020.

 --------------------------------------------------------------------
 #N Geom=AllCheck Guess=TCheck SCRF=Check GenChk RB3LYP/6-31G(d) Freq
 --------------------------------------------------------------------

 Structure from the checkpoint file:  "JID_4878.chk"
 -------------------------------
 CID_141887528_JID_4878_neutraal
 -------------------------------
 Charge =  0 Multiplicity = 1

 SCF Done:  E(RB3LYP) =  -546.789179754     A.U. after    1 cycles

  Exact polarizability: 137.389  12.078 146.819 -21.251   6.186 129.347
 Approx polarizability: 185.674  20.418 234.759 -37.932  11.499 201.252

                      1                      2                      3
                      A                      A                      A
 Frequencies --     19.7027                33.9520                42.2290
 Red. masses --      3.3122                 3.6911                 3.4662
 Frc consts  --      0.0008                 0.0025                 0.0036
 IR Inten    --      0.0176                 0.0029                 0.1631

                      4                      5                      6
                      A                      A                      A
 Frequencies --     56.5789                66.3571                79.5060
 Red. masses --      3.1398                 2.9771                 4.2141
 Frc consts  --      0.0059                 0.0077                 0.0157
 IR Inten    --      0.0161                 0.0178                 0.0487

                      7                      8                      9
                      A                      A                      A
 Frequencies --    108.8296               143.1042               177.5398
 Red. masses --      2.1036                 1.1024                 1.1343
 Frc consts  --      0.0147                 0.0133                 0.0211
 IR Inten    --      0.0228                 0.0575                 0.6694

                     10                     11                     12
                      A                      A                      A
 Frequencies --    183.0062               221.5455               230.1471
 Red. masses --      2.2301                 1.0969                 1.5722
 Frc consts  --      0.0440                 0.0317                 0.0491
 IR Inten    --      0.2669                 0.0553                 0.3946

                     13                     14                     15
                      A                      A                      A
 Frequencies --    261.2082               261.7964               308.0164
 Red. masses --      1.5571                 2.2873                 2.5077
 Frc consts  --      0.0626                 0.0924                 0.1402
 IR Inten    --      0.9348                 3.0947                 0.0486

                     16                     17                     18
                      A                      A                      A
 Frequencies --    342.8299               358.4254               370.1763
 Red. masses --      1.8522                 2.2672                 1.9737
 Frc consts  --      0.1283                 0.1716                 0.1594
 IR Inten    --      0.1698                 0.7671                 0.3323

                     19                     20                     21
                      A                      A                      A
 Frequencies --    412.7249               449.0310               481.7501
 Red. masses --      2.6630                 2.8936                 2.6295
 Frc consts  --      0.2673                 0.3438                 0.3596
 IR Inten    --      0.0706                 3.6081                 1.7370

                     22                     23                     24
                      A                      A                      A
 Frequencies --    512.7227               520.8151               593.1363
 Red. masses --      4.5906                 3.1981                 5.5155
 Frc consts  --      0.7110                 0.5111                 1.1433
 IR Inten    --      0.9052                 0.0300                 0.5827

                     25                     26                     27
                      A                      A                      A
 Frequencies --    688.5999               725.3459               755.7907
 Red. masses --      3.0208                 3.4869                 4.1824
 Frc consts  --      0.8439                 1.0809                 1.4076
 IR Inten    --      3.0856                 0.0173                 0.1916

                     28                     29                     30
                      A                      A                      A
 Frequencies --    760.6963               787.4826               804.6355
 Red. masses --      1.1757                 1.0699                 1.1364
 Frc consts  --      0.4008                 0.3909                 0.4335
 IR Inten    --     51.6986                 1.3798                 1.6660

                     31                     32                     33
                      A                      A                      A
 Frequencies --    840.5467               874.4753               878.7458
 Red. masses --      4.2195                 2.2701                 1.3012
 Frc consts  --      1.7565                 1.0228                 0.5920
 IR Inten    --      0.1322                 6.5232                 0.1292

                     34                     35                     36
                      A                      A                      A
 Frequencies --    904.2464               934.9438               936.8210
 Red. masses --      1.9128                 1.2755                 1.3211
 Frc consts  --      0.9215                 0.6569                 0.6831
 IR Inten    --      2.9133                 1.1689                 0.7622

                     37                     38                     39
                      A                      A                      A
 Frequencies --    961.8934               978.9755              1018.1980
 Red. masses --      1.7717                 1.2517                 1.4429
 Frc consts  --      0.9658                 0.7068                 0.8814
 IR Inten    --      6.2871                 0.0450                 4.3916

                     40                     41                     42
                      A                      A                      A
 Frequencies --   1022.1611              1023.6832              1032.9525
 Red. masses --      1.6739                 1.4199                 1.8609
 Frc consts  --      1.0304                 0.8767                 1.1699
 IR Inten    --      0.8638                 5.3710                 1.3250

                     43                     44                     45
                      A                      A                      A
 Frequencies --   1057.2672              1060.1702              1077.0200
 Red. masses --      1.3849                 1.4340                 1.4143
 Frc consts  --      0.9121                 0.9496                 0.9666
 IR Inten    --     10.9780                 8.9601                 1.2733

                     46                     47                     48
                      A                      A                      A
 Frequencies --   1085.7857              1086.0391              1098.8003
 Red. masses --      2.0189                 1.6347                 1.5715
 Frc consts  --      1.4024                 1.1360                 1.1179
 IR Inten    --      3.5164                 0.2277                 1.2556

                     49                     50                     51
                      A                      A                      A
 Frequencies --   1119.1978              1153.2560              1156.4278
 Red. masses --      1.8051                 1.7348                 1.9637
 Frc consts  --      1.3322                 1.3594                 1.5473
 IR Inten    --      1.2560                 1.9224                 6.3355

                     52                     53                     54
                      A                      A                      A
 Frequencies --   1195.5219              1198.9291              1215.4537
 Red. masses --      1.1837                 1.2281                 2.5140
 Frc consts  --      0.9968                 1.0401                 2.1883
 IR Inten    --      0.0581                 0.2868                 0.0661

                     55                     56                     57
                      A                      A                      A
 Frequencies --   1261.4956              1288.0888              1329.4654
 Red. masses --      2.6486                 1.4776                 1.4707
 Frc consts  --      2.4834                 1.4445                 1.5316
 IR Inten    --      0.8634                 0.0484                 0.7716

                     58                     59                     60
                      A                      A                      A
 Frequencies --   1330.2536              1356.0627              1375.9530
 Red. masses --      1.8494                 6.5951                 1.7456
 Frc consts  --      1.9282                 7.1455                 1.9472
 IR Inten    --      1.4883                 0.1440                 3.0691

                     61                     62                     63
                      A                      A                      A
 Frequencies --   1404.6933              1438.6766              1441.2162
 Red. masses --      1.7133                 1.2632                 1.2783
 Frc consts  --      1.9918                 1.5405                 1.5644
 IR Inten    --      0.6529                 0.8739                 1.9924

                     64                     65                     66
                      A                      A                      A
 Frequencies --   1446.1583              1450.6344              1489.2011
 Red. masses --      1.3090                 1.2303                 1.6631
 Frc consts  --      1.6130                 1.5253                 2.1731
 IR Inten    --      3.7808                 1.7373                 0.0403

                     67                     68                     69
                      A                      A                      A
 Frequencies --   1494.4926              1506.4659              1510.1949
 Red. masses --      1.0892                 1.0456                 1.0685
 Frc consts  --      1.4334                 1.3981                 1.4358
 IR Inten    --      2.3992                 0.6757                 1.8387

                     70                     71                     72
                      A                      A                      A
 Frequencies --   1521.5066              1522.9897              1524.8322
 Red. masses --      1.0477                 1.1573                 1.0936
 Frc consts  --      1.4291                 1.5816                 1.4982
 IR Inten    --     16.1042                 0.4809                 3.6197

                     73                     74                     75
                      A                      A                      A
 Frequencies --   1527.2250              1528.4832              1535.4424
 Red. masses --      1.2761                 1.0590                 1.1472
 Frc consts  --      1.7537                 1.4576                 1.5936
 IR Inten    --     16.0874                 4.1201                 3.5337

                     76                     77                     78
                      A                      A                      A
 Frequencies --   1538.9058              1542.3368              1545.9155
 Red. masses --      1.1272                 1.2509                 1.8364
 Frc consts  --      1.5728                 1.7533                 2.5858
 IR Inten    --      4.2780                 0.7044                13.9426

                     79                     80                     81
                      A                      A                      A
 Frequencies --   1640.9120              1671.1466              3019.6913
 Red. masses --      5.6077                 5.7382                 1.0615
 Frc consts  --      8.8962                 9.4418                 5.7029
 IR Inten    --      0.0799                 2.2838                45.2224

                     82                     83                     84
                      A                      A                      A
 Frequencies --   3035.7530              3037.3301              3039.8825
 Red. masses --      1.0393                 1.0383                 1.0389
 Frc consts  --      5.6434                 5.6439                 5.6565
 IR Inten    --     11.1280                37.5000                35.9674

                     85                     86                     87
                      A                      A                      A
 Frequencies --   3053.6455              3056.5478              3082.3225
 Red. masses --      1.0558                 1.0815                 1.0997
 Frc consts  --      5.8005                 5.9528                 6.1558
 IR Inten    --     14.4925                34.0404                43.6490

                     88                     89                     90
                      A                      A                      A
 Frequencies --   3084.6567              3099.4400              3111.8217
 Red. masses --      1.1000                 1.0998                 1.1013
 Frc consts  --      6.1669                 6.2248                 6.2831
 IR Inten    --      6.2796                27.3158                45.1482

                     91                     92                     93
                      A                      A                      A
 Frequencies --   3124.2404              3126.9958              3128.3649
 Red. masses --      1.0986                 1.0996                 1.0993
 Frc consts  --      6.3179                 6.3349                 6.3389
 IR Inten    --     41.3417                26.3829                 1.9993

                     94                     95                     96
                      A                      A                      A
 Frequencies --   3136.6197              3141.5910              3144.3595
 Red. masses --      1.0521                 1.0998                 1.0578
 Frc consts  --      6.0985                 6.3953                 6.1619
 IR Inten    --     34.5704                15.0080                15.5822

                     97                     98                     99
                      A                      A                      A
 Frequencies --   3175.0387              3180.9007              3193.5321
 Red. masses --      1.0859                 1.0883                 1.0919
 Frc consts  --      6.4498                 6.4876                 6.5609
 IR Inten    --     12.7433                 2.4824                34.0418

                    100                    101                    102
                      A                      A                      A
 Frequencies --   3208.5741              3210.0733              3225.1497
 Red. masses --      1.0976                 1.1187                 1.1159
 Frc consts  --      6.6578                 6.7922                 6.8390
 IR Inten    --     22.5136                 2.3663                25.9672

 - Thermochemistry -
 -------------------
 Temperature   298.150 Kelvin.  Pressure   1.00000 Atm.
 Atom     1 has atomic number  6 and mass  12.00000

 Molecular mass:   190.17215 amu.
 Principal axes and moments of inertia in atomic units:
                           1         2         3
     Eigenvalues --  1836.087474394.744754630.60026
           X            0.99983   0.01653  -0.00783
           Y           -0.01610   0.99852   0.05195
           Z            0.00868  -0.05182   0.99862
 This molecule is an asymmetric top.
 Rotational symmetry number  1.
 Warning -- assumption of classical behavior for rotation
           may cause significant error
 Rotational temperatures (Kelvin)      0.04717     0.01971     0.01870
 Rotational constants (GHZ):           0.98293     0.41066     0.38974
 Zero-point vibrational energy     852390.0 (Joules/Mol)
                                  203.72609 (Kcal/Mol)
 Warning -- explicit consideration of  24 degrees of freedom as
           vibrations may cause significant error
 Vibrational temperatures:     28.35    48.85    60.76    81.40    95.47
          (Kelvin)            114.39   156.58   205.90   255.44   263.31
                              318.75   331.13   375.82   376.67   443.17
                              493.26   515.69   532.60   593.82   646.06
                              693.13   737.69   749.34   853.39   990.74
                             1043.61  1087.41  1094.47  1133.01  1157.69
                             1209.36  1258.17  1264.32  1301.01  1345.18
                             1347.88  1383.95  1408.53  1464.96  1470.66
                             1472.85  1486.19  1521.17  1525.35  1549.59
                             1562.20  1562.57  1580.93  1610.28  1659.28
                             1663.84  1720.09  1724.99  1748.77  1815.01
                             1853.27  1912.80  1913.94  1951.07  1979.69
                             2021.04  2069.93  2073.59  2080.70  2087.14
                             2142.63  2150.24  2167.47  2172.83  2189.11
                             2191.24  2193.89  2197.34  2199.15  2209.16
                             2214.14  2219.08  2224.23  2360.91  2404.41
                             4344.66  4367.77  4370.04  4373.71  4393.51
                             4397.69  4434.77  4438.13  4459.40  4477.22
                             4495.09  4499.05  4501.02  4512.90  4520.05
                             4524.03  4568.17  4576.61  4594.78  4616.42
                             4618.58  4640.27

 Zero-point correction=                           0.324658 (Hartree/Particle)
 Thermal correction to Energy=                    0.341454
 Thermal correction to Enthalpy=                  0.342398
 Thermal correction to Gibbs Free Energy=         0.278503
 Sum of electronic and zero-point Energies=           -546.464522
 Sum of electronic and thermal Energies=              -546.447726
 Sum of electronic and thermal Enthalpies=            -546.446782
 Sum of electronic and thermal Free Energies=         -546.510676

                     E (Thermal)             CV                S
                      KCal/Mol        Cal/Mol-Kelvin    Cal/Mol-Kelvin
 Total                  214.265             61.504            134.478
 Electronic               0.000              0.000              0.000
 Translational            0.889              2.981             41.634
 Rotational               0.889              2.981             31.991
 Vibrational            212.488             55.543             60.853
 Vibration     1          0.593              1.986              6.664
 Vibration     2          0.594              1.983              5.584
 Vibration     3          0.595              1.980              5.152
 Vibration     4          0.596              1.975              4.573
 Vibration     5          0.598              1.970              4.259
 Vibration     6          0.600              1.963              3.903
 Vibration     7          0.606              1.942              3.290
 Vibration     8          0.616              1.910              2.762
 Vibration     9          0.628              1.870              2.354
 Vibration    10          0.631              1.863              2.298
 Vibration    11          0.648              1.808              1.946
 Vibration    12          0.652              1.795              1.878
 Vibration    13          0.669              1.744              1.654
 Vibration    14          0.669              1.743              1.650
 Vibration    15          0.698              1.658              1.373
 Vibration    16          0.722              1.590              1.199
 Vibration    17          0.733              1.558              1.129
 Vibration    18          0.742              1.533              1.079
 Vibration    19          0.777              1.443              0.917
 Vibration    20          0.808              1.363              0.799
 Vibration    21          0.838              1.291              0.705
 Vibration    22          0.868              1.222              0.627
 Vibration    23          0.876              1.204              0.608
 Vibration    24          0.951              1.046              0.462

                           ! Non-Optimized Parameters !
 Normal termination of Gaussian 16 at Thu Dec 10 11:24:49 2020.

 ----------------------------------------------------------------------
 # B3LYP/6-311++G(d,p) empiricaldispersion=gd3bj scf=xqc pop=npa geom=c
 heck
 ----------------------------------------------------------------------

 ---------------------------------------
 CID_141887528_JID_4878_Energie_neutraal
 ---------------------------------------
 Structure from the checkpoint file:  "JID_4878.chk"
 Charge =  0 Multiplicity = 1

 SCF Done:  E(RB3LYP) =  -546.935614010     A.U. after   13 cycles
 Normal termination of Gaussian 16 at Thu Dec 10 11:30:26 2020.

 ----------------------------------------------------------------------
 # B3LYP/6-311++G(d,p) empiricaldispersion=gd3bj scf=xqc pop=npa geom=c
 heck
 ----------------------------------------------------------------------

 -------------------------------------
 CID_141887528_JID_4878_Energie_kation
 -------------------------------------
 Structure from the checkpoint file:  "JID_4878.chk"
 Charge =  1 Multiplicity = 2

 SCF Done:  E(UB3LYP) =  -546.629666835     A.U. after   25 cycles
 Normal termination of Gaussian 16 at Thu Dec 10 11:45:43 2020.
 Gaussian 16:  ES64L-G16RevA.03 25-Dec-2016

 ----------------------------------------------------------------------
 # B3LYP/6-311++G(d,p) empiricaldispersion=gd3bj scf=xqc pop=npa geom=c
 heck
 ----------------------------------------------------------------------

 ------------------------------------
 CID_141887528_JID_4878_Energie_anion
 ------------------------------------
 Structure from the checkpoint file:  "JID_4878.chk"
 Charge = -1 Multiplicity = 2

                         Standard orientation:
 ---------------------------------------------------------------------
 Center     Atomic      Atomic             Coordinates (Angstroms)
 Number     Number       Type             X           Y           Z
 ---------------------------------------------------------------------
      1          6           0        0.753562   -0.608592    1.830319
      2          6           0        2.258284   -0.538866    1.551299
      3          6           0        2.604046   -0.302899    0.087294
      4          6           0        2.548545    1.117858   -0.419453
      5          6           0        3.884984    0.441111   -0.212186
      6          6           0        2.194780   -1.410425   -0.865239
      7          6           0       -1.732597   -1.774781   -1.452589
      8          6           0       -1.713956   -0.389003   -0.857483
      9          6           0       -0.933148    0.616277   -1.433792
     10          6           0       -0.888533    1.901766   -0.893476
     11          6           0       -1.639042    2.195754    0.242245
     12          6           0       -2.423220    1.199245    0.825309
     13          6           0       -2.471145   -0.092845    0.294803
     14          6           0       -3.307187   -1.158104    0.958433
     15          1           0        0.284754   -1.449844    1.308536
     16          1           0        0.249758    0.303207    1.496753
     17          1           0        0.559209   -0.735556    2.901596
     18          1           0        2.696496    0.269835    2.151373
     19          1           0        2.743635   -1.466648    1.888367
     20          1           0        2.211740    1.286640   -1.438555
     21          1           0        2.249698    1.897573    0.276161
     22          1           0        4.498921    0.764385    0.624877
     23          1           0        4.454218    0.152484   -1.092411
     24          1           0        2.653289   -2.365744   -0.578120
     25          1           0        1.108514   -1.546333   -0.875933
     26          1           0        2.509566   -1.184566   -1.890436
     27          1           0       -2.747224   -2.082206   -1.736034
     28          1           0       -1.103937   -1.828834   -2.346068
     29          1           0       -1.365080   -2.524748   -0.739797
     30          1           0       -0.344126    0.383671   -2.317286
     31          1           0       -0.268971    2.664017   -1.356927
     32          1           0       -1.615704    3.191948    0.675144
     33          1           0       -3.006532    1.424871    1.714882
     34          1           0       -3.836490   -0.758892    1.828522
     35          1           0       -4.055223   -1.575830    0.272588
     36          1           0       -2.688749   -1.998399    1.299867
 ---------------------------------------------------------------------

 SCF Done:  E(UB3LYP) =  -546.919985120     A.U. after   33 cycles
 SCF Done:  E(UB3LYP) =  -546.919985121     a.u. after    1 cycles

 The electronic state is 2-A.
 Alpha  occ. eigenvalues --  -10.08387 -10.08243 -10.08193 -10.07423 -10.07363
 Alpha  occ. eigenvalues --  -10.07227 -10.07213 -10.07076 -10.06826 -10.06780
 Alpha  occ. eigenvalues --  -10.06732 -10.06724 -10.06016 -10.05003  -0.76951
 Alpha  occ. eigenvalues --   -0.76322  -0.68068  -0.66562  -0.65617  -0.60753
 Alpha  occ. eigenvalues --   -0.60004  -0.57620  -0.52986  -0.50359  -0.49981
 Alpha  occ. eigenvalues --   -0.47740  -0.43818  -0.40481  -0.38508  -0.37546
 Alpha  occ. eigenvalues --   -0.36910  -0.35102  -0.33817  -0.33626  -0.31820
 Alpha  occ. eigenvalues --   -0.31653  -0.30802  -0.30030  -0.29406  -0.28917
 Alpha  occ. eigenvalues --   -0.28805  -0.28383  -0.27611  -0.26130  -0.25580
 Alpha  occ. eigenvalues --   -0.24083  -0.24009  -0.23899  -0.22846  -0.19007
 Alpha  occ. eigenvalues --   -0.17352  -0.15162  -0.14314   0.04375
 Alpha virt. eigenvalues --    0.06440   0.06667   0.07187   0.08246   0.08308
 Alpha virt. eigenvalues --    0.08619   0.08779   0.09071   0.09306   0.10223
 Alpha virt. eigenvalues --    0.10340   0.10870   0.11344   0.11663   0.12360

  Beta  occ. eigenvalues --  -10.08386 -10.08240 -10.08189 -10.07414 -10.07356
  Beta  occ. eigenvalues --  -10.07216 -10.07205 -10.07066 -10.06813 -10.06746
  Beta  occ. eigenvalues --  -10.06720 -10.06689 -10.05991 -10.04984  -0.76942
  Beta  occ. eigenvalues --   -0.76305  -0.68042  -0.66537  -0.65595  -0.60716
  Beta  occ. eigenvalues --   -0.59957  -0.57567  -0.52942  -0.50321  -0.49943
  Beta  occ. eigenvalues --   -0.47701  -0.43778  -0.40433  -0.38492  -0.37526
  Beta  occ. eigenvalues --   -0.36880  -0.35058  -0.33783  -0.33601  -0.31792
  Beta  occ. eigenvalues --   -0.31626  -0.30758  -0.29998  -0.29382  -0.28882
  Beta  occ. eigenvalues --   -0.28772  -0.28358  -0.27584  -0.26107  -0.25557
  Beta  occ. eigenvalues --   -0.24052  -0.23978  -0.23880  -0.22825  -0.18988
  Beta  occ. eigenvalues --   -0.17336  -0.15147  -0.14293
  Beta virt. eigenvalues --    0.06351   0.07163   0.07407   0.07702   0.08399
  Beta virt. eigenvalues --    0.08606   0.08814   0.09143   0.09457   0.09809
  Beta virt. eigenvalues --    0.10448   0.10768   0.11191   0.11744   0.12140

 Mulliken charges and spin densities:
               1          2
     1  C   -0.341932  -0.099504
     2  C   -0.452837  -0.239224
     3  C   -0.617540   1.629247
     4  C    0.503388  -0.874931
     5  C    0.493007  -0.830428
     6  C   -0.336431  -0.574227
     7  C    1.668458  -2.291438
     8  C   -2.001179   2.337733
     9  C    0.151160  -0.325323
    10  C    0.719767  -0.965816
    11  C    0.619865  -1.099772
    12  C    0.280745  -0.533565
    13  C   -2.444584   2.917138
    14  C    2.405653  -3.037480
    15  H   -0.059609   0.166775
    16  H    0.322700  -0.112553
    17  H   -0.304973   0.468966
    18  H   -0.084860   0.201971
    19  H   -0.015945   0.155665
    20  H    0.086311   0.052457
    21  H    0.127950   0.032526
    22  H   -0.012312   0.145337
    23  H   -0.029447   0.161159
    24  H   -0.264520   0.408887
    25  H    1.344745  -1.181267
    26  H   -0.290185   0.424212
    27  H   -0.302314   0.459772
    28  H   -0.367387   0.509352
    29  H   -0.106953   0.276133
    30  H   -0.252348   0.433306
    31  H   -0.189570   0.347903
    32  H   -0.332953   0.492623
    33  H   -0.315205   0.479788
    34  H   -0.490783   0.638603
    35  H   -0.047252   0.200988
    36  H   -0.062630   0.224985
 Sum of Mulliken charges =  -1.00000   1.00000

 Dipole moment (field-independent basis, Debye):
    X=              2.5741    Y=              1.5784    Z=             -0.3783  Tot=              3.0431
 Quadrupole moment (field-independent basis, Debye-Ang):
   XX=           -156.0863   YY=           -136.7322   ZZ=           -136.3444
   XY=             -3.1400   XZ=              5.4481   YZ=             -2.0492

 Summary of Natural Population Analysis:

                                       Natural Population
                Natural  -----------------------------------------------
    Atom  No    Charge         Core      Valence    Rydberg      Total
 -----------------------------------------------------------------------
      C    1   -0.28606      0.99966     2.28099    0.00541     3.28606
      C    2   -0.18160      0.99959     2.17382    0.00819     3.18160
      C    3   -0.04792      0.99956     2.03646    0.01189     3.04792
      C    4   -0.19465      0.99958     2.18590    0.00916     3.19465
      C    5   -0.19610      0.99958     2.18878    0.00774     3.19610
      C    6   -0.28001      0.99961     2.27390    0.00649     3.28001
      C    7   -0.29610      0.99964     2.29017    0.00630     3.29610
      C    8   -0.01636      0.99947     2.00606    0.01083     3.01636
      C    9   -0.09799      0.99951     2.08873    0.00975     3.09799
      C   10   -0.10293      0.99956     2.09362    0.00976     3.10293
      C   11   -0.10480      0.99956     2.09492    0.01033     3.10480
      C   12   -0.09928      0.99951     2.08985    0.00992     3.09928
      C   13   -0.01488      0.99947     2.00469    0.01072     3.01488
      C   14   -0.29412      0.99964     2.28865    0.00583     3.29412
      H   15    0.09587      0.00000     0.40250    0.00163     0.40413
      H   16    0.10330      0.00000     0.39408    0.00263     0.39670
      H   17    0.09633      0.00000     0.40276    0.00092     0.40367
      H   18    0.09418      0.00000     0.40458    0.00124     0.40582
      H   19    0.09380      0.00000     0.40517    0.00102     0.40620
      H   20    0.10178      0.00000     0.39701    0.00120     0.39822
      H   21    0.10293      0.00000     0.39586    0.00121     0.39707
      H   22    0.09894      0.00000     0.40007    0.00099     0.40106
      H   23    0.09947      0.00000     0.39957    0.00096     0.40053
      H   24    0.09748      0.00000     0.40150    0.00102     0.40252
      H   25    0.10238      0.00000     0.39582    0.00180     0.39762
      H   26    0.09887      0.00000     0.39983    0.00130     0.40113
      H   27    0.10593      0.00000     0.39285    0.00122     0.39407
      H   28    0.10377      0.00000     0.39500    0.00123     0.39623
      H   29    0.10496      0.00000     0.39362    0.00142     0.39504
      H   30    0.09962      0.00000     0.39870    0.00168     0.40038
      H   31    0.09982      0.00000     0.39873    0.00146     0.40018
      H   32    0.10028      0.00000     0.39876    0.00096     0.39972
      H   33    0.09977      0.00000     0.39913    0.00110     0.40023
      H   34    0.10307      0.00000     0.39570    0.00123     0.39693
      H   35    0.10438      0.00000     0.39442    0.00120     0.39562
      H   36    0.10587      0.00000     0.39272    0.00142     0.39413
 =======================================================================
   * Total *    0.00000     13.99393    38.85492    0.15114    53.00000

 Normal termination of Gaussian 16 at Thu Dec 10 12:05:48 2020.
