 Gaussian 16, Revision A.03,

 -----------------------------------------------------------
 # opt freq B3LYP/6-31G(d) empiricaldispersion=gd3bj scf=xqc
 -----------------------------------------------------------

 -------------------------------
 CID_141200186_JID_2305_neutraal
 -------------------------------
 Symbolic Z-matrix:
 Charge =  0 Multiplicity = 1

 SCF Done:  E(RB3LYP) =  -542.288858392     A.U. after   13 cycles
 SCF Done:  E(RB3LYP) =  -542.291885855     A.U. after   12 cycles
 SCF Done:  E(RB3LYP) =  -542.292080825     A.U. after   10 cycles
 SCF Done:  E(RB3LYP) =  -542.292052011     A.U. after   11 cycles
 SCF Done:  E(RB3LYP) =  -542.292145497     A.U. after   10 cycles
 SCF Done:  E(RB3LYP) =  -542.292156854     A.U. after    8 cycles
 SCF Done:  E(RB3LYP) =  -542.292159771     A.U. after    9 cycles
 SCF Done:  E(RB3LYP) =  -542.292161261     A.U. after    9 cycles
 SCF Done:  E(RB3LYP) =  -542.292162230     A.U. after    9 cycles
 SCF Done:  E(RB3LYP) =  -542.292162692     A.U. after    9 cycles
 SCF Done:  E(RB3LYP) =  -542.292162796     A.U. after    6 cycles
 SCF Done:  E(RB3LYP) =  -542.292162785     A.U. after    6 cycles
 Optimization completed.
    -- Stationary point found.
 Normal termination of Gaussian 16 at Wed Dec  9 17:00:43 2020.

 --------------------------------------------------------------------
 #N Geom=AllCheck Guess=TCheck SCRF=Check GenChk RB3LYP/6-31G(d) Freq
 --------------------------------------------------------------------

 Structure from the checkpoint file:  "JID_2305.chk"
 -------------------------------
 CID_141200186_JID_2305_neutraal
 -------------------------------
 Charge =  0 Multiplicity = 1

 SCF Done:  E(RB3LYP) =  -542.292162785     A.U. after    1 cycles

  Exact polarizability: 122.855   0.419 102.055  -3.521  -1.876  94.689
 Approx polarizability: 149.394   5.729 147.733  -5.059   0.084 149.798

                      1                      2                      3
                      A                      A                      A
 Frequencies --     23.6311                58.2679                99.7963
 Red. masses --      2.4896                 3.2026                 3.0944
 Frc consts  --      0.0008                 0.0064                 0.0182
 IR Inten    --      0.1605                 1.0506                 1.2878

                      4                      5                      6
                      A                      A                      A
 Frequencies --    123.2242               146.8581               193.7624
 Red. masses --      2.3129                 2.3640                 1.9072
 Frc consts  --      0.0207                 0.0300                 0.0422
 IR Inten    --      0.4228                 0.4527                 0.0947

                      7                      8                      9
                      A                      A                      A
 Frequencies --    219.1549               267.2094               299.5808
 Red. masses --      3.5636                 1.7676                 2.3217
 Frc consts  --      0.1008                 0.0744                 0.1228
 IR Inten    --      1.6874                 0.2718                 1.4350

                     10                     11                     12
                      A                      A                      A
 Frequencies --    336.9318               366.7056               376.2121
 Red. masses --      2.3064                 1.9713                 2.3092
 Frc consts  --      0.1543                 0.1562                 0.1926
 IR Inten    --      0.3198                 1.2102                 3.7062

                     13                     14                     15
                      A                      A                      A
 Frequencies --    434.7716               454.1706               482.5140
 Red. masses --      2.0557                 3.9403                 2.9364
 Frc consts  --      0.2289                 0.4789                 0.4028
 IR Inten    --      3.1834                 0.7342                 0.5187

                     16                     17                     18
                      A                      A                      A
 Frequencies --    492.0919               607.9328               644.1094
 Red. masses --      2.2524                 2.3791                 3.2167
 Frc consts  --      0.3214                 0.5180                 0.7863
 IR Inten    --      1.1209                 1.0459                 1.7257

                     19                     20                     21
                      A                      A                      A
 Frequencies --    763.0964               783.2570               817.0652
 Red. masses --      1.2593                 2.0154                 2.5034
 Frc consts  --      0.4321                 0.7285                 0.9847
 IR Inten    --     13.2993                 0.6241                 0.4373

                     22                     23                     24
                      A                      A                      A
 Frequencies --    832.0971               860.6578               881.3202
 Red. masses --      2.4897                 2.6096                 1.6292
 Frc consts  --      1.0156                 1.1389                 0.7456
 IR Inten    --      6.3011                 0.8028                 9.7358

                     25                     26                     27
                      A                      A                      A
 Frequencies --    895.2291               902.0562               914.4023
 Red. masses --      2.9098                 2.6007                 2.3125
 Frc consts  --      1.3740                 1.2468                 1.1392
 IR Inten    --      4.6595                 2.9753                 2.4254

                     28                     29                     30
                      A                      A                      A
 Frequencies --    936.6438               958.9322               983.1102
 Red. masses --      1.8981                 2.8228                 2.1861
 Frc consts  --      0.9811                 1.5293                 1.2449
 IR Inten    --      4.2440                 7.4441                 7.4032

                     31                     32                     33
                      A                      A                      A
 Frequencies --    998.6954              1027.2644              1071.3351
 Red. masses --      1.8481                 2.1352                 1.9133
 Frc consts  --      1.0860                 1.3276                 1.2939
 IR Inten    --      3.6681                30.8784                 2.9864

                     34                     35                     36
                      A                      A                      A
 Frequencies --   1082.4943              1093.4140              1103.4058
 Red. masses --      2.1250                 1.8680                 1.7698
 Frc consts  --      1.4671                 1.3158                 1.2696
 IR Inten    --      2.0277                 0.6934                 4.3285

                     37                     38                     39
                      A                      A                      A
 Frequencies --   1128.9506              1144.4405              1153.4123
 Red. masses --      1.9266                 2.2595                 2.0082
 Frc consts  --      1.4468                 1.7436                 1.5741
 IR Inten    --      5.2919                 2.7203                 5.6286

                     40                     41                     42
                      A                      A                      A
 Frequencies --   1182.4102              1197.6977              1232.5072
 Red. masses --      1.5559                 1.3923                 1.5329
 Frc consts  --      1.2816                 1.1767                 1.3720
 IR Inten    --      9.2942                 6.1947                 3.3436

                     43                     44                     45
                      A                      A                      A
 Frequencies --   1259.5827              1295.9386              1309.9622
 Red. masses --      1.5301                 1.3361                 1.3583
 Frc consts  --      1.4303                 1.3221                 1.3733
 IR Inten    --      3.3408                 3.7451                 4.3571

                     46                     47                     48
                      A                      A                      A
 Frequencies --   1314.6212              1322.4135              1355.5087
 Red. masses --      1.3074                 1.4138                 1.2055
 Frc consts  --      1.3312                 1.4567                 1.3051
 IR Inten    --      3.2305                 0.6747                 3.8430

                     49                     50                     51
                      A                      A                      A
 Frequencies --   1377.4674              1387.3094              1392.2102
 Red. masses --      1.3896                 1.3780                 1.5453
 Frc consts  --      1.5535                 1.5626                 1.7647
 IR Inten    --      4.6881                 3.1266                 3.4926

                     52                     53                     54
                      A                      A                      A
 Frequencies --   1393.4939              1407.1511              1410.9871
 Red. masses --      1.3736                 1.5291                 1.4731
 Frc consts  --      1.5715                 1.7839                 1.7279
 IR Inten    --      0.8519                 2.0353                 1.5227

                     55                     56                     57
                      A                      A                      A
 Frequencies --   1419.3628              1422.7591              1443.3711
 Red. masses --      1.4508                 1.6009                 1.2593
 Frc consts  --      1.7220                 1.9093                 1.5457
 IR Inten    --      1.1471                 1.3770                 4.7900

                     58                     59                     60
                      A                      A                      A
 Frequencies --   1496.9778              1508.3654              1514.5428
 Red. masses --      1.0849                 1.0815                 1.0892
 Frc consts  --      1.4325                 1.4497                 1.4720
 IR Inten    --      5.4691                 3.6397                 3.5167

                     61                     62                     63
                      A                      A                      A
 Frequencies --   1521.1818              1522.3832              1523.9724
 Red. masses --      1.0773                 1.0833                 1.0586
 Frc consts  --      1.4687                 1.4792                 1.4486
 IR Inten    --      3.6992                 5.1273                 0.5817

                     64                     65                     66
                      A                      A                      A
 Frequencies --   1531.4725              1535.4371              1540.7127
 Red. masses --      1.0933                 1.0595                 1.0713
 Frc consts  --      1.5108                 1.4717                 1.4984
 IR Inten    --      1.1938                10.2230                 3.5752

                     67                     68                     69
                      A                      A                      A
 Frequencies --   3024.9116              3036.0974              3039.5544
 Red. masses --      1.0686                 1.0649                 1.0597
 Frc consts  --      5.7609                 5.7837                 5.7684
 IR Inten    --     26.1624                17.1275                25.3644

                     70                     71                     72
                      A                      A                      A
 Frequencies --   3042.5910              3045.3277              3050.8368
 Red. masses --      1.0578                 1.0521                 1.0610
 Frc consts  --      5.7693                 5.7487                 5.8185
 IR Inten    --      4.1129                43.1348                28.3844

                     73                     74                     75
                      A                      A                      A
 Frequencies --   3051.3734              3057.0069              3071.0977
 Red. masses --      1.0621                 1.0639                 1.0866
 Frc consts  --      5.8263                 5.8579                 6.0379
 IR Inten    --     12.9732                18.6135                24.9960

                     76                     77                     78
                      A                      A                      A
 Frequencies --   3076.1273              3084.0610              3086.0623
 Red. masses --      1.0962                 1.0988                 1.0928
 Frc consts  --      6.1115                 6.1574                 6.1322
 IR Inten    --     27.1361                42.3162                27.8069

                     79                     80                     81
                      A                      A                      A
 Frequencies --   3090.1671              3091.0946              3096.8036
 Red. masses --      1.0963                 1.0998                 1.1039
 Frc consts  --      6.1680                 6.1913                 6.2372
 IR Inten    --     30.8462                 6.6598                38.6989

                     82                     83                     84
                      A                      A                      A
 Frequencies --   3106.3011              3112.7503              3113.8200
 Red. masses --      1.1039                 1.1020                 1.1007
 Frc consts  --      6.2758                 6.2908                 6.2880
 IR Inten    --     47.6965                72.3328                50.6939

 - Thermochemistry -
 -------------------
 Temperature   298.150 Kelvin.  Pressure   1.00000 Atm.
 Atom     1 has atomic number  6 and mass  12.00000

 Molecular mass:   170.13068 amu.
 Principal axes and moments of inertia in atomic units:
                           1         2         3
     Eigenvalues --  1162.862873028.342323566.11350
           X            0.99991  -0.01308   0.00067
           Y            0.01310   0.99961  -0.02462
           Z           -0.00034   0.02463   0.99970
 This molecule is an asymmetric top.
 Rotational symmetry number  1.
 Warning -- assumption of classical behavior for rotation
           may cause significant error
 Rotational temperatures (Kelvin)      0.07448     0.02860     0.02429
 Rotational constants (GHZ):           1.55198     0.59595     0.50608
 Zero-point vibrational energy     712101.0 (Joules/Mol)
                                  170.19622 (Kcal/Mol)
 Warning -- explicit consideration of  17 degrees of freedom as
           vibrations may cause significant error
 Vibrational temperatures:     34.00    83.83   143.58   177.29   211.30
          (Kelvin)            278.78   315.32   384.45   431.03   484.77
                              527.61   541.29   625.54   653.45   694.23
                              708.01   874.68   926.73  1097.93  1126.93
                             1175.57  1197.20  1238.29  1268.02  1288.04
                             1297.86  1315.62  1347.62  1379.69  1414.48
                             1436.90  1478.00  1541.41  1557.47  1573.18
                             1587.55  1624.31  1646.59  1659.50  1701.22
                             1723.22  1773.30  1812.26  1864.57  1884.74
                             1891.45  1902.66  1950.27  1981.87  1996.03
                             2003.08  2004.93  2024.58  2030.10  2042.15
                             2047.03  2076.69  2153.82  2170.20  2179.09
                             2188.64  2190.37  2192.66  2203.45  2209.15
                             2216.74  4352.17  4368.27  4373.24  4377.61
                             4381.55  4389.47  4390.25  4398.35  4418.62
                             4425.86  4437.28  4440.16  4446.06  4447.40
                             4455.61  4469.27  4478.55  4480.09

 Zero-point correction=                           0.271225 (Hartree/Particle)
 Thermal correction to Energy=                    0.283362
 Thermal correction to Enthalpy=                  0.284306
 Thermal correction to Gibbs Free Energy=         0.232200
 Sum of electronic and zero-point Energies=           -542.020938
 Sum of electronic and thermal Energies=              -542.008801
 Sum of electronic and thermal Enthalpies=            -542.007857
 Sum of electronic and thermal Free Energies=         -542.059963

                     E (Thermal)             CV                S
                      KCal/Mol        Cal/Mol-Kelvin    Cal/Mol-Kelvin
 Total                  177.812             46.811            109.666
 Electronic               0.000              0.000              0.000
 Translational            0.889              2.981             41.302
 Rotational               0.889              2.981             30.908
 Vibrational            176.035             40.849             37.456
 Vibration     1          0.593              1.985              6.303
 Vibration     2          0.596              1.974              4.515
 Vibration     3          0.604              1.949              3.458
 Vibration     4          0.610              1.930              3.049
 Vibration     5          0.617              1.906              2.713
 Vibration     6          0.635              1.849              2.192
 Vibration     7          0.647              1.812              1.966
 Vibration     8          0.672              1.733              1.614
 Vibration     9          0.692              1.674              1.419
 Vibration    10          0.718              1.602              1.227
 Vibration    11          0.740              1.541              1.094
 Vibration    12          0.747              1.521              1.054
 Vibration    13          0.795              1.394              0.843
 Vibration    14          0.813              1.352              0.783
 Vibration    15          0.839              1.289              0.703
 Vibration    16          0.848              1.268              0.678
 Vibration    17          0.967              1.015              0.436

                           ! Non-Optimized Parameters !
 Normal termination of Gaussian 16 at Wed Dec  9 17:09:05 2020.

 ----------------------------------------------------------------------
 # B3LYP/6-311++G(d,p) empiricaldispersion=gd3bj scf=xqc pop=npa geom=c
 heck
 ----------------------------------------------------------------------

 ---------------------------------------
 CID_141200186_JID_2305_Energie_neutraal
 ---------------------------------------
 Structure from the checkpoint file:  "JID_2305.chk"
 Charge =  0 Multiplicity = 1

 SCF Done:  E(RB3LYP) =  -542.441688068     A.U. after   14 cycles
 Normal termination of Gaussian 16 at Wed Dec  9 17:13:04 2020.

 ----------------------------------------------------------------------
 # B3LYP/6-311++G(d,p) empiricaldispersion=gd3bj scf=xqc pop=npa geom=c
 heck
 ----------------------------------------------------------------------

 -------------------------------------
 CID_141200186_JID_2305_Energie_kation
 -------------------------------------
 Structure from the checkpoint file:  "JID_2305.chk"
 Charge =  1 Multiplicity = 2

 SCF Done:  E(UB3LYP) =  -542.120708821     A.U. after   24 cycles
 Normal termination of Gaussian 16 at Wed Dec  9 17:22:13 2020.
 Gaussian 16:  ES64L-G16RevA.03 25-Dec-2016

 ----------------------------------------------------------------------
 # B3LYP/6-311++G(d,p) empiricaldispersion=gd3bj scf=xqc pop=npa geom=c
 heck
 ----------------------------------------------------------------------

 ------------------------------------
 CID_141200186_JID_2305_Energie_anion
 ------------------------------------
 Structure from the checkpoint file:  "JID_2305.chk"
 Charge = -1 Multiplicity = 2

                         Standard orientation:
 ---------------------------------------------------------------------
 Center     Atomic      Atomic             Coordinates (Angstroms)
 Number     Number       Type             X           Y           Z
 ---------------------------------------------------------------------
      1          6           0        3.769053    0.857183    0.828161
      2          6           0        3.103239    0.419727   -0.480193
      3          6           0        2.270886   -0.867842   -0.356565
      4          6           0        1.058050   -0.829085    0.591270
      5          6           0       -0.247590   -0.329396   -0.035544
      6          6           0       -0.206738    1.104500   -0.545269
      7          6           0       -1.592444    1.709822   -0.791857
      8          6           0       -2.483013    1.529561    0.440244
      9          6           0       -2.759001    0.039031    0.676368
     10          6           0       -1.477702   -0.803310    0.758096
     11          8           0       -1.538871   -1.962224   -0.127394
     12          8           0       -0.660811   -1.254951   -1.102439
     13          1           0        3.031701    1.122505    1.594544
     14          1           0        4.407216    1.733994    0.671993
     15          1           0        4.395830    0.055465    1.237760
     16          1           0        2.491483    1.241646   -0.868339
     17          1           0        3.882935    0.245246   -1.233296
     18          1           0        1.918746   -1.182318   -1.347120
     19          1           0        2.942642   -1.665538   -0.012963
     20          1           0        0.859158   -1.847096    0.944082
     21          1           0        1.269897   -0.224987    1.483608
     22          1           0        0.329343    1.715012    0.193522
     23          1           0        0.392971    1.124305   -1.462792
     24          1           0       -2.060995    1.218830   -1.653920
     25          1           0       -1.484900    2.771257   -1.043413
     26          1           0       -3.434025    2.059675    0.314890
     27          1           0       -1.990158    1.973227    1.317977
     28          1           0       -3.339956   -0.350151   -0.167086
     29          1           0       -3.363003   -0.108677    1.578754
     30          1           0       -1.259877   -1.126144    1.782197
 ---------------------------------------------------------------------

 SCF Done:  E(UB3LYP) =  -542.428398356     A.U. after   31 cycles

 The electronic state is 2-A.
 Alpha  occ. eigenvalues --  -19.06911 -19.06719 -10.13400 -10.12862 -10.06957
 Alpha  occ. eigenvalues --  -10.06915 -10.06628 -10.06574 -10.06564 -10.06480
 Alpha  occ. eigenvalues --  -10.06396 -10.05431  -1.02566  -0.79394  -0.73133
 Alpha  occ. eigenvalues --   -0.69836  -0.65549  -0.63846  -0.60644  -0.55228
 Alpha  occ. eigenvalues --   -0.52127  -0.49648  -0.46492  -0.43307  -0.41278
 Alpha  occ. eigenvalues --   -0.38113  -0.37501  -0.35837  -0.35199  -0.34382
 Alpha  occ. eigenvalues --   -0.33545  -0.32184  -0.30490  -0.29575  -0.28460
 Alpha  occ. eigenvalues --   -0.27146  -0.26021  -0.25909  -0.25680  -0.23887
 Alpha  occ. eigenvalues --   -0.23062  -0.22984  -0.22553  -0.22324  -0.21496
 Alpha  occ. eigenvalues --   -0.19706  -0.13655   0.04513
 Alpha virt. eigenvalues --    0.06655   0.07490   0.07930   0.08162   0.08973
 Alpha virt. eigenvalues --    0.09113   0.09862   0.10926   0.11212   0.11325
 Alpha virt. eigenvalues --    0.12298   0.12361   0.12919   0.13539   0.14267

  Beta  occ. eigenvalues --  -19.06860 -19.06676 -10.13396 -10.12855 -10.06934
  Beta  occ. eigenvalues --  -10.06905 -10.06612 -10.06565 -10.06529 -10.06462
  Beta  occ. eigenvalues --  -10.06381 -10.05391  -1.02443  -0.79310  -0.73092
  Beta  occ. eigenvalues --   -0.69803  -0.65505  -0.63803  -0.60595  -0.55171
  Beta  occ. eigenvalues --   -0.52076  -0.49574  -0.46430  -0.43256  -0.41201
  Beta  occ. eigenvalues --   -0.38056  -0.37448  -0.35794  -0.35159  -0.34348
  Beta  occ. eigenvalues --   -0.33505  -0.32132  -0.30451  -0.29528  -0.28415
  Beta  occ. eigenvalues --   -0.27104  -0.25967  -0.25872  -0.25624  -0.23853
  Beta  occ. eigenvalues --   -0.23015  -0.22943  -0.22511  -0.22279  -0.21457
  Beta  occ. eigenvalues --   -0.19654  -0.13606
  Beta virt. eigenvalues --    0.06891   0.07525   0.07972   0.08420   0.08795
  Beta virt. eigenvalues --    0.09449   0.09591   0.10187   0.11535   0.11615
  Beta virt. eigenvalues --    0.11719   0.12458   0.12687   0.13274   0.13780

 Mulliken charges and spin densities:
               1          2
     1  C    1.470853  -2.104244
     2  C   -1.129647   1.141834
     3  C    0.379466  -0.768985
     4  C    1.251377  -1.459677
     5  C   -0.321780   0.947455
     6  C   -0.257604  -0.321379
     7  C    0.074733  -0.454543
     8  C    0.646780  -0.935630
     9  C    0.506327  -0.822036
    10  C   -1.199908   0.507712
    11  O   -0.090135   0.017541
    12  O   -0.001950   0.019613
    13  H   -0.644591   0.791331
    14  H   -0.380028   0.518226
    15  H   -0.071570   0.197618
    16  H   -0.098629   0.203570
    17  H   -0.367706   0.523327
    18  H    0.169074  -0.010475
    19  H   -0.018691   0.182567
    20  H    0.186976   0.003475
    21  H    0.206304  -0.077336
    22  H   -0.047179   0.243892
    23  H    0.117858   0.066801
    24  H    0.052813   0.096016
    25  H   -0.432587   0.618749
    26  H   -0.309404   0.486144
    27  H   -0.394562   0.536589
    28  H    0.181557  -0.005369
    29  H   -0.128975   0.278605
    30  H   -0.349171   0.578608
 Sum of Mulliken charges =  -1.00000   1.00000

 Dipole moment (field-independent basis, Debye):
    X=             -1.6844    Y=             -4.3800    Z=             -2.9532  Tot=              5.5447
 Quadrupole moment (field-independent basis, Debye-Ang):
   XX=           -142.9679   YY=           -122.7980   ZZ=           -111.5160
   XY=             -2.2382   XZ=             -0.7365   YZ=             -7.1481

 Summary of Natural Population Analysis:

                                       Natural Population
                Natural  -----------------------------------------------
    Atom  No    Charge         Core      Valence    Rydberg      Total
 -----------------------------------------------------------------------
      C    1   -0.28655      0.99967     2.28177    0.00511     3.28655
      C    2   -0.19086      0.99964     2.18348    0.00774     3.19086
      C    3   -0.19227      0.99962     2.18367    0.00898     3.19227
      C    4   -0.20209      0.99956     2.19173    0.01080     3.20209
      C    5    0.13574      0.99952     1.84907    0.01567     2.86426
      C    6   -0.20675      0.99956     2.19700    0.01019     3.20675
      C    7   -0.18913      0.99963     2.17989    0.00961     3.18913
      C    8   -0.18912      0.99963     2.18097    0.00853     3.18912
      C    9   -0.20578      0.99961     2.19533    0.01083     3.20578
      C   10    0.06042      0.99951     1.92516    0.01492     2.93958
      O   11   -0.16046      0.99991     3.15449    0.00606     4.16046
      O   12   -0.16760      0.99990     3.16083    0.00687     4.16760
      H   13    0.09841      0.00000     0.39997    0.00162     0.40159
      H   14    0.10016      0.00000     0.39856    0.00128     0.39984
      H   15    0.09377      0.00000     0.40497    0.00126     0.40623
      H   16    0.09487      0.00000     0.40346    0.00167     0.40513
      H   17    0.09311      0.00000     0.40582    0.00107     0.40689
      H   18    0.10148      0.00000     0.39711    0.00140     0.39852
      H   19    0.09573      0.00000     0.40327    0.00100     0.40427
      H   20    0.10359      0.00000     0.39499    0.00142     0.39641
      H   21    0.10451      0.00000     0.39397    0.00151     0.39549
      H   22    0.10738      0.00000     0.39044    0.00218     0.39262
      H   23    0.10612      0.00000     0.39264    0.00124     0.39388
      H   24    0.09576      0.00000     0.40286    0.00138     0.40424
      H   25    0.10196      0.00000     0.39689    0.00115     0.39804
      H   26    0.10111      0.00000     0.39749    0.00140     0.39889
      H   27    0.09823      0.00000     0.39887    0.00290     0.40177
      H   28    0.10372      0.00000     0.39466    0.00161     0.39628
      H   29    0.10175      0.00000     0.39707    0.00117     0.39825
      H   30    0.09278      0.00000     0.40570    0.00152     0.40722
 =======================================================================
   * Total *    0.00000     11.99576    34.86215    0.14210    47.00000

 Normal termination of Gaussian 16 at Wed Dec  9 17:34:17 2020.
