 Gaussian 16, Revision A.03,

 -----------------------------------------------------------
 # opt freq B3LYP/6-31G(d) empiricaldispersion=gd3bj scf=xqc
 -----------------------------------------------------------

 ------------------------------
 CID_58937804_JID_1561_neutraal
 ------------------------------
 Symbolic Z-matrix:
 Charge =  0 Multiplicity = 1

 SCF Done:  E(RB3LYP) =  -460.848661340     A.U. after   16 cycles
 SCF Done:  E(RB3LYP) =  -460.876178995     A.U. after   13 cycles
 SCF Done:  E(RB3LYP) =  -460.878613988     A.U. after   13 cycles
 SCF Done:  E(RB3LYP) =  -460.880198387     A.U. after   12 cycles
 SCF Done:  E(RB3LYP) =  -460.880711730     A.U. after   12 cycles
 SCF Done:  E(RB3LYP) =  -460.880980036     A.U. after   12 cycles
 SCF Done:  E(RB3LYP) =  -460.881040245     A.U. after   11 cycles
 SCF Done:  E(RB3LYP) =  -460.881052318     A.U. after    9 cycles
 SCF Done:  E(RB3LYP) =  -460.881054068     A.U. after    9 cycles
 SCF Done:  E(RB3LYP) =  -460.881054444     A.U. after    8 cycles
 SCF Done:  E(RB3LYP) =  -460.881054497     A.U. after    7 cycles
 Optimization completed.
    -- Stationary point found.

 1\1\GINC-NODE316\FOpt\RB3LYP\6-31G(d)\C9H14N2\VSC10255\08-Dec-2020\0\\
 # opt freq B3LYP/6-31G(d) empiricaldispersion=gd3bj scf=xqc\\CID_58937
 804_JID_1561_neutraal\\0,1\C,1.3842118991,-0.0634563312,-0.1202923233\
 C,0.6006786773,-1.3821629745,-0.1494459125\C,0.974778165,-2.2508293275
 ,1.0605891533\C,-0.9277422399,-1.1990744553,-0.1657799689\C,-1.5633648
 264,-0.4542461233,-1.3643983576\C,-1.0365633838,-0.9545517902,-2.71795
 14987\C,-3.1089357705,-0.6489088493,-1.3407554103\C,-3.7233978295,-0.2
 530830604,-0.0733019637\N,-4.1992304135,0.0525243904,0.9394579841\N,-1

 Normal termination of Gaussian 16 at Tue Dec  8 20:23:02 2020.

 --------------------------------------------------------------------
 #N Geom=AllCheck Guess=TCheck SCRF=Check GenChk RB3LYP/6-31G(d) Freq
 --------------------------------------------------------------------

 Structure from the checkpoint file:  "JID_1561.chk"
 ------------------------------
 CID_58937804_JID_1561_neutraal
 ------------------------------
 Charge =  0 Multiplicity = 1

 SCF Done:  E(RB3LYP) =  -460.881054497     A.U. after    1 cycles

  Exact polarizability: 100.049   1.242  96.435   3.829  -0.606  96.538
 Approx polarizability: 126.315   5.547 142.095  10.756   2.226 154.497

                      1                      2                      3
                      A                      A                      A
 Frequencies --     55.3598                69.2064                97.7796
 Red. masses --      2.8994                 6.9114                 4.0215
 Frc consts  --      0.0052                 0.0195                 0.0227
 IR Inten    --      0.8002                 3.9043                 4.3857

                      4                      5                      6
                      A                      A                      A
 Frequencies --    116.2097               168.4422               186.6481
 Red. masses --      6.1154                 3.5697                 4.0749
 Frc consts  --      0.0487                 0.0597                 0.0836
 IR Inten    --      1.0873                 2.0217                 3.3200

                      7                      8                      9
                      A                      A                      A
 Frequencies --    193.2684               239.4914               256.0090
 Red. masses --      3.3103                 1.0542                 1.2981
 Frc consts  --      0.0729                 0.0356                 0.0501
 IR Inten    --      1.5516                 0.2623                 1.4228

                     10                     11                     12
                      A                      A                      A
 Frequencies --    274.0410               302.3102               323.8782
 Red. masses --      1.1006                 2.3508                 2.6217
 Frc consts  --      0.0487                 0.1266                 0.1620
 IR Inten    --      0.0981                 0.8768                 0.0795

                     13                     14                     15
                      A                      A                      A
 Frequencies --    354.5231               377.8660               389.6972
 Red. masses --      3.3571                 2.8899                 3.3269
 Frc consts  --      0.2486                 0.2431                 0.2977
 IR Inten    --      0.2059                 0.6404                 0.7114

                     16                     17                     18
                      A                      A                      A
 Frequencies --    423.1280               442.2144               456.1876
 Red. masses --      2.3129                 1.9886                 5.7324
 Frc consts  --      0.2440                 0.2291                 0.7029
 IR Inten    --      0.2498                 0.7141                 1.9890

                     19                     20                     21
                      A                      A                      A
 Frequencies --    542.2867               640.2855               735.6612
 Red. masses --      3.8386                 4.2042                 4.0721
 Frc consts  --      0.6651                 1.0155                 1.2984
 IR Inten    --      5.1747                 4.7606                 3.5895

                     22                     23                     24
                      A                      A                      A
 Frequencies --    832.3222               863.2578               899.9131
 Red. masses --      2.7521                 1.9265                 1.9730
 Frc consts  --      1.1233                 0.8459                 0.9414
 IR Inten    --      2.3837                 1.3390                 1.1865

                     25                     26                     27
                      A                      A                      A
 Frequencies --    921.2327               947.1455               972.3848
 Red. masses --      2.0934                 1.2032                 2.2152
 Frc consts  --      1.0468                 0.6360                 1.2341
 IR Inten    --      2.3900                 2.0975                 1.7251

                     28                     29                     30
                      A                      A                      A
 Frequencies --    985.9159               989.8231              1009.7099
 Red. masses --      1.5207                 1.9806                 1.7927
 Frc consts  --      0.8709                 1.1433                 1.0768
 IR Inten    --      0.5064                 2.7468                 0.2646

                     31                     32                     33
                      A                      A                      A
 Frequencies --   1075.9223              1130.5011              1188.6892
 Red. masses --      1.8931                 2.1185                 1.7934
 Frc consts  --      1.2912                 1.5952                 1.4930
 IR Inten    --      3.1976                 4.3142                 9.2704

                     34                     35                     36
                      A                      A                      A
 Frequencies --   1202.1302              1204.2014              1212.6619
 Red. masses --      2.1611                 2.3381                 1.9805
 Frc consts  --      1.8401                 1.9976                 1.7159
 IR Inten    --      8.6005                13.7291                 6.0854

                     37                     38                     39
                      A                      A                      A
 Frequencies --   1285.6381              1330.5794              1354.1093
 Red. masses --      1.3494                 1.4400                 1.2560
 Frc consts  --      1.3141                 1.5021                 1.3569
 IR Inten    --      7.0977                 8.8439                 4.1060

                     40                     41                     42
                      A                      A                      A
 Frequencies --   1364.0440              1398.8393              1417.6021
 Red. masses --      1.5216                 1.3489                 1.4193
 Frc consts  --      1.6681                 1.5551                 1.6804
 IR Inten    --      0.5532                 1.0277                 7.4329

                     43                     44                     45
                      A                      A                      A
 Frequencies --   1433.7579              1441.6514              1456.2119
 Red. masses --      1.2524                 1.2290                 1.2279
 Frc consts  --      1.5169                 1.5050                 1.5341
 IR Inten    --      3.8356                 7.5039                 2.9486

                     46                     47                     48
                      A                      A                      A
 Frequencies --   1489.6611              1503.9531              1516.0518
 Red. masses --      1.0878                 1.0837                 1.0514
 Frc consts  --      1.4222                 1.4442                 1.4238
 IR Inten    --      6.1430                 0.4241                 5.4628

                     49                     50                     51
                      A                      A                      A
 Frequencies --   1519.3077              1526.3897              1532.3440
 Red. masses --      1.0457                 1.0521                 1.0493
 Frc consts  --      1.4222                 1.4442                 1.4517
 IR Inten    --      0.6820                 3.3887                 6.2468

                     52                     53                     54
                      A                      A                      A
 Frequencies --   1537.1656              1541.5821              2221.8841
 Red. masses --      1.0582                 1.0471                12.9664
 Frc consts  --      1.4731                 1.4662                37.7148
 IR Inten    --      3.7110                15.9448               140.6036

                     55                     56                     57
                      A                      A                      A
 Frequencies --   2377.8374              3027.8332              3040.3959
 Red. masses --     12.6101                 1.0830                 1.0525
 Frc consts  --     42.0082                 5.8499                 5.7323
 IR Inten    --      3.7011                17.0383                 9.9642

                     58                     59                     60
                      A                      A                      A
 Frequencies --   3044.5051              3054.7914              3068.3987
 Red. masses --      1.0452                 1.0391                 1.0427
 Frc consts  --      5.7082                 5.7132                 5.7839
 IR Inten    --     39.5697                15.5432                 3.8426

                     61                     62                     63
                      A                      A                      A
 Frequencies --   3073.3989              3095.4118              3108.8394
 Red. masses --      1.0525                 1.0998                 1.1022
 Frc consts  --      5.8576                 6.2088                 6.2765
 IR Inten    --     11.5309                 6.3956                29.0145

                     64                     65                     66
                      A                      A                      A
 Frequencies --   3113.8440              3116.8844              3119.6835
 Red. masses --      1.1026                 1.1043                 1.1018
 Frc consts  --      6.2991                 6.3211                 6.3178
 IR Inten    --     16.8580                 3.5088                60.5646

                     67                     68                     69
                      A                      A                      A
 Frequencies --   3140.1391              3143.6628              3162.7508
 Red. masses --      1.1037                 1.0989                 1.1015
 Frc consts  --      6.4120                 6.3988                 6.4915
 IR Inten    --     19.6136                26.4290                11.9604

 - Thermochemistry -
 -------------------
 Temperature   298.150 Kelvin.  Pressure   1.00000 Atm.
 Atom     1 has atomic number  6 and mass  12.00000

 Molecular mass:   150.11570 amu.
 Principal axes and moments of inertia in atomic units:
                           1         2         3
     Eigenvalues --  1282.430032321.388422638.59735
           X            0.99882  -0.03861  -0.02954
           Y            0.04020   0.99766   0.05527
           Z            0.02733  -0.05639   0.99803
 This molecule is an asymmetric top.
 Rotational symmetry number  1.
 Warning -- assumption of classical behavior for rotation
           may cause significant error
 Rotational temperatures (Kelvin)      0.06754     0.03731     0.03283
 Rotational constants (GHZ):           1.40728     0.77744     0.68398
 Zero-point vibrational energy     566069.6 (Joules/Mol)
                                  135.29389 (Kcal/Mol)
 Warning -- explicit consideration of  19 degrees of freedom as
           vibrations may cause significant error
 Vibrational temperatures:     79.65    99.57   140.68   167.20   242.35
          (Kelvin)            268.54   278.07   344.57   368.34   394.28
                              434.96   465.99   510.08   543.66   560.69
                              608.79   636.25   656.35   780.23   921.23
                             1058.45  1197.53  1242.04  1294.77  1325.45
                             1362.73  1399.04  1418.51  1424.13  1452.75
                             1548.01  1626.54  1710.26  1729.60  1732.58
                             1744.75  1849.75  1914.41  1948.26  1962.56
                             2012.62  2039.61  2062.86  2074.21  2095.16
                             2143.29  2163.85  2181.26  2185.94  2196.13
                             2204.70  2211.64  2217.99  3196.80  3421.18
                             4356.38  4374.45  4380.36  4395.16  4414.74
                             4421.94  4453.61  4472.93  4480.13  4484.50
                             4488.53  4517.96  4523.03  4550.49

 Zero-point correction=                           0.215605 (Hartree/Particle)
 Thermal correction to Energy=                    0.228422
 Thermal correction to Enthalpy=                  0.229366
 Thermal correction to Gibbs Free Energy=         0.177078
 Sum of electronic and zero-point Energies=           -460.665450
 Sum of electronic and thermal Energies=              -460.652633
 Sum of electronic and thermal Enthalpies=            -460.651689
 Sum of electronic and thermal Free Energies=         -460.703976

                     E (Thermal)             CV                S
                      KCal/Mol        Cal/Mol-Kelvin    Cal/Mol-Kelvin
 Total                  143.337             46.588            110.048
 Electronic               0.000              0.000              0.000
 Translational            0.889              2.981             40.929
 Rotational               0.889              2.981             30.442
 Vibrational            141.559             40.626             38.678
 Vibration     1          0.596              1.975              4.616
 Vibration     2          0.598              1.969              4.176
 Vibration     3          0.603              1.951              3.498
 Vibration     4          0.608              1.936              3.162
 Vibration     5          0.625              1.881              2.453
 Vibration     6          0.632              1.858              2.261
 Vibration     7          0.635              1.849              2.196
 Vibration     8          0.657              1.780              1.807
 Vibration     9          0.666              1.753              1.689
 Vibration    10          0.676              1.721              1.571
 Vibration    11          0.694              1.669              1.404
 Vibration    12          0.708              1.628              1.290
 Vibration    13          0.730              1.566              1.146
 Vibration    14          0.748              1.517              1.048
 Vibration    15          0.758              1.492              1.001
 Vibration    16          0.785              1.420              0.881
 Vibration    17          0.802              1.378              0.820
 Vibration    18          0.814              1.347              0.777
 Vibration    19          0.897              1.157              0.560

 Optimization completed.
    -- Stationary point found.

 1\1\GINC-NODE316\Freq\RB3LYP\6-31G(d)\C9H14N2\VSC10255\08-Dec-2020\0\\
 #N Geom=AllCheck Guess=TCheck SCRF=Check GenChk RB3LYP/6-31G(d) Freq\\
 CID_58937804_JID_1561_neutraal\\0,1\C,1.3842118991,-0.0634563312,-0.12
 02923233\C,0.6006786773,-1.3821629745,-0.1494459125\C,0.974778165,-2.2
 508293275,1.0605891533\C,-0.9277422399,-1.1990744553,-0.1657799689\C,-
 1.5633648264,-0.4542461233,-1.3643983576\C,-1.0365633838,-0.9545517902
 ,-2.7179514987\C,-3.1089357705,-0.6489088493,-1.3407554103\C,-3.723397
 8295,-0.2530830604,-0.0733019637\N,-4.1992304135,0.0525243904,0.939457

 Normal termination of Gaussian 16 at Tue Dec  8 20:28:27 2020.

 ----------------------------------------------------------------------
 # B3LYP/6-311++G(d,p) empiricaldispersion=gd3bj scf=xqc pop=npa geom=c
 heck
 ----------------------------------------------------------------------

 --------------------------------------
 CID_58937804_JID_1561_Energie_neutraal
 --------------------------------------
 Structure from the checkpoint file:  "JID_1561.chk"
 Charge =  0 Multiplicity = 1

 SCF Done:  E(RB3LYP) =  -461.009851027     A.U. after   14 cycles
 Normal termination of Gaussian 16 at Tue Dec  8 20:31:47 2020.

 ----------------------------------------------------------------------
 # B3LYP/6-311++G(d,p) empiricaldispersion=gd3bj scf=xqc pop=npa geom=c
 heck
 ----------------------------------------------------------------------

 ------------------------------------
 CID_58937804_JID_1561_Energie_kation
 ------------------------------------
 Structure from the checkpoint file:  "JID_1561.chk"
 Charge =  1 Multiplicity = 2

 SCF Done:  E(UB3LYP) =  -460.622260504     A.U. after   30 cycles
 Normal termination of Gaussian 16 at Tue Dec  8 20:38:45 2020.
 Gaussian 16:  ES64L-G16RevA.03 25-Dec-2016

 -----------------------------------
 CID_58937804_JID_1561_Energie_anion
 -----------------------------------
 Structure from the checkpoint file:  "JID_1561.chk"
 Charge = -1 Multiplicity = 2

                         Standard orientation:
 ---------------------------------------------------------------------
 Center     Atomic      Atomic             Coordinates (Angstroms)
 Number     Number       Type             X           Y           Z
 ---------------------------------------------------------------------
      1          6           0       -2.327670   -0.629321    0.972397
      2          6           0       -1.973942    0.275260   -0.215193
      3          6           0       -2.791294    1.574221   -0.157282
      4          6           0       -0.480774    0.640652   -0.297631
      5          6           0        0.543975   -0.503863   -0.485903
      6          6           0        0.137031   -1.485047   -1.595680
      7          6           0        1.935241    0.094916   -0.850715
      8          6           0        2.408819    1.088970    0.112748
      9          7           0        2.769849    1.884122    0.876217
     10          7           0        0.713060   -1.235730    0.737084
     11          6           0        0.889447   -1.828049    1.740067
     12          1           0       -1.997119   -0.181225    1.916868
     13          1           0       -1.865138   -1.616660    0.901311
     14          1           0       -3.413002   -0.769790    1.028282
     15          1           0       -2.252337   -0.247082   -1.141169
     16          1           0       -2.559356    2.139301    0.753918
     17          1           0       -2.581127    2.222482   -1.016052
     18          1           0       -3.865137    1.358197   -0.151571
     19          1           0       -0.343757    1.318950   -1.150318
     20          1           0       -0.192908    1.204667    0.597190
     21          1           0       -0.035594   -0.940964   -2.529692
     22          1           0        0.923162   -2.228284   -1.758814
     23          1           0       -0.779882   -2.012059   -1.325095
     24          1           0        2.669067   -0.715460   -0.915673
     25          1           0        1.867759    0.562752   -1.839139
 ---------------------------------------------------------------------

 SCF Done:  E(UB3LYP) =  -461.003783118     A.U. after   28 cycles

 The electronic state is 2-A.
 Alpha  occ. eigenvalues --  -14.25374 -14.22137 -10.16958 -10.12721 -10.12132
 Alpha  occ. eigenvalues --  -10.11551 -10.08379 -10.08355 -10.07650 -10.06455
 Alpha  occ. eigenvalues --  -10.06303  -0.87195  -0.81809  -0.75204  -0.70787
 Alpha  occ. eigenvalues --   -0.64986  -0.60578  -0.59120  -0.57202  -0.48126
 Alpha  occ. eigenvalues --   -0.44826  -0.41378  -0.38896  -0.36596  -0.35508
 Alpha  occ. eigenvalues --   -0.34839  -0.33242  -0.32008  -0.30254  -0.29497
 Alpha  occ. eigenvalues --   -0.28368  -0.28001  -0.27589  -0.26748  -0.24903
 Alpha  occ. eigenvalues --   -0.24612  -0.24029  -0.23491  -0.23046  -0.22013
 Alpha  occ. eigenvalues --   -0.21618   0.04142
 Alpha virt. eigenvalues --    0.06803   0.07925   0.08376   0.08873   0.09615
 Alpha virt. eigenvalues --    0.09859   0.10027   0.10746   0.11145   0.11950
 Alpha virt. eigenvalues --    0.12195   0.12622   0.12886   0.13358   0.13923

  Beta  occ. eigenvalues --  -14.25368 -14.22127 -10.16959 -10.12664 -10.12126
  Beta  occ. eigenvalues --  -10.11546 -10.08361 -10.08330 -10.07582 -10.06428
  Beta  occ. eigenvalues --  -10.06288  -0.87185  -0.81782  -0.75175  -0.70745
  Beta  occ. eigenvalues --   -0.64895  -0.60501  -0.59071  -0.57140  -0.48069
  Beta  occ. eigenvalues --   -0.44766  -0.41324  -0.38796  -0.36536  -0.35435
  Beta  occ. eigenvalues --   -0.34779  -0.33200  -0.31950  -0.30206  -0.29465
  Beta  occ. eigenvalues --   -0.28337  -0.27962  -0.27568  -0.26720  -0.24867
  Beta  occ. eigenvalues --   -0.24580  -0.23991  -0.23461  -0.23001  -0.21985
  Beta  occ. eigenvalues --   -0.21588
  Beta virt. eigenvalues --    0.06819   0.07826   0.08673   0.09148   0.09273
  Beta virt. eigenvalues --    0.09842   0.10112   0.10303   0.11123   0.11528
  Beta virt. eigenvalues --    0.12343   0.12642   0.12759   0.13231   0.13608

 Mulliken charges and spin densities:
               1          2
     1  C   -0.278732  -0.402722
     2  C   -0.927274   1.466068
     3  C    0.750527  -1.369116
     4  C    1.895667  -2.706184
     5  C   -3.799572   3.829879
     6  C    2.033499  -2.639800
     7  C    1.950577  -2.001668
     8  C   -0.501349   0.275357
     9  N   -0.275743  -0.019990
    10  N    0.577004  -0.061787
    11  C   -0.013130  -0.143852
    12  H    0.079057   0.078986
    13  H    0.155521  -0.005804
    14  H   -0.120022   0.252312
    15  H   -0.201099   0.382178
    16  H    0.093814   0.032445
    17  H   -0.350172   0.498514
    18  H   -0.168279   0.315619
    19  H    0.017197   0.159220
    20  H    0.234020  -0.065664
    21  H   -0.644797   0.854211
    22  H   -0.428936   0.602111
    23  H   -0.284151   0.451355
    24  H   -0.106036   0.315963
    25  H   -0.687590   0.902367
 Sum of Mulliken charges =  -1.00000   1.00000

 Dipole moment (field-independent basis, Debye):
    X=             -1.3970    Y=             -0.0411    Z=              4.4367  Tot=              4.6516
 Quadrupole moment (field-independent basis, Debye-Ang):
   XX=           -118.7445   YY=           -109.7130   ZZ=           -122.1669
   XY=             -1.7058   XZ=             -5.0302   YZ=              1.0994

 Summary of Natural Population Analysis:

                                       Natural Population
                Natural  -----------------------------------------------
    Atom  No    Charge         Core      Valence    Rydberg      Total
 -----------------------------------------------------------------------
      C    1   -0.28676      0.99965     2.28067    0.00644     3.28676
      C    2   -0.11691      0.99961     2.10706    0.01024     3.11691
      C    3   -0.28061      0.99965     2.27461    0.00634     3.28061
      C    4   -0.18950      0.99957     2.17849    0.01143     3.18950
      C    5    0.05507      0.99952     1.92831    0.01711     2.94493
      C    6   -0.28350      0.99961     2.27594    0.00795     3.28350
      C    7   -0.24475      0.99951     2.23337    0.01187     3.24475
      C    8    0.16607      0.99965     1.81778    0.01650     2.83393
      N    9   -0.18052      0.99979     2.67039    0.01035     3.68052
      N   10   -0.26721      0.99959     2.75172    0.01590     3.76721
      C   11    0.12921      0.99977     1.86059    0.01043     2.87079
      H   12    0.09741      0.00000     0.40189    0.00070     0.40259
      H   13    0.10319      0.00000     0.39604    0.00077     0.39681
      H   14    0.09855      0.00000     0.40070    0.00075     0.40145
      H   15    0.09874      0.00000     0.39863    0.00263     0.40126
      H   16    0.09421      0.00000     0.40494    0.00085     0.40579
      H   17    0.10273      0.00000     0.39623    0.00104     0.39727
      H   18    0.09942      0.00000     0.39970    0.00088     0.40058
      H   19    0.11010      0.00000     0.38755    0.00235     0.38990
      H   20    0.10520      0.00000     0.39311    0.00169     0.39480
      H   21    0.11474      0.00000     0.37978    0.00549     0.38526
      H   22    0.10679      0.00000     0.39113    0.00208     0.39321
      H   23    0.10783      0.00000     0.39049    0.00169     0.39217
      H   24    0.12630      0.00000     0.37188    0.00182     0.37370
      H   25    0.13421      0.00000     0.36114    0.00465     0.36579
 =======================================================================
   * Total *   -0.00000     10.99592    29.85213    0.15195    41.00000

 Normal termination of Gaussian 16 at Tue Dec  8 20:46:29 2020.
