 Gaussian 16, Revision A.03,

 -----------------------------------------------------------
 # opt freq B3LYP/6-31G(d) empiricaldispersion=gd3bj scf=xqc
 -----------------------------------------------------------

 ------------------------------
 CID_22064570_JID_8525_neutraal
 ------------------------------
 Symbolic Z-matrix:
 Charge =  0 Multiplicity = 1

 SCF Done:  E(RB3LYP) =  -768.459574392     A.U. after   15 cycles
 SCF Done:  E(RB3LYP) =  -768.462327257     A.U. after   13 cycles
 SCF Done:  E(RB3LYP) =  -768.462598170     A.U. after   12 cycles
 SCF Done:  E(RB3LYP) =  -768.463018481     A.U. after   11 cycles
 SCF Done:  E(RB3LYP) =  -768.463056017     A.U. after   11 cycles
 SCF Done:  E(RB3LYP) =  -768.463101232     A.U. after   10 cycles
 SCF Done:  E(RB3LYP) =  -768.463120417     A.U. after   10 cycles
 SCF Done:  E(RB3LYP) =  -768.463126001     A.U. after    9 cycles
 SCF Done:  E(RB3LYP) =  -768.463127671     A.U. after    8 cycles
 SCF Done:  E(RB3LYP) =  -768.463128496     A.U. after    8 cycles
 SCF Done:  E(RB3LYP) =  -768.463128766     A.U. after    8 cycles
 Optimization completed.
    -- Stationary point found.
 Normal termination of Gaussian 16 at Mon Dec 14 16:44:08 2020.

 --------------------------------------------------------------------
 #N Geom=AllCheck Guess=TCheck SCRF=Check GenChk RB3LYP/6-31G(d) Freq
 --------------------------------------------------------------------

 Structure from the checkpoint file:  "JID_8525.chk"
 ------------------------------
 CID_22064570_JID_8525_neutraal
 ------------------------------
 Charge =  0 Multiplicity = 1

 SCF Done:  E(RB3LYP) =  -768.463128765     A.U. after    1 cycles

  Exact polarizability: 208.369   0.960 173.296  -4.358   2.077 110.557
 Approx polarizability: 290.951   0.240 278.104 -12.808   7.448 170.734

                      1                      2                      3
                      A                      A                      A
 Frequencies --     28.3898                54.7267                87.1845
 Red. masses --      3.8337                 6.3469                 4.2484
 Frc consts  --      0.0018                 0.0112                 0.0190
 IR Inten    --      0.5968                 7.6689                 0.8918

                      4                      5                      6
                      A                      A                      A
 Frequencies --     94.7885               137.4333               167.2136
 Red. masses --      4.0598                 3.2726                 3.9228
 Frc consts  --      0.0215                 0.0364                 0.0646
 IR Inten    --      0.9721                 2.1178                 2.8443

                      7                      8                      9
                      A                      A                      A
 Frequencies --    211.3046               223.8027               263.2971
 Red. masses --      2.4741                 2.3963                 5.9086
 Frc consts  --      0.0651                 0.0707                 0.2413
 IR Inten    --      0.5445                 4.9286                 1.1949

                     10                     11                     12
                      A                      A                      A
 Frequencies --    278.8231               318.6323               337.2397
 Red. masses --      3.1666                 3.6279                 3.2741
 Frc consts  --      0.1450                 0.2170                 0.2194
 IR Inten    --      0.7763                 2.5940                 0.3708

                     13                     14                     15
                      A                      A                      A
 Frequencies --    384.0837               386.6871               393.2471
 Red. masses --      3.9306                 2.4426                 2.6405
 Frc consts  --      0.3416                 0.2152                 0.2406
 IR Inten    --      0.9042                 0.1741                 0.9876

                     16                     17                     18
                      A                      A                      A
 Frequencies --    418.4976               426.4313               435.9960
 Red. masses --      2.7889                 1.9624                 1.2997
 Frc consts  --      0.2878                 0.2102                 0.1456
 IR Inten    --      8.6605                 8.5467               147.7938

                     19                     20                     21
                      A                      A                      A
 Frequencies --    441.0072               508.8983               526.8658
 Red. masses --      2.7689                 2.9252                 3.6851
 Frc consts  --      0.3173                 0.4463                 0.6027
 IR Inten    --     16.5947                13.2177                 5.0109

                     22                     23                     24
                      A                      A                      A
 Frequencies --    549.3035               561.3124               596.2702
 Red. masses --      1.7583                 1.7516                 2.4850
 Frc consts  --      0.3126                 0.3252                 0.5205
 IR Inten    --     18.7756                 5.7976                28.3733

                     25                     26                     27
                      A                      A                      A
 Frequencies --    634.2247               646.2844               697.7083
 Red. masses --      3.8464                 5.3518                 4.4375
 Frc consts  --      0.9116                 1.3170                 1.2727
 IR Inten    --     39.6026                 8.4435                 3.3240

                     28                     29                     30
                      A                      A                      A
 Frequencies --    716.7147               728.3319               765.8240
 Red. masses --      2.3496                 1.9525                 3.1518
 Frc consts  --      0.7111                 0.6103                 1.0891
 IR Inten    --      5.9840                 0.4291                54.2734

                     31                     32                     33
                      A                      A                      A
 Frequencies --    786.4590               788.7700               802.7712
 Red. masses --      2.6213                 3.0861                 1.9234
 Frc consts  --      0.9552                 1.1313                 0.7303
 IR Inten    --     29.8248                 6.1752                78.8644

                     34                     35                     36
                      A                      A                      A
 Frequencies --    829.7642               848.9681               868.3421
 Red. masses --      1.8604                 1.6834                 1.7163
 Frc consts  --      0.7547                 0.7149                 0.7625
 IR Inten    --      5.9168                 4.2784                 0.1050

                     37                     38                     39
                      A                      A                      A
 Frequencies --    879.6887               910.3024               931.8253
 Red. masses --      2.3487                 2.1784                 1.6612
 Frc consts  --      1.0709                 1.0635                 0.8498
 IR Inten    --      3.8603                 2.2046                 3.1297

                     40                     41                     42
                      A                      A                      A
 Frequencies --    933.7791               946.6179               988.2666
 Red. masses --      1.9834                 1.4895                 1.8758
 Frc consts  --      1.0189                 0.7864                 1.0794
 IR Inten    --     12.7803                 1.3929                 0.8342

                     43                     44                     45
                      A                      A                      A
 Frequencies --    993.7052               997.3705              1001.5520
 Red. masses --      1.3419                 2.1010                 1.9484
 Frc consts  --      0.7807                 1.2314                 1.1515
 IR Inten    --      0.2231                 8.2107                 5.3175

                     46                     47                     48
                      A                      A                      A
 Frequencies --   1023.2819              1026.2368              1061.1205
 Red. masses --      2.9084                 3.2245                 2.1103
 Frc consts  --      1.7943                 2.0008                 1.4000
 IR Inten    --      3.6341                 0.7566                 0.5873

                     49                     50                     51
                      A                      A                      A
 Frequencies --   1082.8704              1100.8770              1104.7410
 Red. masses --      2.1894                 2.0585                 2.2594
 Frc consts  --      1.5126                 1.4699                 1.6247
 IR Inten    --      3.0946                10.6748                 1.3970

                     52                     53                     54
                      A                      A                      A
 Frequencies --   1118.3588              1133.0116              1151.5554
 Red. masses --      2.7434                 1.6035                 1.3410
 Frc consts  --      2.0216                 1.2128                 1.0478
 IR Inten    --     13.4546                 5.7681                 4.9872

                     55                     56                     57
                      A                      A                      A
 Frequencies --   1157.6972              1182.3344              1207.0094
 Red. masses --      1.8593                 1.3120                 2.2759
 Frc consts  --      1.4682                 1.0806                 1.9535
 IR Inten    --      9.5762                 0.5521                 7.1854

                     58                     59                     60
                      A                      A                      A
 Frequencies --   1212.8116              1230.4211              1247.2332
 Red. masses --      1.3301                 1.6367                 2.2332
 Frc consts  --      1.1527                 1.4600                 2.0468
 IR Inten    --      1.8521                 6.7488                10.3812

                     61                     62                     63
                      A                      A                      A
 Frequencies --   1283.4771              1296.1898              1314.0916
 Red. masses --      1.3017                 1.4531                 1.4545
 Frc consts  --      1.2634                 1.4384                 1.4798
 IR Inten    --      6.8516                 7.0471                 1.3850

                     64                     65                     66
                      A                      A                      A
 Frequencies --   1325.6914              1340.3041              1343.7321
 Red. masses --      1.4084                 1.4523                 1.8363
 Frc consts  --      1.4583                 1.5372                 1.9536
 IR Inten    --      8.0194                17.2487                 7.5928

                     67                     68                     69
                      A                      A                      A
 Frequencies --   1366.2504              1371.1696              1380.3978
 Red. masses --      1.4472                 1.8511                 2.8159
 Frc consts  --      1.5916                 2.0505                 3.1613
 IR Inten    --      8.2856                 3.4688               166.9900

                     70                     71                     72
                      A                      A                      A
 Frequencies --   1381.0769              1389.8089              1396.7076
 Red. masses --      1.6403                 1.3605                 1.4809
 Frc consts  --      1.8433                 1.5483                 1.7021
 IR Inten    --     40.4593                 0.4679                 1.8472

                     73                     74                     75
                      A                      A                      A
 Frequencies --   1411.8823              1417.2939              1435.1238
 Red. masses --      1.3035                 1.4417                 1.3981
 Frc consts  --      1.5310                 1.7062                 1.6966
 IR Inten    --     16.7364                 2.6690                 5.7104

                     76                     77                     78
                      A                      A                      A
 Frequencies --   1468.5888              1503.6645              1508.2435
 Red. masses --      3.1124                 1.1048                 1.0972
 Frc consts  --      3.9550                 1.4718                 1.4705
 IR Inten    --      3.1077                 1.5000                 3.6330

                     79                     80                     81
                      A                      A                      A
 Frequencies --   1508.9255              1519.2616              1528.8777
 Red. masses --      1.0922                 1.1462                 1.1467
 Frc consts  --      1.4652                 1.5587                 1.5792
 IR Inten    --      2.8159                 3.1485                 5.8744

                     82                     83                     84
                      A                      A                      A
 Frequencies --   1530.8664              1540.5670              1562.0553
 Red. masses --      1.1087                 2.1958                 1.0866
 Frc consts  --      1.5309                 3.0705                 1.5621
 IR Inten    --      5.1514                 5.8720                 4.1838

                     85                     86                     87
                      A                      A                      A
 Frequencies --   1643.4920              1645.9404              1662.9820
 Red. masses --      4.2304                 1.3654                 5.0102
 Frc consts  --      6.7324                 2.1794                 8.1635
 IR Inten    --     25.0931               133.1580                12.2563

                     88                     89                     90
                      A                      A                      A
 Frequencies --   1789.2846              3026.6268              3030.3575
 Red. masses --      8.3985                 1.0602                 1.0694
 Frc consts  --     15.8421                 5.7219                 5.7861
 IR Inten    --    273.0670                18.8187                10.5958

                     91                     92                     93
                      A                      A                      A
 Frequencies --   3035.2876              3039.2862              3053.7279
 Red. masses --      1.0624                 1.0640                 1.0757
 Frc consts  --      5.7666                 5.7909                 5.9100
 IR Inten    --     10.9221                52.5836                86.4880

                     94                     95                     96
                      A                      A                      A
 Frequencies --   3058.2090              3066.8539              3071.5522
 Red. masses --      1.0763                 1.0929                 1.0779
 Frc consts  --      5.9306                 6.0566                 5.9914
 IR Inten    --     47.3435                 8.8377                45.8078

                     97                     98                     99
                      A                      A                      A
 Frequencies --   3073.8048              3082.4700              3093.1086
 Red. masses --      1.1016                 1.1016                 1.0960
 Frc consts  --      6.1326                 6.1668                 6.1781
 IR Inten    --     30.3780                26.8139                29.2013

                    100                    101                    102
                      A                      A                      A
 Frequencies --   3105.7527              3132.0215              3192.9421
 Red. masses --      1.1003                 1.0908                 1.0885
 Frc consts  --      6.2532                 6.3046                 6.5385
 IR Inten    --     49.3628                64.0123                16.7166

                    103                    104                    105
                      A                      A                      A
 Frequencies --   3203.0283              3229.0959              3232.2964
 Red. masses --      1.0879                 1.0898                 1.0935
 Frc consts  --      6.5757                 6.6948                 6.7313
 IR Inten    --      8.1578                 4.4283                10.6267

                    106                    107                    108
                      A                      A                      A
 Frequencies --   3476.2575              3576.9867              3695.5731
 Red. masses --      1.0741                 1.0460                 1.1021
 Frc consts  --      7.6473                 7.8855                 8.8686
 IR Inten    --      2.3032                27.9292                26.1052

 - Thermochemistry -
 -------------------
 Temperature   298.150 Kelvin.  Pressure   1.00000 Atm.
 Atom     1 has atomic number  6 and mass  12.00000

 Molecular mass:   244.15756 amu.
 Principal axes and moments of inertia in atomic units:
                           1         2         3
     Eigenvalues --  2081.384877503.360748586.69222
           X            1.00000   0.00188   0.00062
           Y           -0.00187   0.99995  -0.00985
           Z           -0.00064   0.00985   0.99995
 This molecule is an asymmetric top.
 Rotational symmetry number  1.
 Warning -- assumption of classical behavior for rotation
           may cause significant error
 Rotational temperatures (Kelvin)      0.04161     0.01154     0.01009
 Rotational constants (GHZ):           0.86709     0.24052     0.21018
 Zero-point vibrational energy     878713.7 (Joules/Mol)
                                  210.01761 (Kcal/Mol)
 Warning -- explicit consideration of  24 degrees of freedom as
           vibrations may cause significant error
 Vibrational temperatures:     40.85    78.74   125.44   136.38   197.74
          (Kelvin)            240.58   304.02   322.00   378.83   401.16
                              458.44   485.21   552.61   556.36   565.79
                              602.12   613.54   627.30   634.51   732.19
                              758.04   790.33   807.60   857.90   912.51
                              929.86  1003.85  1031.19  1047.91  1101.85
                             1131.54  1134.86  1155.01  1193.85  1221.48
                             1249.35  1265.68  1309.72  1340.69  1343.50
                             1361.97  1421.90  1429.72  1434.99  1441.01
                             1472.27  1476.53  1526.72  1558.01  1583.92
                             1589.48  1609.07  1630.15  1656.83  1665.67
                             1701.12  1736.62  1744.97  1770.30  1794.49
                             1846.64  1864.93  1890.68  1907.37  1928.40
                             1933.33  1965.73  1972.81  1986.08  1987.06
                             1999.63  2009.55  2031.38  2039.17  2064.82
                             2112.97  2163.44  2170.03  2171.01  2185.88
                             2199.71  2202.58  2216.53  2247.45  2364.62
                             2368.14  2392.66  2574.38  4354.64  4360.01
                             4367.10  4372.86  4393.63  4400.08  4412.52
                             4419.28  4422.52  4434.99  4450.29  4468.49
                             4506.28  4593.93  4608.44  4645.95  4650.55
                             5001.56  5146.49  5317.11

 Zero-point correction=                           0.334684 (Hartree/Particle)
 Thermal correction to Energy=                    0.349853
 Thermal correction to Enthalpy=                  0.350797
 Thermal correction to Gibbs Free Energy=         0.292340
 Sum of electronic and zero-point Energies=           -768.128444
 Sum of electronic and thermal Energies=              -768.113276
 Sum of electronic and thermal Enthalpies=            -768.112332
 Sum of electronic and thermal Free Energies=         -768.170789

                     E (Thermal)             CV                S
                      KCal/Mol        Cal/Mol-Kelvin    Cal/Mol-Kelvin
 Total                  219.536             62.830            123.033
 Electronic               0.000              0.000              0.000
 Translational            0.889              2.981             42.379
 Rotational               0.889              2.981             33.261
 Vibrational            217.759             56.868             47.394
 Vibration     1          0.593              1.984              5.939
 Vibration     2          0.596              1.976              4.639
 Vibration     3          0.601              1.958              3.722
 Vibration     4          0.603              1.953              3.559
 Vibration     5          0.614              1.916              2.839
 Vibration     6          0.624              1.883              2.467
 Vibration     7          0.643              1.824              2.032
 Vibration     8          0.649              1.805              1.928
 Vibration     9          0.670              1.740              1.640
 Vibration    10          0.679              1.713              1.541
 Vibration    11          0.705              1.638              1.317
 Vibration    12          0.718              1.601              1.225
 Vibration    13          0.753              1.504              1.023
 Vibration    14          0.755              1.499              1.013
 Vibration    15          0.760              1.485              0.988
 Vibration    16          0.781              1.430              0.897
 Vibration    17          0.788              1.413              0.870
 Vibration    18          0.796              1.392              0.839
 Vibration    19          0.801              1.381              0.823
 Vibration    20          0.864              1.230              0.636
 Vibration    21          0.882              1.191              0.594
 Vibration    22          0.905              1.141              0.546
 Vibration    23          0.917              1.115              0.521
 Vibration    24          0.954              1.040              0.456

 Optimization completed.
    -- Stationary point found.
 Normal termination of Gaussian 16 at Mon Dec 14 17:05:18 2020.

 ----------------------------------------------------------------------
 # B3LYP/6-311++G(d,p) empiricaldispersion=gd3bj scf=xqc pop=npa geom=c
 heck
 ----------------------------------------------------------------------

 --------------------------------------
 CID_22064570_JID_8525_Energie_neutraal
 --------------------------------------
 Structure from the checkpoint file:  "JID_8525.chk"
 Charge =  0 Multiplicity = 1

 SCF Done:  E(RB3LYP) =  -768.677327511     A.U. after   16 cycles
 Normal termination of Gaussian 16 at Mon Dec 14 17:15:36 2020.

 ----------------------------------------------------------------------
 # B3LYP/6-311++G(d,p) empiricaldispersion=gd3bj scf=xqc pop=npa geom=c
 heck
 ----------------------------------------------------------------------

 ------------------------------------
 CID_22064570_JID_8525_Energie_kation
 ------------------------------------
 Structure from the checkpoint file:  "JID_8525.chk"
 Charge =  1 Multiplicity = 2

 SCF Done:  E(UB3LYP) =  -768.383222758     A.U. after   29 cycles
 Normal termination of Gaussian 16 at Mon Dec 14 17:42:48 2020.
 Gaussian 16:  ES64L-G16RevA.03 25-Dec-2016

 ----------------------------------------------------------------------
 # B3LYP/6-311++G(d,p) empiricaldispersion=gd3bj scf=xqc pop=npa geom=c
 heck
 ----------------------------------------------------------------------

 -----------------------------------
 CID_22064570_JID_8525_Energie_anion
 -----------------------------------
 Structure from the checkpoint file:  "JID_8525.chk"
 Charge = -1 Multiplicity = 2

                         Standard orientation:
 ---------------------------------------------------------------------
 Center     Atomic      Atomic             Coordinates (Angstroms)
 Number     Number       Type             X           Y           Z
 ---------------------------------------------------------------------
      1          6           0       -2.662839   -1.210198    1.521776
      2          6           0       -3.120716   -1.842789    0.194425
      3          6           0       -2.860454   -0.973655   -1.048679
      4          6           0       -1.379026   -0.560388   -1.087445
      5          6           0       -1.051581    0.322188    0.139671
      6          6           0       -1.287248   -0.526554    1.423043
      7          6           0       -1.980019    1.559635    0.059091
      8          6           0       -3.474704    1.245136   -0.158414
      9          7           0       -3.766863    0.184524   -1.130179
     10          6           0        0.426225    0.740866    0.125849
     11          6           0        0.845970    2.066332    0.295043
     12          6           0        2.201436    2.407776    0.279526
     13          6           0        3.172509    1.431165    0.102313
     14          6           0        2.782198    0.095003   -0.042109
     15          6           0        1.423538   -0.232388   -0.035777
     16          6           0        3.863912   -0.928652   -0.216510
     17          8           0        4.992546   -0.629700   -0.585131
     18          7           0        3.507751   -2.235732    0.037722
     19          1           0       -2.612567   -1.988725    2.293473
     20          1           0       -3.412478   -0.498724    1.875532
     21          1           0       -2.574608   -2.784749    0.046112
     22          1           0       -4.185745   -2.093251    0.242851
     23          1           0       -3.082271   -1.587820   -1.929824
     24          1           0       -1.163420   -0.005659   -2.010141
     25          1           0       -0.749497   -1.457747   -1.101077
     26          1           0       -1.111746    0.099304    2.307097
     27          1           0       -0.512237   -1.303288    1.444277
     28          1           0       -1.879330    2.174165    0.963035
     29          1           0       -1.633361    2.174349   -0.782275
     30          1           0       -3.948001    0.986967    0.791753
     31          1           0       -3.981208    2.154391   -0.501056
     32          1           0       -3.673357    0.575584   -2.066480
     33          1           0        0.116716    2.855235    0.434589
     34          1           0        2.492399    3.447037    0.404522
     35          1           0        4.229464    1.671584    0.073100
     36          1           0        1.133089   -1.265224   -0.197199
     37          1           0        2.746508   -2.429074    0.672577
     38          1           0        4.279873   -2.889145    0.056564
 ---------------------------------------------------------------------

 SCF Done:  E(UB3LYP) =  -768.675406329     A.U. after   33 cycles
 SCF Done:  E(UB3LYP) =  -768.675406329     a.u. after    1 cycles

 The electronic state is 2-A.
 Alpha  occ. eigenvalues --  -18.96272 -14.21107 -14.19974 -10.14415 -10.09834
 Alpha  occ. eigenvalues --  -10.09528 -10.08669 -10.06927 -10.06828 -10.06735
 Alpha  occ. eigenvalues --  -10.06725 -10.06419 -10.06268 -10.05943 -10.05641
 Alpha  occ. eigenvalues --  -10.05562 -10.05500 -10.05465  -0.91464  -0.81812
 Alpha  occ. eigenvalues --   -0.78499  -0.75134  -0.71938  -0.68451  -0.64933
 Alpha  occ. eigenvalues --   -0.63997  -0.62551  -0.59957  -0.54094  -0.52390
 Alpha  occ. eigenvalues --   -0.50574  -0.49879  -0.48093  -0.44979  -0.44115
 Alpha  occ. eigenvalues --   -0.42766  -0.39500  -0.38220  -0.37097  -0.36451
 Alpha  occ. eigenvalues --   -0.35621  -0.34370  -0.33700  -0.33318  -0.32261
 Alpha  occ. eigenvalues --   -0.31690  -0.30480  -0.30051  -0.29381  -0.28841
 Alpha  occ. eigenvalues --   -0.27644  -0.27295  -0.26644  -0.25274  -0.25099
 Alpha  occ. eigenvalues --   -0.24434  -0.23790  -0.23095  -0.20912  -0.20089
 Alpha  occ. eigenvalues --   -0.19956  -0.16398  -0.14535  -0.14037  -0.13471
 Alpha  occ. eigenvalues --   -0.12601   0.04037
 Alpha virt. eigenvalues --    0.05879   0.06535   0.07437   0.07803   0.08580
 Alpha virt. eigenvalues --    0.09175   0.09536   0.09777   0.09816   0.10671
 Alpha virt. eigenvalues --    0.11212   0.11649   0.11965   0.12341   0.13054

  Beta  occ. eigenvalues --  -18.96116 -14.21055 -14.19962 -10.14287 -10.09828
  Beta  occ. eigenvalues --  -10.09520 -10.08669 -10.06967 -10.06820 -10.06722
  Beta  occ. eigenvalues --  -10.06713 -10.06392 -10.06266 -10.05924 -10.05565
  Beta  occ. eigenvalues --  -10.05496 -10.05383 -10.05313  -0.91178  -0.81788
  Beta  occ. eigenvalues --   -0.78350  -0.75013  -0.71863  -0.68412  -0.64898
  Beta  occ. eigenvalues --   -0.63697  -0.62448  -0.59896  -0.54010  -0.52120
  Beta  occ. eigenvalues --   -0.50525  -0.49748  -0.47989  -0.44821  -0.44061
  Beta  occ. eigenvalues --   -0.42685  -0.39418  -0.38151  -0.37063  -0.36335
  Beta  occ. eigenvalues --   -0.35567  -0.34306  -0.33650  -0.33286  -0.32196
  Beta  occ. eigenvalues --   -0.31515  -0.30415  -0.29846  -0.28988  -0.28579
  Beta  occ. eigenvalues --   -0.27613  -0.27242  -0.26613  -0.25229  -0.25025
  Beta  occ. eigenvalues --   -0.24037  -0.23719  -0.23038  -0.20873  -0.20047
  Beta  occ. eigenvalues --   -0.19921  -0.15861  -0.13942  -0.13658  -0.13107
  Beta  occ. eigenvalues --   -0.12465
  Beta virt. eigenvalues --    0.06098   0.07230   0.07572   0.07734   0.08134
  Beta virt. eigenvalues --    0.08643   0.09362   0.09695   0.09853   0.10004
  Beta virt. eigenvalues --    0.10801   0.11202   0.11847   0.12021   0.12643

 Mulliken charges and spin densities:
               1          2
     1  C   -0.227532   0.047595
     2  C    0.373292  -1.023477
     3  C   -0.266056   0.200651
     4  C   -0.665621  -0.234566
     5  C    1.126421  -0.147320
     6  C   -0.446892  -0.316632
     7  C   -0.822227   0.657698
     8  C    0.234224  -1.077649
     9  N   -0.062019   0.046181
    10  C    0.726327  -0.026170
    11  C   -0.243995   0.149124
    12  C   -0.658280   0.072199
    13  C   -0.616752   0.113665
    14  C    0.682505  -0.053694
    15  C   -0.239896  -0.043536
    16  C   -0.084491   0.165812
    17  O   -0.389357   0.055148
    18  N   -0.290938  -0.081527
    19  H   -0.148413   0.337294
    20  H    0.117840  -0.026938
    21  H   -0.083439   0.218144
    22  H    0.110953   0.061592
    23  H   -0.109187   0.333288
    24  H    0.076592   0.133091
    25  H   -0.018130   0.114818
    26  H    0.106003   0.080138
    27  H   -0.162843   0.298372
    28  H    0.121413   0.018299
    29  H    0.033808   0.135407
    30  H    0.148657   0.005990
    31  H   -0.051014   0.221514
    32  H    0.051744   0.190671
    33  H    0.055641   0.061240
    34  H    0.114721   0.028739
    35  H    0.150727   0.012197
    36  H    0.323613  -0.226074
    37  H   -0.148690   0.377254
    38  H    0.181289   0.121464
 Sum of Mulliken charges =  -1.00000   1.00000

 Dipole moment (field-independent basis, Debye):
    X=             -4.3158    Y=              2.4603    Z=              1.2515  Tot=              5.1231
 Quadrupole moment (field-independent basis, Debye-Ang):
   XX=           -197.1330   YY=           -139.0471   ZZ=           -134.1005
   XY=              0.4147   XZ=             -1.2957   YZ=              5.1526

 Summary of Natural Population Analysis:

                                       Natural Population
                Natural  -----------------------------------------------
    Atom  No    Charge         Core      Valence    Rydberg      Total
 -----------------------------------------------------------------------
      C    1   -0.19188      0.99962     2.18414    0.00811     3.19188
      C    2   -0.19355      0.99961     2.18472    0.00923     3.19355
      C    3   -0.00877      0.99958     1.99567    0.01352     3.00877
      C    4   -0.19634      0.99958     2.18632    0.01044     3.19634
      C    5   -0.03991      0.99952     2.02904    0.01135     3.03991
      C    6   -0.18510      0.99959     2.17578    0.00972     3.18510
      C    7   -0.20134      0.99960     2.19191    0.00983     3.20134
      C    8   -0.08798      0.99962     2.07685    0.01151     3.08798
      N    9   -0.34163      0.99975     2.82943    0.01245     3.84163
      C   10   -0.01832      0.99949     2.00626    0.01258     3.01832
      C   11   -0.07563      0.99951     2.06864    0.00748     3.07563
      C   12   -0.10339      0.99957     2.09415    0.00967     3.10339
      C   13   -0.08179      0.99953     2.07390    0.00836     3.08179
      C   14   -0.04923      0.99946     2.03898    0.01079     3.04923
      C   15   -0.07274      0.99949     2.06454    0.00871     3.07274
      C   16    0.34739      0.99965     1.62956    0.02340     2.65261
      O   17   -0.31333      0.99988     3.30804    0.00541     4.31333
      N   18   -0.40769      0.99971     2.89982    0.00816     3.90769
      H   19    0.09935      0.00000     0.39968    0.00097     0.40065
      H   20    0.09044      0.00000     0.40830    0.00126     0.40956
      H   21    0.09853      0.00000     0.40032    0.00115     0.40147
      H   22    0.10087      0.00000     0.39804    0.00109     0.39913
      H   23    0.09621      0.00000     0.40241    0.00138     0.40379
      H   24    0.10090      0.00000     0.39797    0.00113     0.39910
      H   25    0.10298      0.00000     0.39561    0.00141     0.39702
      H   26    0.09938      0.00000     0.39973    0.00090     0.40062
      H   27    0.10289      0.00000     0.39571    0.00140     0.39711
      H   28    0.09966      0.00000     0.39935    0.00099     0.40034
      H   29    0.10080      0.00000     0.39783    0.00136     0.39920
      H   30    0.08569      0.00000     0.41291    0.00140     0.41431
      H   31    0.09381      0.00000     0.40523    0.00096     0.40619
      H   32    0.17149      0.00000     0.32624    0.00227     0.32851
      H   33    0.09563      0.00000     0.40305    0.00132     0.40437
      H   34    0.09427      0.00000     0.40496    0.00078     0.40573
      H   35    0.10827      0.00000     0.39077    0.00096     0.39173
      H   36    0.09848      0.00000     0.39984    0.00168     0.40152
      H   37    0.19284      0.00000     0.30387    0.00329     0.30716
      H   38    0.18875      0.00000     0.30937    0.00188     0.31125
 =======================================================================
   * Total *    0.00000     17.99276    47.78894    0.21831    66.00000

 Normal termination of Gaussian 16 at Mon Dec 14 18:13:05 2020.
