 Gaussian 16, Revision A.03,

 -----------------------------------------------------------
 # opt freq B3LYP/6-31G(d) empiricaldispersion=gd3bj scf=xqc
 -----------------------------------------------------------

 -------------------------------
 CID_152445424_JID_4891_neutraal
 -------------------------------
 Symbolic Z-matrix:
 Charge =  0 Multiplicity = 1

 SCF Done:  E(RB3LYP) =  -647.938074944     A.U. after   15 cycles
 SCF Done:  E(RB3LYP) =  -647.941625757     A.U. after   15 cycles
 SCF Done:  E(RB3LYP) =  -647.942936349     A.U. after   13 cycles
 SCF Done:  E(RB3LYP) =  -647.943266150     A.U. after   12 cycles
 SCF Done:  E(RB3LYP) =  -647.943446599     A.U. after   14 cycles
 SCF Done:  E(RB3LYP) =  -647.943710879     A.U. after   12 cycles
 SCF Done:  E(RB3LYP) =  -647.943926980     A.U. after   14 cycles
 SCF Done:  E(RB3LYP) =  -647.944093627     A.U. after   15 cycles
 SCF Done:  E(RB3LYP) =  -647.944182019     A.U. after   14 cycles
 SCF Done:  E(RB3LYP) =  -647.944258379     A.U. after   13 cycles
 SCF Done:  E(RB3LYP) =  -647.944597594     A.U. after   13 cycles
 SCF Done:  E(RB3LYP) =  -647.944598549     A.U. after    9 cycles
 SCF Done:  E(RB3LYP) =  -647.944598835     A.U. after    9 cycles
 SCF Done:  E(RB3LYP) =  -647.944598989     A.U. after    8 cycles
 SCF Done:  E(RB3LYP) =  -647.944599011     A.U. after    7 cycles
 Optimization completed.
    -- Stationary point found.
 Normal termination of Gaussian 16 at Thu Dec 10 11:00:14 2020.

 --------------------------------------------------------------------
 #N Geom=AllCheck Guess=TCheck SCRF=Check GenChk RB3LYP/6-31G(d) Freq
 --------------------------------------------------------------------

 Structure from the checkpoint file:  "JID_4891.chk"
 -------------------------------
 CID_152445424_JID_4891_neutraal
 -------------------------------
 Charge =  0 Multiplicity = 1

 SCF Done:  E(RB3LYP) =  -647.944599012     A.U. after    1 cycles

  Exact polarizability: 125.699   4.250 140.768   5.751   6.019 101.371
 Approx polarizability: 157.920  12.172 227.419   7.792  28.229 169.187

                      1                      2                      3
                      A                      A                      A
 Frequencies --     26.2483                31.8876                61.3623
 Red. masses --      7.5965                 3.7008                 6.7297
 Frc consts  --      0.0031                 0.0022                 0.0149
 IR Inten    --      0.0448                 0.2261                 0.3145

                      4                      5                      6
                      A                      A                      A
 Frequencies --     68.5622               118.0524               145.6558
 Red. masses --      6.3482                 3.5293                 3.3630
 Frc consts  --      0.0176                 0.0290                 0.0420
 IR Inten    --      0.4853                 1.9649                 0.1454

                      7                      8                      9
                      A                      A                      A
 Frequencies --    162.7710               191.2534               233.8439
 Red. masses --      2.4693                 2.9013                 7.3119
 Frc consts  --      0.0385                 0.0625                 0.2356
 IR Inten    --      1.7341                 1.0981                 2.1504

                     10                     11                     12
                      A                      A                      A
 Frequencies --    252.8006               278.4620               286.4391
 Red. masses --      1.2660                 2.0792                 1.7658
 Frc consts  --      0.0477                 0.0950                 0.0854
 IR Inten    --      0.0186                 2.1130                 0.5813

                     13                     14                     15
                      A                      A                      A
 Frequencies --    358.4139               383.5499               403.5288
 Red. masses --      2.3942                 2.7127                 2.0652
 Frc consts  --      0.1812                 0.2351                 0.1981
 IR Inten    --      1.7605                 0.3828                 2.4117

                     16                     17                     18
                      A                      A                      A
 Frequencies --    415.4550               436.0797               455.8125
 Red. masses --      3.4390                 3.1256                 2.1309
 Frc consts  --      0.3497                 0.3502                 0.2608
 IR Inten    --      4.3789                 0.5104                 0.3473

                     19                     20                     21
                      A                      A                      A
 Frequencies --    465.1506               518.4749               538.8579
 Red. masses --      2.5604                10.8315                 2.3051
 Frc consts  --      0.3264                 1.7155                 0.3944
 IR Inten    --      0.3014                 8.7259                 5.5611

                     22                     23                     24
                      A                      A                      A
 Frequencies --    571.8011               646.4768               758.4749
 Red. masses --      2.1742                 9.4045                 1.5145
 Frc consts  --      0.4188                 2.3157                 0.5133
 IR Inten    --      1.9001                 2.2935                 6.8685

                     25                     26                     27
                      A                      A                      A
 Frequencies --    809.2808               848.3400               873.3768
 Red. masses --      2.2065                 3.6438                 3.4355
 Frc consts  --      0.8515                 1.5451                 1.5440
 IR Inten    --      4.5197                 3.6949                14.9453

                     28                     29                     30
                      A                      A                      A
 Frequencies --    882.1129               889.3606               923.3256
 Red. masses --      1.6523                 2.4266                 2.1147
 Frc consts  --      0.7575                 1.1308                 1.0622
 IR Inten    --      1.5631                 9.6981                10.6421

                     31                     32                     33
                      A                      A                      A
 Frequencies --    927.8970               982.1093               993.2681
 Red. masses --      2.2033                 1.7262                 2.5799
 Frc consts  --      1.1177                 0.9810                 1.4996
 IR Inten    --      8.1688                 6.3164                26.2500

                     34                     35                     36
                      A                      A                      A
 Frequencies --   1016.9692              1051.8123              1054.9705
 Red. masses --      1.8944                 1.7201                 2.2293
 Frc consts  --      1.1543                 1.1212                 1.4619
 IR Inten    --     14.2508                10.0032                20.9174

                     37                     38                     39
                      A                      A                      A
 Frequencies --   1081.1650              1101.7086              1124.4411
 Red. masses --      2.1221                 2.0304                 2.2459
 Frc consts  --      1.4615                 1.4520                 1.6731
 IR Inten    --     17.3314                 9.3065                22.2433

                     40                     41                     42
                      A                      A                      A
 Frequencies --   1135.2214              1152.3662              1172.8838
 Red. masses --      1.8845                 2.2644                 1.5431
 Frc consts  --      1.4309                 1.7717                 1.2507
 IR Inten    --      5.0343                 1.6390                 5.4860

                     43                     44                     45
                      A                      A                      A
 Frequencies --   1187.6402              1202.9668              1205.3329
 Red. masses --      1.4482                 2.0843                 4.4646
 Frc consts  --      1.2035                 1.7771                 3.8216
 IR Inten    --      9.2380                36.4408                18.0479

                     46                     47                     48
                      A                      A                      A
 Frequencies --   1228.4258              1236.3811              1282.3433
 Red. masses --      1.5205                 1.5432                 1.3800
 Frc consts  --      1.3519                 1.3899                 1.3371
 IR Inten    --      9.6984                 2.9082                 6.7078

                     49                     50                     51
                      A                      A                      A
 Frequencies --   1303.8123              1319.2544              1333.7948
 Red. masses --      1.5684                 1.2323                 1.3987
 Frc consts  --      1.5708                 1.2636                 1.4661
 IR Inten    --      2.6368                 3.7728                23.1330

                     52                     53                     54
                      A                      A                      A
 Frequencies --   1338.5148              1355.9893              1371.2514
 Red. masses --      1.3269                 1.1865                 1.2684
 Frc consts  --      1.4007                 1.2854                 1.4052
 IR Inten    --      4.3640                 2.9087                 0.7608

                     55                     56                     57
                      A                      A                      A
 Frequencies --   1391.3768              1400.6712              1409.2025
 Red. masses --      1.4215                 1.3994                 1.3379
 Frc consts  --      1.6214                 1.6176                 1.5654
 IR Inten    --      4.4337                 6.5224                10.5154

                     58                     59                     60
                      A                      A                      A
 Frequencies --   1421.2504              1423.8921              1433.8203
 Red. masses --      1.4316                 1.4275                 1.4283
 Frc consts  --      1.7038                 1.7053                 1.7300
 IR Inten    --      3.5107                 1.3466                13.8709

                     61                     62                     63
                      A                      A                      A
 Frequencies --   1440.4478              1484.9227              1506.8937
 Red. masses --      1.5204                 1.1976                 1.0811
 Frc consts  --      1.8587                 1.5558                 1.4464
 IR Inten    --     14.4295                 0.1830                 4.5792

                     64                     65                     66
                      A                      A                      A
 Frequencies --   1510.5229              1513.1075              1515.2635
 Red. masses --      1.0878                 1.0902                 1.0576
 Frc consts  --      1.4623                 1.4707                 1.4307
 IR Inten    --      3.5197                 3.0731                17.2724

                     67                     68                     69
                      A                      A                      A
 Frequencies --   1519.5410              1521.2589              1531.5906
 Red. masses --      1.0856                 1.0941                 1.0958
 Frc consts  --      1.4769                 1.4918                 1.5144
 IR Inten    --      3.1376                 2.1989                 4.5355

                     70                     71                     72
                      A                      A                      A
 Frequencies --   1537.4560              1541.1036              2189.1716
 Red. masses --      1.0527                 1.1040                13.9740
 Frc consts  --      1.4661                 1.5448                39.4576
 IR Inten    --      2.1299                 5.7049               263.8848

                     73                     74                     75
                      A                      A                      A
 Frequencies --   2879.0154              2895.8652              2933.3046
 Red. masses --      1.0732                 1.0725                 1.0624
 Frc consts  --      5.2409                 5.2993                 5.3860
 IR Inten    --     38.4854                75.0887               127.6824

                     76                     77                     78
                      A                      A                      A
 Frequencies --   3016.8077              3034.0057              3042.1467
 Red. masses --      1.0662                 1.0663                 1.0646
 Frc consts  --      5.7171                 5.7832                 5.8047
 IR Inten    --     20.1300                14.7893                20.0526

                     79                     80                     81
                      A                      A                      A
 Frequencies --   3046.6986              3056.6522              3066.9079
 Red. masses --      1.0625                 1.0791                 1.0862
 Frc consts  --      5.8110                 5.9403                 6.0197
 IR Inten    --     18.7056                19.2037                43.0155

                     82                     83                     84
                      A                      A                      A
 Frequencies --   3069.6634              3071.0872              3072.6172
 Red. masses --      1.0828                 1.0779                 1.0787
 Frc consts  --      6.0115                 5.9896                 6.0000
 IR Inten    --      8.2637                13.9044                53.0207

                     85                     86                     87
                      A                      A                      A
 Frequencies --   3075.5956              3080.3772              3087.1882
 Red. masses --      1.0791                 1.0893                 1.0981
 Frc consts  --      6.0140                 6.0898                 6.1663
 IR Inten    --     36.1757                47.8893                72.1269

                     88                     89                     90
                      A                      A                      A
 Frequencies --   3091.9132              3118.1842              3123.8220
 Red. masses --      1.1048                 1.1039                 1.1080
 Frc consts  --      6.2226                 6.3239                 6.3702
 IR Inten    --     63.3153                37.5377                27.1046

 - Thermochemistry -
 -------------------
 Temperature   298.150 Kelvin.  Pressure   1.00000 Atm.
 Atom     1 has atomic number  6 and mass  12.00000

 Molecular mass:   198.14806 amu.
 Principal axes and moments of inertia in atomic units:
                           1         2         3
     Eigenvalues --  1692.467074507.515635401.95724
           X            0.99984  -0.01520   0.00930
           Y            0.01517   0.99988   0.00322
           Z           -0.00934  -0.00308   0.99995
 This molecule is an asymmetric top.
 Rotational symmetry number  1.
 Warning -- assumption of classical behavior for rotation
           may cause significant error
 Rotational temperatures (Kelvin)      0.05118     0.01922     0.01603
 Rotational constants (GHZ):           1.06634     0.40038     0.33409
 Zero-point vibrational energy     737193.2 (Joules/Mol)
                                  176.19340 (Kcal/Mol)
 Warning -- explicit consideration of  22 degrees of freedom as
           vibrations may cause significant error
 Vibrational temperatures:     37.77    45.88    88.29    98.65   169.85
          (Kelvin)            209.57   234.19   275.17   336.45   363.72
                              400.64   412.12   515.68   551.84   580.59
                              597.75   627.42   655.81   669.25   745.97
                              775.30   822.69   930.14  1091.28  1164.37
                             1220.57  1256.59  1269.16  1279.59  1328.46
                             1335.04  1413.04  1429.09  1463.19  1513.32
                             1517.87  1555.56  1585.11  1617.82  1633.33
                             1658.00  1687.52  1708.75  1730.80  1734.21
                             1767.43  1778.88  1845.01  1875.90  1898.11
                             1919.03  1925.82  1950.97  1972.92  2001.88
                             2015.25  2027.53  2044.86  2048.66  2062.95
                             2072.48  2136.47  2168.08  2173.31  2177.02
                             2180.13  2186.28  2188.75  2203.62  2212.06
                             2217.30  3149.73  4142.26  4166.50  4220.37
                             4340.51  4365.26  4376.97  4383.52  4397.84
                             4412.60  4416.56  4418.61  4420.81  4425.10
                             4431.98  4441.78  4448.57  4486.37  4494.48

 Zero-point correction=                           0.280782 (Hartree/Particle)
 Thermal correction to Energy=                    0.295246
 Thermal correction to Enthalpy=                  0.296190
 Thermal correction to Gibbs Free Energy=         0.237954
 Sum of electronic and zero-point Energies=           -647.663817
 Sum of electronic and thermal Energies=              -647.649353
 Sum of electronic and thermal Enthalpies=            -647.648409
 Sum of electronic and thermal Free Energies=         -647.706645

                     E (Thermal)             CV                S
                      KCal/Mol        Cal/Mol-Kelvin    Cal/Mol-Kelvin
 Total                  185.270             53.959            122.568
 Electronic               0.000              0.000              0.000
 Translational            0.889              2.981             41.756
 Rotational               0.889              2.981             32.088
 Vibrational            183.492             47.997             48.724
 Vibration     1          0.593              1.985              6.095
 Vibration     2          0.594              1.983              5.708
 Vibration     3          0.597              1.973              4.413
 Vibration     4          0.598              1.969              4.194
 Vibration     5          0.608              1.934              3.132
 Vibration     6          0.617              1.907              2.728
 Vibration     7          0.623              1.888              2.517
 Vibration     8          0.634              1.852              2.216
 Vibration     9          0.654              1.789              1.849
 Vibration    10          0.664              1.758              1.711
 Vibration    11          0.679              1.713              1.543
 Vibration    12          0.684              1.699              1.495
 Vibration    13          0.733              1.558              1.129
 Vibration    14          0.753              1.505              1.025
 Vibration    15          0.769              1.463              0.950
 Vibration    16          0.779              1.437              0.908
 Vibration    17          0.797              1.392              0.839
 Vibration    18          0.814              1.348              0.778
 Vibration    19          0.823              1.327              0.751
 Vibration    20          0.873              1.209              0.614
 Vibration    21          0.894              1.164              0.568
 Vibration    22          0.928              1.092              0.501

 Optimization completed.
    -- Stationary point found.
 Normal termination of Gaussian 16 at Thu Dec 10 11:09:55 2020.

 ----------------------------------------------------------------------
 # B3LYP/6-311++G(d,p) empiricaldispersion=gd3bj scf=xqc pop=npa geom=c
 heck
 ----------------------------------------------------------------------

 ---------------------------------------
 CID_152445424_JID_4891_Energie_neutraal
 ---------------------------------------
 Structure from the checkpoint file:  "JID_4891.chk"
 Charge =  0 Multiplicity = 1

 SCF Done:  E(RB3LYP) =  -648.124784773     A.U. after   15 cycles
 Normal termination of Gaussian 16 at Thu Dec 10 11:14:34 2020.

 ----------------------------------------------------------------------
 # B3LYP/6-311++G(d,p) empiricaldispersion=gd3bj scf=xqc pop=npa geom=c
 heck
 ----------------------------------------------------------------------

 -------------------------------------
 CID_152445424_JID_4891_Energie_kation
 -------------------------------------
 Structure from the checkpoint file:  "JID_4891.chk"
 Charge =  1 Multiplicity = 2

 SCF Done:  E(UB3LYP) =  -647.829603087     A.U. after   24 cycles
 Normal termination of Gaussian 16 at Thu Dec 10 11:24:41 2020.
 Gaussian 16:  ES64L-G16RevA.03 25-Dec-2016

 ----------------------------------------------------------------------
 # B3LYP/6-311++G(d,p) empiricaldispersion=gd3bj scf=xqc pop=npa geom=c
 heck
 ----------------------------------------------------------------------

 ------------------------------------
 CID_152445424_JID_4891_Energie_anion
 ------------------------------------
 Structure from the checkpoint file:  "JID_4891.chk"
 Charge = -1 Multiplicity = 2

                         Standard orientation:
 ---------------------------------------------------------------------
 Center     Atomic      Atomic             Coordinates (Angstroms)
 Number     Number       Type             X           Y           Z
 ---------------------------------------------------------------------
      1          6           0       -3.726566   -1.295784   -0.754852
      2          7           0       -2.637502   -0.348318   -0.592219
      3          6           0       -3.126318    0.959312   -0.161814
      4          6           0       -1.985841    1.975275   -0.106553
      5          6           0       -0.864604    1.477480    0.809291
      6          6           0       -0.403584    0.072527    0.395205
      7          6           0       -1.615082   -0.864034    0.313097
      8          6           0        0.671029   -0.454190    1.356767
      9          6           0        1.319622   -1.796233    0.984758
     10          6           0        1.996811   -1.856210   -0.382257
     11          8           0        3.084168   -0.916149   -0.511944
     12          7           0        2.611336    0.266348   -1.188193
     13          7           0        2.886488    1.256701   -0.474695
     14          7           0        3.100583    2.248953    0.049903
     15          1           0       -4.270057   -1.501301    0.189191
     16          1           0       -4.447870   -0.908222   -1.482431
     17          1           0       -3.336492   -2.246833   -1.133954
     18          1           0       -3.894444    1.287442   -0.871873
     19          1           0       -3.613075    0.896477    0.835232
     20          1           0       -2.370183    2.941938    0.240500
     21          1           0       -1.595534    2.121292   -1.121525
     22          1           0       -1.229277    1.442995    1.847236
     23          1           0       -0.014595    2.171175    0.796314
     24          1           0        0.018439    0.146875   -0.614679
     25          1           0       -2.021089   -1.020080    1.337122
     26          1           0       -1.310431   -1.849782   -0.057856
     27          1           0        1.456577    0.304542    1.458056
     28          1           0        0.230673   -0.553894    2.358571
     29          1           0        2.066420   -2.048747    1.747726
     30          1           0        0.572631   -2.601341    1.010634
     31          1           0        2.472300   -2.832762   -0.523315
     32          1           0        1.293513   -1.695231   -1.204828
 ---------------------------------------------------------------------

 SCF Done:  E(UB3LYP) =  -648.133593037     A.U. after   33 cycles
 SCF Done:  E(UB3LYP) =  -648.133593037     a.u. after    1 cycles

 The electronic state is 2-A.
 Alpha  occ. eigenvalues --  -19.00314 -14.26667 -14.21995 -14.20577 -14.18655
 Alpha  occ. eigenvalues --  -10.09280 -10.09176 -10.09036 -10.08605 -10.06421
 Alpha  occ. eigenvalues --  -10.05750 -10.05699 -10.05669 -10.05356  -0.97123
 Alpha  occ. eigenvalues --   -0.89940  -0.83084  -0.75760  -0.70812  -0.67364
 Alpha  occ. eigenvalues --   -0.63713  -0.59481  -0.56692  -0.51993  -0.50654
 Alpha  occ. eigenvalues --   -0.46465  -0.44847  -0.41773  -0.38717  -0.37594
 Alpha  occ. eigenvalues --   -0.35607  -0.35166  -0.34907  -0.34293  -0.32753
 Alpha  occ. eigenvalues --   -0.31792  -0.31425  -0.30344  -0.29480  -0.28557
 Alpha  occ. eigenvalues --   -0.27960  -0.27244  -0.26089  -0.25907  -0.24282
 Alpha  occ. eigenvalues --   -0.23505  -0.23059  -0.21417  -0.20313  -0.19867
 Alpha  occ. eigenvalues --   -0.18564  -0.13780  -0.12230  -0.07395   0.04668
 Alpha virt. eigenvalues --    0.06033   0.07688   0.08076   0.08802   0.09721
 Alpha virt. eigenvalues --    0.10400   0.10780   0.11052   0.11643   0.12419
 Alpha virt. eigenvalues --    0.13211   0.13448   0.13985   0.14309   0.15120

  Beta  occ. eigenvalues --  -18.99981 -14.26201 -14.22010 -14.20570 -14.17843
  Beta  occ. eigenvalues --  -10.09271 -10.09160 -10.09013 -10.08597 -10.06417
  Beta  occ. eigenvalues --  -10.05750 -10.05696 -10.05667 -10.05356  -0.96213
  Beta  occ. eigenvalues --   -0.89080  -0.83069  -0.75099  -0.70786  -0.67327
  Beta  occ. eigenvalues --   -0.63630  -0.59444  -0.56563  -0.51924  -0.50576
  Beta  occ. eigenvalues --   -0.46352  -0.44755  -0.41276  -0.38668  -0.37549
  Beta  occ. eigenvalues --   -0.35535  -0.35087  -0.34361  -0.33334  -0.32545
  Beta  occ. eigenvalues --   -0.31610  -0.31113  -0.30226  -0.29084  -0.28472
  Beta  occ. eigenvalues --   -0.27164  -0.26677  -0.25735  -0.25360  -0.24068
  Beta  occ. eigenvalues --   -0.23404  -0.22820  -0.21390  -0.20277  -0.19833
  Beta  occ. eigenvalues --   -0.17330  -0.13313  -0.12194  -0.07069
  Beta virt. eigenvalues --    0.06508   0.07819   0.08154   0.08784   0.09891
  Beta virt. eigenvalues --    0.10344   0.10782   0.11051   0.11439   0.12409
  Beta virt. eigenvalues --    0.12632   0.13239   0.13422   0.14041   0.14255

 Mulliken charges and spin densities:
               1          2
     1  C    0.486417  -0.744692
     2  N    0.093257   0.117941
     3  C    0.009948  -0.316308
     4  C   -0.379784  -0.054428
     5  C   -0.286062   0.017960
     6  C    0.689095  -0.024172
     7  C   -1.146638  -0.047050
     8  C   -0.110941  -0.010526
     9  C   -0.476368   0.025101
    10  C   -0.348949  -0.083856
    11  O   -0.036583   0.011730
    12  N   -0.723959   0.025534
    13  N    0.331414   0.113233
    14  N   -0.170226   0.502639
    15  H   -0.133663   0.230439
    16  H   -0.198401   0.332261
    17  H   -0.207533   0.318098
    18  H   -0.040021   0.195149
    19  H    0.059115   0.026566
    20  H    0.048471   0.107556
    21  H    0.128832   0.007629
    22  H    0.117655   0.003629
    23  H    0.110346   0.058736
    24  H    0.242458  -0.005482
    25  H    0.048919   0.064790
    26  H    0.381618  -0.167567
    27  H    0.196121  -0.046431
    28  H    0.069210   0.050326
    29  H    0.146554   0.034297
    30  H   -0.013523   0.086413
    31  H    0.109464   0.026755
    32  H    0.003758   0.143732
 Sum of Mulliken charges =  -1.00000   1.00000

 Dipole moment (field-independent basis, Debye):
    X=             -4.0179    Y=             -2.3324    Z=              2.7459  Tot=              5.3967
 Quadrupole moment (field-independent basis, Debye-Ang):
   XX=           -158.5516   YY=           -113.8794   ZZ=           -105.8241
   XY=            -15.5940   XZ=             -0.2159   YZ=             -1.6952

 Summary of Natural Population Analysis:

                                       Natural Population
                Natural  -----------------------------------------------
    Atom  No    Charge         Core      Valence    Rydberg      Total
 -----------------------------------------------------------------------
      C    1   -0.17506      0.99965     2.16683    0.00858     3.17506
      N    2   -0.27855      0.99971     2.76690    0.01194     3.77855
      C    3   -0.08359      0.99962     2.07162    0.01235     3.08359
      C    4   -0.19200      0.99963     2.18476    0.00762     3.19200
      C    5   -0.18764      0.99962     2.18071    0.00731     3.18764
      C    6   -0.12691      0.99958     2.11620    0.01113     3.12691
      C    7   -0.08307      0.99959     2.07075    0.01272     3.08307
      C    8   -0.19146      0.99961     2.18295    0.00890     3.19146
      C    9   -0.20102      0.99962     2.19325    0.00815     3.20102
      C   10   -0.01167      0.99959     1.99917    0.01292     3.01167
      O   11   -0.21146      0.99990     3.20167    0.00990     4.21146
      N   12   -0.10509      0.99973     2.58814    0.01722     3.60509
      N   13    0.12512      0.99971     2.35854    0.01662     3.37488
      N   14    0.05516      0.99982     2.43208    0.01294     3.44484
      H   15    0.07802      0.00000     0.42045    0.00154     0.42198
      H   16    0.09460      0.00000     0.40415    0.00125     0.40540
      H   17    0.09478      0.00000     0.40415    0.00107     0.40522
      H   18    0.09463      0.00000     0.40410    0.00127     0.40537
      H   19    0.07457      0.00000     0.42383    0.00160     0.42543
      H   20    0.09516      0.00000     0.40392    0.00092     0.40484
      H   21    0.09990      0.00000     0.39869    0.00141     0.40010
      H   22    0.08821      0.00000     0.41054    0.00125     0.41179
      H   23    0.10955      0.00000     0.38925    0.00121     0.39045
      H   24    0.10996      0.00000     0.38650    0.00354     0.39004
      H   25    0.07426      0.00000     0.42419    0.00155     0.42574
      H   26    0.09599      0.00000     0.40246    0.00155     0.40401
      H   27    0.10860      0.00000     0.38946    0.00194     0.39140
      H   28    0.09131      0.00000     0.40762    0.00107     0.40869
      H   29    0.09678      0.00000     0.40201    0.00121     0.40322
      H   30    0.09102      0.00000     0.40742    0.00156     0.40898
      H   31    0.08225      0.00000     0.41646    0.00129     0.41775
      H   32    0.08763      0.00000     0.41067    0.00171     0.41237
 =======================================================================
   * Total *    0.00000     13.99538    39.81942    0.18521    54.00000

 Normal termination of Gaussian 16 at Thu Dec 10 11:38:43 2020.
