 Gaussian 16, Revision A.03,

 -----------------------------------------------------------
 # opt freq B3LYP/6-31G(d) empiricaldispersion=gd3bj scf=xqc
 -----------------------------------------------------------

 -------------------------------
 CID_104316888_JID_8374_neutraal
 -------------------------------
 Symbolic Z-matrix:
 Charge =  0 Multiplicity = 1

 SCF Done:  E(RB3LYP) =  -807.938757245     A.U. after   14 cycles
 SCF Done:  E(RB3LYP) =  -807.944507783     A.U. after   12 cycles
 SCF Done:  E(RB3LYP) =  -807.944992213     A.U. after   12 cycles
 SCF Done:  E(RB3LYP) =  -807.945908810     A.U. after   12 cycles
 SCF Done:  E(RB3LYP) =  -807.946424226     A.U. after   11 cycles
 SCF Done:  E(RB3LYP) =  -807.946985579     A.U. after   11 cycles
 SCF Done:  E(RB3LYP) =  -807.947417196     A.U. after   12 cycles
 SCF Done:  E(RB3LYP) =  -807.947721309     A.U. after   10 cycles
 SCF Done:  E(RB3LYP) =  -807.947927383     A.U. after   11 cycles
 SCF Done:  E(RB3LYP) =  -807.947957732     A.U. after   10 cycles
 SCF Done:  E(RB3LYP) =  -807.947963965     A.U. after    8 cycles
 SCF Done:  E(RB3LYP) =  -807.947964042     A.U. after    7 cycles
 SCF Done:  E(RB3LYP) =  -807.947964060     A.U. after    7 cycles
 SCF Done:  E(RB3LYP) =  -807.947964045     A.U. after    7 cycles
 SCF Done:  E(RB3LYP) =  -807.947964024     A.U. after    7 cycles
 Optimization completed.
    -- Stationary point found.
 Normal termination of Gaussian 16 at Fri Dec 11 20:21:10 2020.

 --------------------------------------------------------------------
 #N Geom=AllCheck Guess=TCheck SCRF=Check GenChk RB3LYP/6-31G(d) Freq
 --------------------------------------------------------------------

 Structure from the checkpoint file:  "JID_8374.chk"
 -------------------------------
 CID_104316888_JID_8374_neutraal
 -------------------------------
 Charge =  0 Multiplicity = 1

 SCF Done:  E(RB3LYP) =  -807.947964024     A.U. after    1 cycles

  Exact polarizability: 236.453  -7.949 153.224  -8.767  -3.026 123.560
 Approx polarizability: 282.698  -7.730 252.901 -21.516 -12.213 181.189

                      1                      2                      3
                      A                      A                      A
 Frequencies --     15.2166                20.7126                22.6625
 Red. masses --      3.9928                 3.0452                 4.3945
 Frc consts  --      0.0005                 0.0008                 0.0013
 IR Inten    --      0.5518                 0.3726                 0.0108

                      4                      5                      6
                      A                      A                      A
 Frequencies --     41.0123                58.8058                84.9554
 Red. masses --      3.8259                 4.7623                 4.0193
 Frc consts  --      0.0038                 0.0097                 0.0171
 IR Inten    --      0.8373                 1.5983                 1.1137

                      7                      8                      9
                      A                      A                      A
 Frequencies --    106.7360               120.1105               161.1619
 Red. masses --      2.9639                 3.0549                 3.9114
 Frc consts  --      0.0199                 0.0260                 0.0599
 IR Inten    --      0.2130                 1.6630                 1.3516

                     10                     11                     12
                      A                      A                      A
 Frequencies --    184.2549               203.3292               227.6466
 Red. masses --      5.5376                 2.9968                 1.0769
 Frc consts  --      0.1108                 0.0730                 0.0329
 IR Inten    --      0.4867                 0.7791                 0.1990

                     13                     14                     15
                      A                      A                      A
 Frequencies --    241.0977               270.1028               280.6285
 Red. masses --      1.6726                 1.0376                 1.0742
 Frc consts  --      0.0573                 0.0446                 0.0498
 IR Inten    --      0.5845                 0.3205                 0.1963

                     16                     17                     18
                      A                      A                      A
 Frequencies --    293.5231               320.8757               328.0616
 Red. masses --      1.4234                 2.8079                 2.6783
 Frc consts  --      0.0723                 0.1703                 0.1698
 IR Inten    --      0.4130                 1.0144                 0.8677

                     19                     20                     21
                      A                      A                      A
 Frequencies --    346.1521               349.1295               373.6703
 Red. masses --      2.3870                 2.8397                 3.1717
 Frc consts  --      0.1685                 0.2039                 0.2609
 IR Inten    --      1.7016                 1.1503                 0.5174

                     22                     23                     24
                      A                      A                      A
 Frequencies --    384.6615               425.6518               428.5326
 Red. masses --      2.1840                 2.8538                 2.7098
 Frc consts  --      0.1904                 0.3046                 0.2932
 IR Inten    --      0.2396                 2.2327                 0.5106

                     25                     26                     27
                      A                      A                      A
 Frequencies --    444.2481               454.5324               467.1527
 Red. masses --      2.5172                 2.5379                 3.1186
 Frc consts  --      0.2927                 0.3089                 0.4010
 IR Inten    --      9.2578                14.9509                 4.5463

                     28                     29                     30
                      A                      A                      A
 Frequencies --    483.6053               489.6944               545.3959
 Red. masses --      1.9918                 1.7406                 2.8990
 Frc consts  --      0.2745                 0.2459                 0.5081
 IR Inten    --     42.5223                65.1273                 4.4577

                     31                     32                     33
                      A                      A                      A
 Frequencies --    579.2513               637.8698               653.6797
 Red. masses --      3.2359                 2.4871                 6.8304
 Frc consts  --      0.6397                 0.5962                 1.7196
 IR Inten    --      5.1446                13.3934                 3.3379

                     34                     35                     36
                      A                      A                      A
 Frequencies --    731.3661               762.9162               779.1699
 Red. masses --      2.7071                 3.3714                 1.9571
 Frc consts  --      0.8531                 1.1562                 0.7001
 IR Inten    --     42.7513                 7.4892                42.0158

                     37                     38                     39
                      A                      A                      A
 Frequencies --    788.8311               808.3074               852.4984
 Red. masses --      3.0682                 3.2302                 1.6596
 Frc consts  --      1.1249                 1.2435                 0.7106
 IR Inten    --      3.1237                 1.6546                17.7583

                     40                     41                     42
                      A                      A                      A
 Frequencies --    870.7317               907.7900               908.8848
 Red. masses --      2.9463                 2.5502                 1.4465
 Frc consts  --      1.3161                 1.2382                 0.7040
 IR Inten    --      5.3752                 8.1775                 4.2508

                     43                     44                     45
                      A                      A                      A
 Frequencies --    921.2189               936.0902               938.0085
 Red. masses --      1.7367                 1.9599                 2.0143
 Frc consts  --      0.8684                 1.0119                 1.0442
 IR Inten    --      1.6923                 1.1408                15.5120

                     46                     47                     48
                      A                      A                      A
 Frequencies --    965.9538               970.7868               971.8253
 Red. masses --      1.5041                 1.3510                 1.3607
 Frc consts  --      0.8269                 0.7502                 0.7572
 IR Inten    --      4.5100                 0.7919                 1.4723

                     49                     50                     51
                      A                      A                      A
 Frequencies --   1000.8783              1004.8154              1015.6030
 Red. masses --      2.1041                 1.7596                 1.4269
 Frc consts  --      1.2419                 1.0467                 0.8671
 IR Inten    --      3.8958                 4.3123                 4.0593

                     52                     53                     54
                      A                      A                      A
 Frequencies --   1036.6374              1044.5224              1057.8698
 Red. masses --      2.2105                 2.6414                 1.5700
 Frc consts  --      1.3995                 1.6979                 1.0352
 IR Inten    --      8.6188                15.9710                 8.1342

                     55                     56                     57
                      A                      A                      A
 Frequencies --   1061.8338              1094.3403              1123.0692
 Red. masses --      1.4600                 2.7799                 3.2292
 Frc consts  --      0.9699                 1.9615                 2.3997
 IR Inten    --      8.3222               113.4923                 9.7997

                     58                     59                     60
                      A                      A                      A
 Frequencies --   1155.0352              1157.9764              1171.2879
 Red. masses --      1.7316                 1.2921                 2.0683
 Frc consts  --      1.3611                 1.0208                 1.6718
 IR Inten    --     29.5032                 8.7266                38.8377

                     61                     62                     63
                      A                      A                      A
 Frequencies --   1218.0470              1252.3696              1267.8623
 Red. masses --      1.4383                 2.4398                 1.6628
 Frc consts  --      1.2573                 2.2546                 1.5748
 IR Inten    --     20.5602                75.1787                 9.6217

                     64                     65                     66
                      A                      A                      A
 Frequencies --   1268.9888              1272.9949              1274.1542
 Red. masses --      1.5421                 2.0512                 1.4731
 Frc consts  --      1.4631                 1.9585                 1.4091
 IR Inten    --      3.8279                58.0207                15.8714

                     67                     68                     69
                      A                      A                      A
 Frequencies --   1296.2966              1300.9642              1323.9202
 Red. masses --      3.6545                 2.8232                 3.2987
 Frc consts  --      3.6182                 2.8153                 3.4066
 IR Inten    --    266.9819                92.0552                66.3925

                     70                     71                     72
                      A                      A                      A
 Frequencies --   1350.2072              1357.3789              1384.3877
 Red. masses --      1.3090                 1.5201                 1.4565
 Frc consts  --      1.4060                 1.6501                 1.6446
 IR Inten    --      1.0159                 1.4808                 9.8765

                     73                     74                     75
                      A                      A                      A
 Frequencies --   1396.6946              1403.4222              1422.7050
 Red. masses --      1.4483                 1.3600                 1.2498
 Frc consts  --      1.6646                 1.5782                 1.4905
 IR Inten    --      8.9442                 3.0600                10.3438

                     76                     77                     78
                      A                      A                      A
 Frequencies --   1427.1783              1435.9167              1437.5456
 Red. masses --      1.3241                 1.2809                 2.6632
 Frc consts  --      1.5890                 1.5560                 3.2427
 IR Inten    --     13.8014                11.7686                14.6673

                     79                     80                     81
                      A                      A                      A
 Frequencies --   1448.3486              1451.2708              1467.8308
 Red. masses --      1.4527                 1.2330                 1.1813
 Frc consts  --      1.7955                 1.5301                 1.4995
 IR Inten    --     24.1709                11.3591                57.1019

                     82                     83                     84
                      A                      A                      A
 Frequencies --   1496.9768              1504.2004              1510.8658
 Red. masses --      1.0958                 1.1099                 1.0819
 Frc consts  --      1.4468                 1.4796                 1.4550
 IR Inten    --      6.7707                17.9940                13.2092

                     85                     86                     87
                      A                      A                      A
 Frequencies --   1514.5592              1519.8034              1521.5880
 Red. masses --      1.0544                 1.0504                 1.0681
 Frc consts  --      1.4251                 1.4295                 1.4570
 IR Inten    --      1.5720                 3.3091                 8.1467

                     88                     89                     90
                      A                      A                      A
 Frequencies --   1530.0414              1532.0885              1538.8569
 Red. masses --      1.1103                 1.0623                 1.0897
 Frc consts  --      1.5314                 1.4691                 1.5204
 IR Inten    --     25.2390                 3.3609                 5.0682

                     91                     92                     93
                      A                      A                      A
 Frequencies --   1543.9972              1548.0109              1550.6756
 Red. masses --      1.6215                 1.1315                 1.0605
 Frc consts  --      2.2776                 1.5975                 1.5024
 IR Inten    --    153.9233                 3.9655                 6.5399

                     94                     95                     96
                      A                      A                      A
 Frequencies --   1558.3901              1625.6784              1657.5660
 Red. masses --      1.3635                 6.2392                 6.0660
 Frc consts  --      1.9510                 9.7152                 9.8196
 IR Inten    --     18.7804                 3.5368                26.2483

                     97                     98                     99
                      A                      A                      A
 Frequencies --   2954.8709              3035.7149              3038.8919
 Red. masses --      1.0723                 1.0561                 1.0371
 Frc consts  --      5.5161                 5.7343                 5.6428
 IR Inten    --     56.6263                13.7396                20.6578

                    100                    101                    102
                      A                      A                      A
 Frequencies --   3044.0432              3045.5918              3051.7426
 Red. masses --      1.0372                 1.0447                 1.0627
 Frc consts  --      5.6626                 5.7096                 5.8312
 IR Inten    --     36.5561                10.8749                20.4365

                    103                    104                    105
                      A                      A                      A
 Frequencies --   3056.2820              3064.2177              3077.0084
 Red. masses --      1.0361                 1.0795                 1.1081
 Frc consts  --      5.7019                 5.9720                 6.1813
 IR Inten    --      9.8156                55.3882                28.3529

                    106                    107                    108
                      A                      A                      A
 Frequencies --   3102.2180              3104.9172              3108.9473
 Red. masses --      1.1005                 1.1016                 1.0993
 Frc consts  --      6.2398                 6.2569                 6.2601
 IR Inten    --      3.7980                31.0834                46.9554

                    109                    110                    111
                      A                      A                      A
 Frequencies --   3112.6468              3113.7072              3118.7734
 Red. masses --      1.1011                 1.0978                 1.0969
 Frc consts  --      6.2856                 6.2710                 6.2863
 IR Inten    --     51.6855                21.4178                45.8396

                    112                    113                    114
                      A                      A                      A
 Frequencies --   3124.4165              3131.4650              3135.5525
 Red. masses --      1.0957                 1.1028                 1.1011
 Frc consts  --      6.3018                 6.3717                 6.3784
 IR Inten    --     44.0385                 6.1157                30.4084

                    115                    116                    117
                      A                      A                      A
 Frequencies --   3136.7603              3190.4598              3201.3099
 Red. masses --      1.1024                 1.0887                 1.0894
 Frc consts  --      6.3909                 6.5295                 6.5782
 IR Inten    --     48.7151                19.3411                23.7236

                    118                    119                    120
                      A                      A                      A
 Frequencies --   3212.7352              3466.9868              3718.7366
 Red. masses --      1.0948                 1.0736                 1.0650
 Frc consts  --      6.6577                 7.6030                 8.6775
 IR Inten    --      6.9967                 2.6670               149.4970

 - Thermochemistry -
 -------------------
 Temperature   298.150 Kelvin.  Pressure   1.00000 Atm.
 Atom     1 has atomic number  6 and mass  12.00000

 Molecular mass:   252.18378 amu.
 Principal axes and moments of inertia in atomic units:
                           1         2         3
     Eigenvalues --  1298.66773********************
           X            0.99998  -0.00594   0.00312
           Y            0.00586   0.99972   0.02305
           Z           -0.00325  -0.02303   0.99973
 This molecule is an asymmetric top.
 Rotational symmetry number  1.
 Warning -- assumption of classical behavior for rotation
           may cause significant error
 Rotational temperatures (Kelvin)      0.06669     0.00589     0.00579
 Rotational constants (GHZ):           1.38969     0.12273     0.12059
 Zero-point vibrational energy     975208.6 (Joules/Mol)
                                  233.08045 (Kcal/Mol)
 Warning -- explicit consideration of  31 degrees of freedom as
           vibrations may cause significant error
 Vibrational temperatures:     21.89    29.80    32.61    59.01    84.61
          (Kelvin)            122.23   153.57   172.81   231.88   265.10
                              292.55   327.53   346.89   388.62   403.76
                              422.31   461.67   472.01   498.04   502.32
                              537.63   553.44   612.42   616.56   639.17
                              653.97   672.13   695.80   704.56   784.70
                              833.41   917.75   940.50  1052.27  1097.67
                             1121.05  1134.95  1162.97  1226.55  1252.79
                             1306.11  1307.68  1325.43  1346.82  1349.59
                             1389.79  1396.75  1398.24  1440.04  1445.71
                             1461.23  1491.49  1502.83  1522.04  1527.74
                             1574.51  1615.85  1661.84  1666.07  1685.22
                             1752.50  1801.88  1824.17  1825.79  1831.56
                             1833.22  1865.08  1871.80  1904.83  1942.65
                             1952.97  1991.83  2009.53  2019.21  2046.96
                             2053.39  2065.96  2068.31  2083.85  2088.06
                             2111.88  2153.82  2164.21  2173.80  2179.11
                             2186.66  2189.23  2201.39  2204.33  2214.07
                             2221.47  2227.24  2231.08  2242.18  2338.99
                             2384.87  4251.40  4367.72  4372.29  4379.70
                             4381.93  4390.78  4397.31  4408.73  4427.13
                             4463.40  4467.28  4473.08  4478.40  4479.93
                             4487.22  4495.34  4505.48  4511.36  4513.10
                             4590.36  4605.97  4622.41  4988.22  5350.43

 Zero-point correction=                           0.371437 (Hartree/Particle)
 Thermal correction to Energy=                    0.391086
 Thermal correction to Enthalpy=                  0.392030
 Thermal correction to Gibbs Free Energy=         0.320810
 Sum of electronic and zero-point Energies=           -807.576527
 Sum of electronic and thermal Energies=              -807.556878
 Sum of electronic and thermal Enthalpies=            -807.555934
 Sum of electronic and thermal Free Energies=         -807.627154

                     E (Thermal)             CV                S
                      KCal/Mol        Cal/Mol-Kelvin    Cal/Mol-Kelvin
 Total                  245.410             74.433            149.896
 Electronic               0.000              0.000              0.000
 Translational            0.889              2.981             42.475
 Rotational               0.889              2.981             34.013
 Vibrational            243.633             68.471             73.408
 Vibration     1          0.593              1.986              7.177
 Vibration     2          0.593              1.986              6.565
 Vibration     3          0.593              1.985              6.386
 Vibration     4          0.594              1.981              5.210
 Vibration     5          0.596              1.974              4.497
 Vibration     6          0.601              1.960              3.773
 Vibration     7          0.606              1.944              3.327
 Vibration     8          0.609              1.932              3.099
 Vibration     9          0.622              1.890              2.536
 Vibration    10          0.631              1.861              2.285
 Vibration    11          0.639              1.835              2.103
 Vibration    12          0.651              1.799              1.897
 Vibration    13          0.658              1.777              1.795
 Vibration    14          0.674              1.728              1.596
 Vibration    15          0.680              1.709              1.530
 Vibration    16          0.688              1.686              1.454
 Vibration    17          0.706              1.634              1.306
 Vibration    18          0.711              1.619              1.270
 Vibration    19          0.724              1.583              1.184
 Vibration    20          0.726              1.577              1.170
 Vibration    21          0.745              1.526              1.065
 Vibration    22          0.754              1.503              1.021
 Vibration    23          0.787              1.414              0.873
 Vibration    24          0.790              1.408              0.863
 Vibration    25          0.804              1.374              0.813
 Vibration    26          0.813              1.351              0.782
 Vibration    27          0.824              1.323              0.746
 Vibration    28          0.840              1.286              0.700
 Vibration    29          0.846              1.273              0.684
 Vibration    30          0.901              1.150              0.554
 Vibration    31          0.936              1.076              0.487

                           ! Non-Optimized Parameters !
 Normal termination of Gaussian 16 at Fri Dec 11 20:35:42 2020.

 ----------------------------------------------------------------------
 # B3LYP/6-311++G(d,p) empiricaldispersion=gd3bj scf=xqc pop=npa geom=c
 heck
 ----------------------------------------------------------------------

 ---------------------------------------
 CID_104316888_JID_8374_Energie_neutraal
 ---------------------------------------
 Structure from the checkpoint file:  "JID_8374.chk"
 Charge =  0 Multiplicity = 1

 SCF Done:  E(RB3LYP) =  -808.184627059     A.U. after   16 cycles
 Normal termination of Gaussian 16 at Fri Dec 11 20:42:46 2020.

 ----------------------------------------------------------------------
 # B3LYP/6-311++G(d,p) empiricaldispersion=gd3bj scf=xqc pop=npa geom=c
 heck
 ----------------------------------------------------------------------

 -------------------------------------
 CID_104316888_JID_8374_Energie_kation
 -------------------------------------
 Structure from the checkpoint file:  "JID_8374.chk"
 Charge =  1 Multiplicity = 2

 SCF Done:  E(UB3LYP) =  -807.890365667     A.U. after   28 cycles
 Normal termination of Gaussian 16 at Fri Dec 11 21:00:20 2020.
 Gaussian 16:  ES64L-G16RevA.03 25-Dec-2016

 ----------------------------------------------------------------------
 # B3LYP/6-311++G(d,p) empiricaldispersion=gd3bj scf=xqc pop=npa geom=c
 heck
 ----------------------------------------------------------------------

 ------------------------------------
 CID_104316888_JID_8374_Energie_anion
 ------------------------------------
 Structure from the checkpoint file:  "JID_8374.chk"
 Charge = -1 Multiplicity = 2

                         Standard orientation:
 ---------------------------------------------------------------------
 Center     Atomic      Atomic             Coordinates (Angstroms)
 Number     Number       Type             X           Y           Z
 ---------------------------------------------------------------------
      1          6           0        5.522718   -0.056245    1.437267
      2          6           0        5.620113    0.199583   -0.069587
      3          6           0        4.915257   -0.873799   -0.922707
      4          6           0        3.478277   -1.173353   -0.520560
      5          8           0        2.739081    0.058258   -0.538467
      6          6           0        1.422866    0.032477   -0.174252
      7          6           0        0.718062   -1.117725    0.199797
      8          7           0       -0.573453   -1.099074    0.547769
      9          6           0       -1.228078    0.067498    0.546254
     10          6           0       -0.594097    1.268015    0.193276
     11          6           0        0.743272    1.253972   -0.174120
     12          6           0       -2.696061    0.044335    0.898471
     13          7           0       -3.491159   -0.093304   -0.325547
     14          6           0       -4.961162   -0.019187   -0.188702
     15          6           0       -5.449441    1.326958    0.385861
     16          6           0       -5.525211   -0.202732   -1.604956
     17          6           0       -5.440704   -1.174347    0.702224
     18          8           0        5.158673    1.506414   -0.398471
     19          1           0        4.484746    0.014823    1.782279
     20          1           0        6.103255    0.698479    1.975469
     21          1           0        5.907003   -1.048219    1.705605
     22          1           0        6.678968    0.196729   -0.354510
     23          1           0        4.941621   -0.545812   -1.967821
     24          1           0        5.471010   -1.818701   -0.861687
     25          1           0        3.017901   -1.883924   -1.219015
     26          1           0        3.430043   -1.605958    0.486538
     27          1           0        1.200945   -2.090040    0.223638
     28          1           0       -1.147614    2.202909    0.213322
     29          1           0        1.271795    2.160054   -0.454651
     30          1           0       -2.877664   -0.824045    1.535847
     31          1           0       -2.937638    0.948589    1.485934
     32          1           0       -3.194281    0.625555   -0.985403
     33          1           0       -5.113071    2.161037   -0.242913
     34          1           0       -6.544174    1.361270    0.429515
     35          1           0       -5.074997    1.494280    1.401331
     36          1           0       -5.189930   -1.155513   -2.025684
     37          1           0       -6.620428   -0.183772   -1.596083
     38          1           0       -5.182987    0.601941   -2.268554
     39          1           0       -5.034377   -2.123773    0.339424
     40          1           0       -5.129394   -1.042564    1.743912
     41          1           0       -6.534398   -1.232682    0.690924
     42          1           0        4.189038    1.465904   -0.347063
 ---------------------------------------------------------------------

 SCF Done:  E(UB3LYP) =  -808.177627054     A.U. after   33 cycles
 SCF Done:  E(UB3LYP) =  -808.177627054     a.u. after    1 cycles

 The electronic state is 2-A.
 Alpha  occ. eigenvalues --  -19.07007 -19.02132 -14.19950 -14.19461 -10.14204
 Alpha  occ. eigenvalues --  -10.13850 -10.13432 -10.11874 -10.10080 -10.09631
 Alpha  occ. eigenvalues --  -10.09424 -10.08603 -10.07744 -10.07643 -10.07414
 Alpha  occ. eigenvalues --  -10.06974 -10.06972 -10.06950  -0.98409  -0.92738
 Alpha  occ. eigenvalues --   -0.83945  -0.81315  -0.71920  -0.70102  -0.69116
 Alpha  occ. eigenvalues --   -0.65879  -0.63712  -0.60433  -0.60111  -0.58060
 Alpha  occ. eigenvalues --   -0.56768  -0.53288  -0.50208  -0.49468  -0.46184
 Alpha  occ. eigenvalues --   -0.45164  -0.41878  -0.40705  -0.40283  -0.38063
 Alpha  occ. eigenvalues --   -0.37840  -0.36948  -0.36296  -0.35313  -0.34513
 Alpha  occ. eigenvalues --   -0.34230  -0.33514  -0.32379  -0.32245  -0.31256
 Alpha  occ. eigenvalues --   -0.30514  -0.29686  -0.29228  -0.29064  -0.28403
 Alpha  occ. eigenvalues --   -0.28121  -0.27515  -0.27368  -0.26810  -0.25460
 Alpha  occ. eigenvalues --   -0.24666  -0.24460  -0.23802  -0.22215  -0.18385
 Alpha  occ. eigenvalues --   -0.18222  -0.15153  -0.13731  -0.13151   0.03811
 Alpha virt. eigenvalues --    0.05016   0.05716   0.07040   0.07412   0.07607
 Alpha virt. eigenvalues --    0.07833   0.08287   0.08707   0.09019   0.09314
 Alpha virt. eigenvalues --    0.10070   0.10208   0.10616   0.10881   0.11016

  Beta  occ. eigenvalues --  -19.07010 -19.02127 -14.19932 -14.19231 -10.14188
  Beta  occ. eigenvalues --  -10.13866 -10.13424 -10.11872 -10.10086 -10.09571
  Beta  occ. eigenvalues --  -10.09423 -10.08583 -10.07706 -10.07477 -10.07396
  Beta  occ. eigenvalues --  -10.06954 -10.06949 -10.06934  -0.98407  -0.92726
  Beta  occ. eigenvalues --   -0.83689  -0.81240  -0.71817  -0.70038  -0.68936
  Beta  occ. eigenvalues --   -0.65792  -0.63650  -0.60399  -0.60068  -0.58021
  Beta  occ. eigenvalues --   -0.56644  -0.53107  -0.50089  -0.49418  -0.46134
  Beta  occ. eigenvalues --   -0.45106  -0.41846  -0.40623  -0.40212  -0.38028
  Beta  occ. eigenvalues --   -0.37813  -0.36898  -0.36246  -0.35265  -0.34473
  Beta  occ. eigenvalues --   -0.34193  -0.33466  -0.32302  -0.32185  -0.31208
  Beta  occ. eigenvalues --   -0.30351  -0.29562  -0.29165  -0.29021  -0.28365
  Beta  occ. eigenvalues --   -0.28075  -0.27470  -0.27329  -0.26660  -0.25417
  Beta  occ. eigenvalues --   -0.24628  -0.24362  -0.23671  -0.22163  -0.18316
  Beta  occ. eigenvalues --   -0.17416  -0.14902  -0.13367  -0.13105
  Beta virt. eigenvalues --    0.05649   0.05967   0.07289   0.07373   0.07756
  Beta virt. eigenvalues --    0.07843   0.08013   0.08417   0.08926   0.09095
  Beta virt. eigenvalues --    0.09556   0.10183   0.10311   0.10607   0.10954

 Mulliken charges and spin densities:
               1          2
     1  C    0.271179  -0.810804
     2  C   -0.720366   0.636682
     3  C    0.511866  -1.204996
     4  C   -0.148454   0.128802
     5  O   -0.136374   0.006908
     6  C    0.285806  -0.525162
     7  C   -0.186489   0.157288
     8  N    0.021986   0.129228
     9  C    0.940110  -0.400200
    10  C   -0.487382   0.322610
    11  C   -0.094025   0.168325
    12  C   -1.048829  -0.225183
    13  N    0.310029  -0.092638
    14  C   -1.171001   1.136290
    15  C    0.506444  -0.981853
    16  C   -0.118396  -0.339149
    17  C    0.166589  -0.668426
    18  O   -0.184917  -0.033453
    19  H    0.100415   0.054451
    20  H    0.028425   0.127338
    21  H   -0.113455   0.245639
    22  H   -0.185701   0.376324
    23  H    0.125190   0.078185
    24  H   -0.420793   0.586229
    25  H   -0.101448   0.287021
    26  H    0.251810  -0.086978
    27  H   -0.017821   0.217932
    28  H   -0.047246   0.203813
    29  H    0.038039   0.105896
    30  H    0.145028   0.032525
    31  H    0.136601  -0.030697
    32  H    0.242592  -0.052354
    33  H   -0.051812   0.191759
    34  H   -0.124713   0.274995
    35  H   -0.059548   0.201423
    36  H    0.073376   0.086322
    37  H   -0.030201   0.159466
    38  H   -0.108007   0.238341
    39  H    0.158988   0.003704
    40  H    0.009380   0.129914
    41  H   -0.064571   0.208333
    42  H    0.297697  -0.043852
 Sum of Mulliken charges =  -1.00000   1.00000

 Dipole moment (field-independent basis, Debye):
    X=             -1.2774    Y=              1.1211    Z=              1.0650  Tot=              2.0057
 Quadrupole moment (field-independent basis, Debye-Ang):
   XX=           -259.4181   YY=           -147.1259   ZZ=           -137.5220
   XY=              5.2784   XZ=              0.9104   YZ=             -0.4745

 Summary of Natural Population Analysis:

                                       Natural Population
                Natural  -----------------------------------------------
    Atom  No    Charge         Core      Valence    Rydberg      Total
 -----------------------------------------------------------------------
      C    1   -0.30151      0.99965     2.29549    0.00638     3.30151
      C    2    0.05968      0.99959     1.92490    0.01583     2.94032
      C    3   -0.21082      0.99960     2.20154    0.00968     3.21082
      C    4   -0.01449      0.99956     2.00197    0.01296     3.01449
      O    5   -0.29339      0.99985     3.28357    0.00997     4.29339
      C    6    0.13788      0.99938     1.85148    0.01127     2.86212
      C    7   -0.00428      0.99954     1.99270    0.01204     3.00428
      N    8   -0.19774      0.99968     2.68701    0.01105     3.69774
      C    9    0.09190      0.99954     1.89471    0.01386     2.90810
      C   10   -0.11253      0.99951     2.10499    0.00804     3.11253
      C   11   -0.07706      0.99953     2.06838    0.00915     3.07706
      C   12   -0.10034      0.99958     2.09008    0.01067     3.10034
      N   13   -0.33816      0.99971     2.82747    0.01097     3.83816
      C   14    0.05425      0.99960     1.93451    0.01165     2.94575
      C   15   -0.29612      0.99962     2.28936    0.00714     3.29612
      C   16   -0.28509      0.99962     2.27803    0.00745     3.28509
      C   17   -0.29086      0.99962     2.28417    0.00707     3.29086
      O   18   -0.37986      0.99990     3.37329    0.00668     4.37986
      H   19    0.09856      0.00000     0.40038    0.00105     0.40144
      H   20    0.10294      0.00000     0.39615    0.00091     0.39706
      H   21    0.09993      0.00000     0.39907    0.00100     0.40007
      H   22    0.08608      0.00000     0.41262    0.00130     0.41392
      H   23    0.10441      0.00000     0.39440    0.00118     0.39559
      H   24    0.10720      0.00000     0.39097    0.00183     0.39280
      H   25    0.09176      0.00000     0.40675    0.00149     0.40824
      H   26    0.08558      0.00000     0.41281    0.00161     0.41442
      H   27    0.09038      0.00000     0.40782    0.00180     0.40962
      H   28    0.10037      0.00000     0.39863    0.00100     0.39963
      H   29    0.10026      0.00000     0.39833    0.00141     0.39974
      H   30    0.10096      0.00000     0.39711    0.00194     0.39904
      H   31    0.07918      0.00000     0.41917    0.00165     0.42082
      H   32    0.17141      0.00000     0.32544    0.00315     0.32859
      H   33    0.09897      0.00000     0.39992    0.00110     0.40103
      H   34    0.10031      0.00000     0.39874    0.00095     0.39969
      H   35    0.09919      0.00000     0.39988    0.00094     0.40081
      H   36    0.10438      0.00000     0.39464    0.00098     0.39562
      H   37    0.09828      0.00000     0.40092    0.00080     0.40172
      H   38    0.09789      0.00000     0.40127    0.00084     0.40211
      H   39    0.10521      0.00000     0.39389    0.00090     0.39479
      H   40    0.09911      0.00000     0.40003    0.00086     0.40089
      H   41    0.09933      0.00000     0.39995    0.00072     0.40067
      H   42    0.23686      0.00000     0.25995    0.00319     0.26314
 =======================================================================
   * Total *    0.00000     17.99307    50.79249    0.21444    69.00000

 Normal termination of Gaussian 16 at Fri Dec 11 21:22:13 2020.
