 Gaussian 16, Revision A.03,

 -----------------------------------------------------------
 # opt freq B3LYP/6-31G(d) empiricaldispersion=gd3bj scf=xqc
 -----------------------------------------------------------

 ------------------------------
 CID_16226675_JID_6024_neutraal
 ------------------------------
 Symbolic Z-matrix:
 Charge =  0 Multiplicity = 1

 SCF Done:  E(RB3LYP) =  -724.234599670     A.U. after   16 cycles
 SCF Done:  E(RB3LYP) =  -724.263253413     A.U. after   13 cycles
 SCF Done:  E(RB3LYP) =  -724.266163350     A.U. after   13 cycles
 SCF Done:  E(RB3LYP) =  -724.265609738     A.U. after   14 cycles
 SCF Done:  E(RB3LYP) =  -724.267462821     A.U. after   13 cycles
 SCF Done:  E(RB3LYP) =  -724.268149682     A.U. after   13 cycles
 SCF Done:  E(RB3LYP) =  -724.268414415     A.U. after   12 cycles
 SCF Done:  E(RB3LYP) =  -724.268504632     A.U. after   12 cycles
 SCF Done:  E(RB3LYP) =  -724.268514412     A.U. after   11 cycles
 SCF Done:  E(RB3LYP) =  -724.268544498     A.U. after   11 cycles
 SCF Done:  E(RB3LYP) =  -724.268755661     A.U. after   10 cycles
 SCF Done:  E(RB3LYP) =  -724.268756252     A.U. after    8 cycles
 SCF Done:  E(RB3LYP) =  -724.268756622     A.U. after    9 cycles
 SCF Done:  E(RB3LYP) =  -724.268757082     A.U. after    9 cycles
 SCF Done:  E(RB3LYP) =  -724.268757098     A.U. after    7 cycles
 Optimization completed.
    -- Stationary point found.
 Normal termination of Gaussian 16 at Thu Dec 10 21:37:33 2020.

 --------------------------------------------------------------------
 #N Geom=AllCheck Guess=TCheck SCRF=Check GenChk RB3LYP/6-31G(d) Freq
 --------------------------------------------------------------------

 Structure from the checkpoint file:  "JID_6024.chk"
 ------------------------------
 CID_16226675_JID_6024_neutraal
 ------------------------------
 Charge =  0 Multiplicity = 1

 SCF Done:  E(RB3LYP) =  -724.268757098     A.U. after    1 cycles

  Exact polarizability: 172.818  -2.268 144.071  20.831  -7.177 111.551
 Approx polarizability: 213.326 -10.415 247.493  35.628 -28.265 173.442

                      1                      2                      3
                      A                      A                      A
 Frequencies --     26.6368                34.5149                40.2298
 Red. masses --      3.7324                 3.7853                 4.7437
 Frc consts  --      0.0016                 0.0027                 0.0045
 IR Inten    --      0.2518                 1.4008                 6.5617

                      4                      5                      6
                      A                      A                      A
 Frequencies --     43.7977                96.1987               119.4205
 Red. masses --      1.0797                 3.9970                 4.2784
 Frc consts  --      0.0012                 0.0218                 0.0359
 IR Inten    --      1.0006                 3.6658                 2.8075

                      7                      8                      9
                      A                      A                      A
 Frequencies --    150.4057               155.4427               201.3608
 Red. masses --      6.3414                 5.6459                 5.4849
 Frc consts  --      0.0845                 0.0804                 0.1310
 IR Inten    --      6.7473                 1.4143                 0.8791

                     10                     11                     12
                      A                      A                      A
 Frequencies --    211.3467               223.8134               235.2387
 Red. masses --      2.6889                 1.1149                 2.7828
 Frc consts  --      0.0708                 0.0329                 0.0907
 IR Inten    --      0.5557                 0.2818                 1.1336

                     13                     14                     15
                      A                      A                      A
 Frequencies --    274.0188               282.6284               363.3209
 Red. masses --      3.3622                 2.9601                 2.1864
 Frc consts  --      0.1487                 0.1393                 0.1700
 IR Inten    --      2.2206                 1.8165                 5.5622

                     16                     17                     18
                      A                      A                      A
 Frequencies --    396.4171               415.5060               424.5475
 Red. masses --      4.4375                 2.6720                 2.6179
 Frc consts  --      0.4109                 0.2718                 0.2780
 IR Inten    --      2.6152                 5.6153                28.7795

                     19                     20                     21
                      A                      A                      A
 Frequencies --    436.1163               441.2591               464.2572
 Red. masses --      1.3091                 2.1093                 2.4437
 Frc consts  --      0.1467                 0.2420                 0.3103
 IR Inten    --    108.0959                 9.2353                 2.7981

                     22                     23                     24
                      A                      A                      A
 Frequencies --    477.8313               503.4516               530.5320
 Red. masses --      2.8713                 2.8196                 5.1791
 Frc consts  --      0.3863                 0.4211                 0.8589
 IR Inten    --      0.2393                 2.9841                20.4189

                     25                     26                     27
                      A                      A                      A
 Frequencies --    552.6904               586.6629               614.5162
 Red. masses --      7.7467                 4.4591                 5.2638
 Frc consts  --      1.3942                 0.9042                 1.1712
 IR Inten    --      5.5781                 3.7644                 2.8486

                     28                     29                     30
                      A                      A                      A
 Frequencies --    629.3223               681.8355               766.0421
 Red. masses --      2.3033                 2.8196                 3.9396
 Frc consts  --      0.5375                 0.7723                 1.3621
 IR Inten    --      8.9162                 3.5072                 8.3188

                     31                     32                     33
                      A                      A                      A
 Frequencies --    795.1592               827.3801               846.4416
 Red. masses --      3.6417                 2.1518                 1.4483
 Frc consts  --      1.3567                 0.8679                 0.6114
 IR Inten    --      6.4725                 8.5470                53.4216

                     34                     35                     36
                      A                      A                      A
 Frequencies --    858.1819               917.9578               942.2126
 Red. masses --      1.7546                 2.9149                 2.8006
 Frc consts  --      0.7614                 1.4472                 1.4649
 IR Inten    --     12.5511                20.2033                 1.1799

                     37                     38                     39
                      A                      A                      A
 Frequencies --    997.8035              1012.6283              1042.2206
 Red. masses --      2.5384                 1.8684                 2.4524
 Frc consts  --      1.4890                 1.1288                 1.5695
 IR Inten    --     17.0877                 6.1140                31.1623

                     40                     41                     42
                      A                      A                      A
 Frequencies --   1053.0819              1070.1282              1071.5833
 Red. masses --      1.3959                 1.6303                 1.7184
 Frc consts  --      0.9121                 1.1000                 1.1626
 IR Inten    --     15.2765                 2.7766                 1.5384

                     43                     44                     45
                      A                      A                      A
 Frequencies --   1076.4943              1087.1977              1092.0322
 Red. masses --      2.0689                 2.0673                 1.9570
 Frc consts  --      1.4126                 1.4397                 1.3751
 IR Inten    --     15.7755                 5.1233                20.5487

                     46                     47                     48
                      A                      A                      A
 Frequencies --   1154.1008              1168.2613              1175.0885
 Red. masses --      2.4540                 1.7659                 2.3961
 Frc consts  --      1.9258                 1.4200                 1.9494
 IR Inten    --     51.6052                22.8292                21.9614

                     49                     50                     51
                      A                      A                      A
 Frequencies --   1192.0077              1229.8442              1242.2702
 Red. masses --      2.0409                 1.3938                 1.2505
 Frc consts  --      1.7086                 1.2421                 1.1371
 IR Inten    --      3.9845                 5.3412                48.2235

                     52                     53                     54
                      A                      A                      A
 Frequencies --   1264.7662              1283.6977              1323.6699
 Red. masses --      3.3660                 2.4470                 1.8297
 Frc consts  --      3.1724                 2.3758                 1.8888
 IR Inten    --      4.1488                56.9579                28.9727

                     55                     56                     57
                      A                      A                      A
 Frequencies --   1328.3753              1348.2763              1378.6609
 Red. masses --      1.3482                 1.5948                 1.3521
 Frc consts  --      1.4017                 1.7081                 1.5142
 IR Inten    --      8.4358                73.5743                 2.0859

                     58                     59                     60
                      A                      A                      A
 Frequencies --   1393.8072              1401.8946              1416.2113
 Red. masses --      1.4869                 1.3959                 1.3474
 Frc consts  --      1.7020                 1.6163                 1.5922
 IR Inten    --      5.2093                11.6761                28.7427

                     61                     62                     63
                      A                      A                      A
 Frequencies --   1417.8481              1438.2140              1446.1963
 Red. masses --      1.4249                 1.2266                 1.4741
 Frc consts  --      1.6877                 1.4948                 1.8165
 IR Inten    --      4.2994                 7.9190                 3.6759

                     64                     65                     66
                      A                      A                      A
 Frequencies --   1458.2907              1480.5716              1497.2918
 Red. masses --      1.8551                 1.1425                 1.0846
 Frc consts  --      2.3244                 1.4756                 1.4326
 IR Inten    --     10.1036                 2.5128                 2.4449

                     67                     68                     69
                      A                      A                      A
 Frequencies --   1498.5958              1510.6730              1512.7267
 Red. masses --      1.0505                 1.1091                 1.0991
 Frc consts  --      1.3900                 1.4913                 1.4819
 IR Inten    --     11.2958                 0.0305                10.9376

                     70                     71                     72
                      A                      A                      A
 Frequencies --   1516.6454              1520.4938              1523.8385
 Red. masses --      1.0954                 1.3039                 2.3238
 Frc consts  --      1.4846                 1.7762                 3.1792
 IR Inten    --      4.5356                45.8609               193.6892

                     73                     74                     75
                      A                      A                      A
 Frequencies --   1525.4423              1541.5390              1548.8644
 Red. masses --      1.1623                 1.0992                 1.0504
 Frc consts  --      1.5936                 1.5390                 1.4847
 IR Inten    --     31.1241                14.7697                 3.1459

                     76                     77                     78
                      A                      A                      A
 Frequencies --   1673.0468              1714.0558              2323.6433
 Red. masses --      2.0641                 7.0312                12.6519
 Frc consts  --      3.4040                12.1711                40.2481
 IR Inten    --    522.0596               163.0400                70.1790

                     79                     80                     81
                      A                      A                      A
 Frequencies --   2925.0715              2950.4778              2974.8220
 Red. masses --      1.0723                 1.0713                 1.0686
 Frc consts  --      5.4055                 5.4950                 5.5718
 IR Inten    --     46.3598                15.2373                16.9265

                     82                     83                     84
                      A                      A                      A
 Frequencies --   2980.2432              3041.4269              3046.0235
 Red. masses --      1.0591                 1.0608                 1.0630
 Frc consts  --      5.5425                 5.7816                 5.8113
 IR Inten    --    124.2924                24.7298                43.7667

                     85                     86                     87
                      A                      A                      A
 Frequencies --   3068.1442              3071.2071              3073.6082
 Red. masses --      1.0359                 1.0772                 1.0854
 Frc consts  --      5.7453                 5.9866                 6.0414
 IR Inten    --      6.9751                63.2245                41.3351

                     88                     89                     90
                      A                      A                      A
 Frequencies --   3086.8904              3094.5659              3094.8849
 Red. masses --      1.0880                 1.1038                 1.0909
 Frc consts  --      6.1081                 6.2279                 6.1564
 IR Inten    --     41.8675                14.9312                25.3842

                     91                     92                     93
                      A                      A                      A
 Frequencies --   3097.4542              3114.6235              3136.3992
 Red. masses --      1.1042                 1.1035                 1.1008
 Frc consts  --      6.2419                 6.3073                 6.3802
 IR Inten    --     43.5852                37.7903                 3.4404

                     94                     95                     96
                      A                      A                      A
 Frequencies --   3147.9996              3361.6594              3675.9973
 Red. masses --      1.1044                 1.0633                 1.0894
 Frc consts  --      6.4481                 7.0796                 8.6734
 IR Inten    --     15.6192               129.9665               101.6146

 - Thermochemistry -
 -------------------
 Temperature   298.150 Kelvin.  Pressure   1.00000 Atm.
 Atom     1 has atomic number  6 and mass  12.00000

 Molecular mass:   222.14806 amu.
 Principal axes and moments of inertia in atomic units:
                           1         2         3
     Eigenvalues --  1733.031906589.432967230.28245
           X            0.99995  -0.00240   0.01003
           Y            0.00198   0.99910   0.04245
           Z           -0.01012  -0.04243   0.99905
 This molecule is an asymmetric top.
 Rotational symmetry number  1.
 Warning -- assumption of classical behavior for rotation
           may cause significant error
 Rotational temperatures (Kelvin)      0.04998     0.01314     0.01198
 Rotational constants (GHZ):           1.04138     0.27388     0.24961
 Zero-point vibrational energy     768363.1 (Joules/Mol)
                                  183.64318 (Kcal/Mol)
 Warning -- explicit consideration of  27 degrees of freedom as
           vibrations may cause significant error
 Vibrational temperatures:     38.32    49.66    57.88    63.02   138.41
          (Kelvin)            171.82   216.40   223.65   289.71   304.08
                              322.02   338.46   394.25   406.64   522.74
                              570.36   597.82   610.83   627.47   634.87
                              667.96   687.49   724.35   763.32   795.20
                              844.08   884.15   905.45   981.01  1102.16
                             1144.06  1190.42  1217.84  1234.73  1320.74
                             1355.63  1435.62  1456.95  1499.52  1515.15
                             1539.68  1541.77  1548.84  1564.23  1571.19
                             1660.49  1680.87  1690.69  1715.03  1769.47
                             1787.35  1819.72  1846.95  1904.47  1911.24
                             1939.87  1983.59  2005.38  2017.01  2037.61
                             2039.97  2069.27  2080.75  2098.16  2130.21
                             2154.27  2156.15  2173.52  2176.48  2182.11
                             2187.65  2192.46  2194.77  2217.93  2228.47
                             2407.14  2466.14  3343.20  4208.53  4245.08
                             4280.11  4287.91  4375.93  4382.55  4414.38
                             4418.78  4422.24  4441.35  4452.39  4452.85
                             4456.55  4481.25  4512.58  4529.27  4836.68
                             5288.94

 Zero-point correction=                           0.292654 (Hartree/Particle)
 Thermal correction to Energy=                    0.309168
 Thermal correction to Enthalpy=                  0.310112
 Thermal correction to Gibbs Free Energy=         0.247066
 Sum of electronic and zero-point Energies=           -723.976103
 Sum of electronic and thermal Energies=              -723.959589
 Sum of electronic and thermal Enthalpies=            -723.958645
 Sum of electronic and thermal Free Energies=         -724.021691

                     E (Thermal)             CV                S
                      KCal/Mol        Cal/Mol-Kelvin    Cal/Mol-Kelvin
 Total                  194.006             61.547            132.692
 Electronic               0.000              0.000              0.000
 Translational            0.889              2.981             42.097
 Rotational               0.889              2.981             32.779
 Vibrational            192.229             55.585             57.816
 Vibration     1          0.593              1.984              6.065
 Vibration     2          0.594              1.983              5.551
 Vibration     3          0.594              1.981              5.248
 Vibration     4          0.595              1.980              5.079
 Vibration     5          0.603              1.952              3.530
 Vibration     6          0.609              1.933              3.110
 Vibration     7          0.618              1.902              2.667
 Vibration     8          0.620              1.897              2.605
 Vibration     9          0.638              1.838              2.121
 Vibration    10          0.643              1.824              2.032
 Vibration    11          0.649              1.805              1.928
 Vibration    12          0.655              1.787              1.839
 Vibration    13          0.676              1.721              1.571
 Vibration    14          0.682              1.706              1.518
 Vibration    15          0.737              1.548              1.108
 Vibration    16          0.763              1.478              0.976
 Vibration    17          0.779              1.437              0.907
 Vibration    18          0.787              1.417              0.877
 Vibration    19          0.797              1.391              0.839
 Vibration    20          0.801              1.380              0.823
 Vibration    21          0.822              1.329              0.754
 Vibration    22          0.834              1.299              0.716
 Vibration    23          0.859              1.242              0.650
 Vibration    24          0.885              1.182              0.586
 Vibration    25          0.908              1.134              0.539
 Vibration    26          0.944              1.060              0.473
 Vibration    27          0.974              1.001              0.425

 Optimization completed.
    -- Stationary point found.
 Normal termination of Gaussian 16 at Thu Dec 10 21:48:31 2020.

 ----------------------------------------------------------------------
 # B3LYP/6-311++G(d,p) empiricaldispersion=gd3bj scf=xqc pop=npa geom=c
 heck
 ----------------------------------------------------------------------

 --------------------------------------
 CID_16226675_JID_6024_Energie_neutraal
 --------------------------------------
 Structure from the checkpoint file:  "JID_6024.chk"
 Charge =  0 Multiplicity = 1

 SCF Done:  E(RB3LYP) =  -724.476223164     A.U. after   15 cycles
 Normal termination of Gaussian 16 at Thu Dec 10 21:53:25 2020.

 ----------------------------------------------------------------------
 # B3LYP/6-311++G(d,p) empiricaldispersion=gd3bj scf=xqc pop=npa geom=c
 heck
 ----------------------------------------------------------------------

 ------------------------------------
 CID_16226675_JID_6024_Energie_kation
 ------------------------------------
 Structure from the checkpoint file:  "JID_6024.chk"
 Charge =  1 Multiplicity = 2

 SCF Done:  E(UB3LYP) =  -724.204021652     A.U. after   25 cycles
 Normal termination of Gaussian 16 at Thu Dec 10 22:04:09 2020.
 Gaussian 16:  ES64L-G16RevA.03 25-Dec-2016

 ----------------------------------------------------------------------
 # B3LYP/6-311++G(d,p) empiricaldispersion=gd3bj scf=xqc pop=npa geom=c
 heck
 ----------------------------------------------------------------------

 -----------------------------------
 CID_16226675_JID_6024_Energie_anion
 -----------------------------------
 Structure from the checkpoint file:  "JID_6024.chk"
 Charge = -1 Multiplicity = 2

                         Standard orientation:
 ---------------------------------------------------------------------
 Center     Atomic      Atomic             Coordinates (Angstroms)
 Number     Number       Type             X           Y           Z
 ---------------------------------------------------------------------
      1          6           0        4.317569    1.184219    0.571063
      2          6           0        3.396086    0.009160    0.394560
      3          6           0        2.180938    0.137589   -0.292850
      4          6           0        1.852948    1.422257   -0.807448
      5          7           0        1.604297    2.486793   -1.213827
      6          6           0        1.269504   -0.988694   -0.460297
      7          8           0        1.523462   -2.114507   -0.007633
      8          6           0       -0.041816   -0.781297   -1.219634
      9          7           0       -1.180378   -0.759242   -0.306439
     10          6           0       -2.440990   -0.894828   -1.038707
     11          6           0       -3.614597   -0.938309   -0.052327
     12          7           0       -3.673575    0.217277    0.842480
     13          6           0       -2.379633    0.384222    1.503564
     14          6           0       -1.193152    0.442877    0.534031
     15          6           0       -4.164843    1.430973    0.202335
     16          7           0        3.767247   -1.158586    0.919074
     17          1           0        4.561189    1.627932   -0.398736
     18          1           0        5.245156    0.893855    1.072316
     19          1           0        3.826325    1.964450    1.161480
     20          1           0       -0.152877   -1.650116   -1.876497
     21          1           0        0.005644    0.123128   -1.851618
     22          1           0       -2.579971   -0.068758   -1.764575
     23          1           0       -2.409485   -1.828066   -1.613559
     24          1           0       -3.507568   -1.838024    0.567117
     25          1           0       -4.561750   -1.015016   -0.598298
     26          1           0       -2.232147   -0.472069    2.174310
     27          1           0       -2.407544    1.292231    2.116334
     28          1           0       -0.261416    0.482996    1.108524
     29          1           0       -1.232411    1.363441   -0.078595
     30          1           0       -3.538183    1.819667   -0.619072
     31          1           0       -5.164912    1.240304   -0.202917
     32          1           0       -4.251135    2.221319    0.956272
     33          1           0        4.640759   -1.251165    1.414705
     34          1           0        3.117414   -1.942754    0.799124
 ---------------------------------------------------------------------

 SCF Done:  E(UB3LYP) =  -724.482708598     A.U. after   33 cycles
 SCF Done:  E(UB3LYP) =  -724.482708598     a.u. after    1 cycles

 The electronic state is 2-A.
 Alpha  occ. eigenvalues --  -18.92627 -14.20157 -14.18359 -14.18303 -14.15590
 Alpha  occ. eigenvalues --  -10.09106 -10.08878 -10.08464 -10.07996 -10.07561
 Alpha  occ. eigenvalues --  -10.06950 -10.06457 -10.06327 -10.05598 -10.05273
 Alpha  occ. eigenvalues --  -10.03298  -0.86759  -0.83661  -0.79499  -0.78916
 Alpha  occ. eigenvalues --   -0.75706  -0.65365  -0.64836  -0.62719  -0.59934
 Alpha  occ. eigenvalues --   -0.57322  -0.53359  -0.51582  -0.47203  -0.44530
 Alpha  occ. eigenvalues --   -0.42558  -0.41173  -0.38665  -0.36911  -0.35431
 Alpha  occ. eigenvalues --   -0.34991  -0.34581  -0.34250  -0.32980  -0.31327
 Alpha  occ. eigenvalues --   -0.30361  -0.29118  -0.28536  -0.27948  -0.26983
 Alpha  occ. eigenvalues --   -0.26712  -0.25190  -0.24922  -0.24360  -0.23947
 Alpha  occ. eigenvalues --   -0.23535  -0.22185  -0.21925  -0.20402  -0.19616
 Alpha  occ. eigenvalues --   -0.19301  -0.12029  -0.09876  -0.08889  -0.08205
 Alpha  occ. eigenvalues --    0.04957
 Alpha virt. eigenvalues --    0.06718   0.07911   0.08561   0.09396   0.09960
 Alpha virt. eigenvalues --    0.10355   0.11350   0.11629   0.12124   0.12380
 Alpha virt. eigenvalues --    0.12612   0.13498   0.13780   0.14394   0.14857

  Beta  occ. eigenvalues --  -18.92209 -14.20155 -14.18312 -14.18038 -14.15636
  Beta  occ. eigenvalues --  -10.09096 -10.08873 -10.08464 -10.07986 -10.07211
  Beta  occ. eigenvalues --  -10.06939 -10.06303 -10.05724 -10.05623 -10.05328
  Beta  occ. eigenvalues --  -10.03461  -0.86011  -0.83623  -0.78964  -0.78587
  Beta  occ. eigenvalues --   -0.75749  -0.65315  -0.64437  -0.62610  -0.59719
  Beta  occ. eigenvalues --   -0.57267  -0.53330  -0.51389  -0.46560  -0.44451
  Beta  occ. eigenvalues --   -0.42078  -0.40920  -0.38563  -0.36901  -0.35317
  Beta  occ. eigenvalues --   -0.34811  -0.34467  -0.34146  -0.32844  -0.30438
  Beta  occ. eigenvalues --   -0.30215  -0.28991  -0.28499  -0.27858  -0.26677
  Beta  occ. eigenvalues --   -0.26538  -0.24856  -0.24688  -0.24113  -0.23864
  Beta  occ. eigenvalues --   -0.23144  -0.22201  -0.21793  -0.19592  -0.19285
  Beta  occ. eigenvalues --   -0.17326  -0.11965  -0.09771  -0.08600  -0.07237
  Beta virt. eigenvalues --    0.06806   0.07868   0.08563   0.09293   0.09933
  Beta virt. eigenvalues --    0.10357   0.11269   0.11560   0.11995   0.12074
  Beta virt. eigenvalues --    0.12341   0.12912   0.13626   0.13963   0.14697

 Mulliken charges and spin densities:
               1          2
     1  C   -0.528011  -0.035692
     2  C   -0.009016   0.381070
     3  C    2.015081  -0.072419
     4  C   -2.012856  -0.099195
     5  N   -0.269930  -0.021073
     6  C    0.304517   0.349377
     7  O   -0.424925   0.141572
     8  C   -0.759428   0.108913
     9  N    0.222434  -0.024942
    10  C   -0.109143   0.010336
    11  C   -0.285493  -0.322496
    12  N    0.024333   0.075114
    13  C   -0.572970  -0.186012
    14  C   -0.209339   0.071344
    15  C   -0.149671  -0.174596
    16  N   -0.462054   0.151838
    17  H    0.161311   0.020505
    18  H    0.085191  -0.001427
    19  H    0.114254   0.067119
    20  H    0.099912   0.078435
    21  H    0.147823  -0.005349
    22  H    0.090689   0.012060
    23  H    0.059379   0.081126
    24  H    0.166647  -0.014551
    25  H   -0.015708   0.165480
    26  H    0.161007   0.017425
    27  H    0.132261   0.022762
    28  H    0.160530   0.015873
    29  H    0.171055  -0.045565
    30  H    0.075039   0.044293
    31  H   -0.018005   0.151003
    32  H    0.081400   0.049671
    33  H    0.231550  -0.002956
    34  H    0.322136  -0.009041
 Sum of Mulliken charges =  -1.00000   1.00000

 Dipole moment (field-independent basis, Debye):
    X=             -1.9211    Y=             -0.3753    Z=              1.8925  Tot=              2.7227
 Quadrupole moment (field-independent basis, Debye-Ang):
   XX=           -135.8108   YY=           -131.2042   ZZ=           -111.2989
   XY=             -3.9208   XZ=              8.3352   YZ=              6.1561

 Summary of Natural Population Analysis:

                                       Natural Population
                Natural  -----------------------------------------------
    Atom  No    Charge         Core      Valence    Rydberg      Total
 -----------------------------------------------------------------------
      C    1   -0.31148      0.99965     2.30723    0.00460     3.31148
      C    2    0.27906      0.99957     1.70764    0.01373     2.72094
      C    3   -0.23782      0.99933     2.22877    0.00972     3.23782
      C    4    0.16413      0.99965     1.81748    0.01874     2.83587
      N    5   -0.24904      0.99979     2.73709    0.01216     3.74904
      C    6    0.31317      0.99960     1.66726    0.01997     2.68683
      O    7   -0.29707      0.99987     3.29060    0.00660     4.29707
      C    8   -0.12114      0.99959     2.10889    0.01266     3.12114
      N    9   -0.27217      0.99970     2.75990    0.01257     3.77217
      C   10   -0.09504      0.99962     2.08302    0.01240     3.09504
      C   11   -0.09014      0.99961     2.07734    0.01318     3.09014
      N   12   -0.28123      0.99974     2.76723    0.01425     3.78123
      C   13   -0.08742      0.99962     2.07712    0.01068     3.08742
      C   14   -0.09831      0.99962     2.08981    0.00889     3.09831
      C   15   -0.17831      0.99965     2.17139    0.00727     3.17831
      N   16   -0.33928      0.99967     2.83272    0.00689     3.83928
      H   17    0.11287      0.00000     0.38650    0.00063     0.38713
      H   18    0.09129      0.00000     0.40793    0.00078     0.40871
      H   19    0.11303      0.00000     0.38589    0.00107     0.38697
      H   20    0.10106      0.00000     0.39743    0.00152     0.39894
      H   21    0.08710      0.00000     0.41128    0.00162     0.41290
      H   22    0.07636      0.00000     0.42200    0.00164     0.42364
      H   23    0.09620      0.00000     0.40216    0.00164     0.40380
      H   24    0.09531      0.00000     0.40324    0.00145     0.40469
      H   25    0.09173      0.00000     0.40728    0.00099     0.40827
      H   26    0.09538      0.00000     0.40322    0.00140     0.40462
      H   27    0.09214      0.00000     0.40674    0.00112     0.40786
      H   28    0.10760      0.00000     0.39089    0.00151     0.39240
      H   29    0.08310      0.00000     0.41494    0.00196     0.41690
      H   30    0.08271      0.00000     0.41549    0.00180     0.41729
      H   31    0.09106      0.00000     0.40775    0.00119     0.40894
      H   32    0.09180      0.00000     0.40716    0.00104     0.40820
      H   33    0.17799      0.00000     0.32082    0.00119     0.32201
      H   34    0.21534      0.00000     0.28287    0.00179     0.28466
 =======================================================================
   * Total *    0.00000     15.99428    43.79706    0.20866    60.00000

 Normal termination of Gaussian 16 at Thu Dec 10 22:18:38 2020.
