 Gaussian 16, Revision A.03,

 -----------------------------------------------------------
 # opt freq B3LYP/6-31G(d) empiricaldispersion=gd3bj scf=xqc
 -----------------------------------------------------------

 -------------------------------
 CID_139707975_JID_9616_neutraal
 -------------------------------
 Symbolic Z-matrix:
 Charge =  0 Multiplicity = 1

 SCF Done:  E(RB3LYP) =  -916.878409526     A.U. after   15 cycles
 SCF Done:  E(RB3LYP) =  -916.882177467     A.U. after   13 cycles
 SCF Done:  E(RB3LYP) =  -916.882836477     A.U. after   12 cycles
 SCF Done:  E(RB3LYP) =  -916.883235915     A.U. after   12 cycles
 SCF Done:  E(RB3LYP) =  -916.883165519     A.U. after   11 cycles
 SCF Done:  E(RB3LYP) =  -916.883321025     A.U. after   11 cycles
 SCF Done:  E(RB3LYP) =  -916.883335959     A.U. after   11 cycles
 SCF Done:  E(RB3LYP) =  -916.883337507     A.U. after    9 cycles
 SCF Done:  E(RB3LYP) =  -916.883338006     A.U. after    8 cycles
 SCF Done:  E(RB3LYP) =  -916.883338442     A.U. after    8 cycles
 SCF Done:  E(RB3LYP) =  -916.883344443     A.U. after    8 cycles
 SCF Done:  E(RB3LYP) =  -916.883344802     A.U. after    8 cycles
 SCF Done:  E(RB3LYP) =  -916.883345126     A.U. after    7 cycles
 SCF Done:  E(RB3LYP) =  -916.883345279     A.U. after    7 cycles
 SCF Done:  E(RB3LYP) =  -916.883345320     A.U. after    7 cycles
 SCF Done:  E(RB3LYP) =  -916.883345332     A.U. after    6 cycles
 Optimization completed.
    -- Stationary point found.
 Normal termination of Gaussian 16 at Sun Dec 13 16:19:13 2020.

 --------------------------------------------------------------------
 #N Geom=AllCheck Guess=TCheck SCRF=Check GenChk RB3LYP/6-31G(d) Freq
 --------------------------------------------------------------------

 Structure from the checkpoint file:  "JID_9616.chk"
 -------------------------------
 CID_139707975_JID_9616_neutraal
 -------------------------------
 Charge =  0 Multiplicity = 1

 SCF Done:  E(RB3LYP) =  -916.883345332     A.U. after    1 cycles

  Exact polarizability: 242.538  -0.874 169.056 -13.797   0.104  88.794
 Approx polarizability: 351.358  -8.472 304.992 -30.518  -6.372 144.224

                      1                      2                      3
                      A                      A                      A
 Frequencies --     28.6753                35.3726                39.6575
 Red. masses --      7.6203                 1.4773                 2.0986
 Frc consts  --      0.0037                 0.0011                 0.0019
 IR Inten    --      0.2461                 0.1579                 0.5104

                      4                      5                      6
                      A                      A                      A
 Frequencies --     61.4225               110.9139               150.0928
 Red. masses --      5.2491                 7.9142                 7.5706
 Frc consts  --      0.0117                 0.0574                 0.1005
 IR Inten    --      0.3927                 1.2526                 0.9334

                      7                      8                      9
                      A                      A                      A
 Frequencies --    177.0424               181.6480               211.1822
 Red. masses --      6.6170                 5.4306                 3.4057
 Frc consts  --      0.1222                 0.1056                 0.0895
 IR Inten    --      2.2035                 9.1015                 3.9045

                     10                     11                     12
                      A                      A                      A
 Frequencies --    213.4949               224.4364               247.3506
 Red. masses --      1.2290                 5.0498                 3.8620
 Frc consts  --      0.0330                 0.1499                 0.1392
 IR Inten    --    161.0896                10.1599                 2.8472

                     13                     14                     15
                      A                      A                      A
 Frequencies --    274.0351               296.5156               297.8048
 Red. masses --      4.2330                 4.0457                 5.0606
 Frc consts  --      0.1873                 0.2096                 0.2644
 IR Inten    --      1.1184                 4.6489                 0.1770

                     16                     17                     18
                      A                      A                      A
 Frequencies --    314.3666               340.8794               369.8928
 Red. masses --      5.1807                 3.9064                 1.3563
 Frc consts  --      0.3017                 0.2674                 0.1093
 IR Inten    --     10.5890                 6.6322               113.4120

                     19                     20                     21
                      A                      A                      A
 Frequencies --    381.7782               384.2402               434.0646
 Red. masses --      5.4749                 1.1336                 5.8856
 Frc consts  --      0.4702                 0.0986                 0.6534
 IR Inten    --     35.0676               108.4784                 4.0560

                     22                     23                     24
                      A                      A                      A
 Frequencies --    441.9100               475.6243               514.8782
 Red. masses --      1.1012                 4.1511                 5.2767
 Frc consts  --      0.1267                 0.5533                 0.8242
 IR Inten    --     35.5560                 2.4895                 1.9950

                     25                     26                     27
                      A                      A                      A
 Frequencies --    519.2306               547.1303               550.7056
 Red. masses --      6.4795                 6.0381                 6.1157
 Frc consts  --      1.0292                 1.0650                 1.0928
 IR Inten    --     13.7111                 1.6745                 1.3563

                     28                     29                     30
                      A                      A                      A
 Frequencies --    568.1990               576.2909               576.8230
 Red. masses --      5.4831                 5.2779                 4.5044
 Frc consts  --      1.0430                 1.0327                 0.8830
 IR Inten    --      1.6285                 0.2595                 0.4861

                     31                     32                     33
                      A                      A                      A
 Frequencies --    608.6456               658.0780               671.0276
 Red. masses --      5.2951                 5.4630                 5.9985
 Frc consts  --      1.1557                 1.3939                 1.5914
 IR Inten    --     23.4041                15.6524                 7.5329

                     34                     35                     36
                      A                      A                      A
 Frequencies --    700.4599               750.6978               776.0503
 Red. masses --      3.0209                 6.8495                 2.5898
 Frc consts  --      0.8733                 2.2742                 0.9190
 IR Inten    --      1.4172               105.5702                57.1569

                     37                     38                     39
                      A                      A                      A
 Frequencies --    815.4516               836.3348               872.2239
 Red. masses --      5.9499                 1.5001                 1.6599
 Frc consts  --      2.3311                 0.6182                 0.7440
 IR Inten    --      1.5849                 7.0353                15.8239

                     40                     41                     42
                      A                      A                      A
 Frequencies --    879.3410               891.8436               911.4219
 Red. masses --      1.2717                 1.4698                 1.3862
 Frc consts  --      0.5794                 0.6888                 0.6785
 IR Inten    --      5.6098                16.9165                 0.4300

                     43                     44                     45
                      A                      A                      A
 Frequencies --    943.2618               995.4542              1019.0689
 Red. masses --      6.4269                 3.0189                 6.0384
 Frc consts  --      3.3691                 1.7625                 3.6947
 IR Inten    --      4.8653                26.7715                 8.4841

                     46                     47                     48
                      A                      A                      A
 Frequencies --   1036.1074              1055.0608              1074.2351
 Red. masses --      1.9106                 3.6710                 1.5091
 Frc consts  --      1.2085                 2.4076                 1.0261
 IR Inten    --      7.0241               153.6241                 8.7435

                     49                     50                     51
                      A                      A                      A
 Frequencies --   1078.8635              1151.8207              1189.4091
 Red. masses --      2.1006                 1.7352                 1.3680
 Frc consts  --      1.4406                 1.3563                 1.1402
 IR Inten    --     19.9418                45.3757                62.6709

                     52                     53                     54
                      A                      A                      A
 Frequencies --   1193.3165              1222.4535              1223.7468
 Red. masses --      1.4837                 1.3685                 1.5103
 Frc consts  --      1.2448                 1.2049                 1.3326
 IR Inten    --     85.1210               186.6912                81.3093

                     55                     56                     57
                      A                      A                      A
 Frequencies --   1241.7882              1267.4191              1325.1753
 Red. masses --      2.6489                 1.5077                 2.3584
 Frc consts  --      2.4066                 1.4270                 2.4401
 IR Inten    --    146.2033                58.2712               110.5337

                     58                     59                     60
                      A                      A                      A
 Frequencies --   1331.6732              1358.8137              1371.5590
 Red. masses --      1.4028                 2.5357                 3.0689
 Frc consts  --      1.4657                 2.7584                 3.4014
 IR Inten    --    108.7304               109.7642               613.4193

                     61                     62                     63
                      A                      A                      A
 Frequencies --   1381.1884              1406.4363              1424.1606
 Red. masses --      5.4132                 3.7836                 4.1593
 Frc consts  --      6.0843                 4.4096                 4.9703
 IR Inten    --     32.6223               170.7193                19.6699

                     64                     65                     66
                      A                      A                      A
 Frequencies --   1443.1240              1482.5929              1517.5393
 Red. masses --      1.2692                 2.9514                 1.0903
 Frc consts  --      1.5574                 3.8222                 1.4794
 IR Inten    --      2.0765                51.2363                 8.2128

                     67                     68                     69
                      A                      A                      A
 Frequencies --   1519.1265              1521.4811              1544.4760
 Red. masses --      3.3325                 1.4197                 1.9936
 Frc consts  --      4.5311                 1.9363                 2.8018
 IR Inten    --     24.4586                72.0475                 3.5081

                     70                     71                     72
                      A                      A                      A
 Frequencies --   1581.3912              1654.1664              1667.5337
 Red. masses --      3.9796                 6.0428                 5.8721
 Frc consts  --      5.8637                 9.7419                 9.6204
 IR Inten    --    101.0260               108.5924                40.8286

                     73                     74                     75
                      A                      A                      A
 Frequencies --   1670.0251              1674.2804              1738.4719
 Red. masses --      6.6098                 6.9178                12.2009
 Frc consts  --     10.8613                11.4254                21.7259
 IR Inten    --     80.2799                77.6972               128.5733

                     76                     77                     78
                      A                      A                      A
 Frequencies --   3046.6861              3103.1862              3128.2335
 Red. masses --      1.0386                 1.0981                 1.1026
 Frc consts  --      5.6799                 6.2305                 6.3572
 IR Inten    --     28.1663                17.5021                17.2925

                     79                     80                     81
                      A                      A                      A
 Frequencies --   3197.1935              3203.2435              3205.8174
 Red. masses --      1.0903                 1.0907                 1.0904
 Frc consts  --      6.5665                 6.5938                 6.6025
 IR Inten    --      8.7464                 8.9083                 3.6847

                     82                     83                     84
                      A                      A                      A
 Frequencies --   3212.9908              3243.5096              3715.1914
 Red. masses --      1.0898                 1.0908                 1.0653
 Frc consts  --      6.6282                 6.7613                 8.6633
 IR Inten    --      4.5436                 2.2779                96.5618

                     85                     86                     87
                      A                      A                      A
 Frequencies --   3725.8108              3749.8097              3774.1767
 Red. masses --      1.0653                 1.0659                 1.0663
 Frc consts  --      8.7129                 8.8305                 8.9489
 IR Inten    --    110.3903                46.9468                54.8239

 - Thermochemistry -
 -------------------
 Temperature   298.150 Kelvin.  Pressure   1.00000 Atm.
 Atom     1 has atomic number  6 and mass  12.00000

 Molecular mass:   260.06847 amu.
 Principal axes and moments of inertia in atomic units:
                           1         2         3
     Eigenvalues --  2419.959999565.81856**********
           X            0.99996   0.00788   0.00313
           Y           -0.00795   0.99970   0.02295
           Z           -0.00295  -0.02298   0.99973
 This molecule is an asymmetric top.
 Rotational symmetry number  1.
 Warning -- assumption of classical behavior for rotation
           may cause significant error
 Rotational temperatures (Kelvin)      0.03579     0.00905     0.00782
 Rotational constants (GHZ):           0.74577     0.18867     0.16299
 Zero-point vibrational energy     619236.8 (Joules/Mol)
                                  148.00114 (Kcal/Mol)
 Warning -- explicit consideration of  31 degrees of freedom as
           vibrations may cause significant error
 Vibrational temperatures:     41.26    50.89    57.06    88.37   159.58
          (Kelvin)            215.95   254.72   261.35   303.84   307.17
                              322.91   355.88   394.28   426.62   428.47
                              452.30   490.45   532.19   549.29   552.84
                              624.52   635.81   684.32   740.79   747.06
                              787.20   792.34   817.51   829.15   829.92
                              875.71   946.83   965.46  1007.81  1080.09
                             1116.56  1173.25  1203.30  1254.94  1265.18
                             1283.16  1311.33  1357.14  1432.24  1466.21
                             1490.73  1518.00  1545.58  1552.24  1657.21
                             1711.29  1716.92  1758.84  1760.70  1786.66
                             1823.53  1906.63  1915.98  1955.03  1973.37
                             1987.22  2023.55  2049.05  2076.33  2133.12
                             2183.40  2185.68  2189.07  2222.16  2275.27
                             2379.98  2399.21  2402.79  2408.92  2501.27
                             4383.50  4464.79  4500.83  4600.05  4608.75
                             4612.46  4622.78  4666.69  5345.33  5360.61
                             5395.14  5430.20

 Zero-point correction=                           0.235855 (Hartree/Particle)
 Thermal correction to Energy=                    0.253452
 Thermal correction to Enthalpy=                  0.254396
 Thermal correction to Gibbs Free Energy=         0.189674
 Sum of electronic and zero-point Energies=           -916.647491
 Sum of electronic and thermal Energies=              -916.629893
 Sum of electronic and thermal Enthalpies=            -916.628949
 Sum of electronic and thermal Free Energies=         -916.693671

                     E (Thermal)             CV                S
                      KCal/Mol        Cal/Mol-Kelvin    Cal/Mol-Kelvin
 Total                  159.044             67.289            136.219
 Electronic               0.000              0.000              0.000
 Translational            0.889              2.981             42.567
 Rotational               0.889              2.981             33.905
 Vibrational            157.266             61.328             59.747
 Vibration     1          0.593              1.984              5.919
 Vibration     2          0.594              1.982              5.503
 Vibration     3          0.594              1.981              5.276
 Vibration     4          0.597              1.973              4.411
 Vibration     5          0.607              1.940              3.253
 Vibration     6          0.618              1.903              2.671
 Vibration     7          0.628              1.871              2.359
 Vibration     8          0.630              1.865              2.311
 Vibration     9          0.643              1.824              2.033
 Vibration    10          0.644              1.820              2.014
 Vibration    11          0.649              1.804              1.923
 Vibration    12          0.661              1.767              1.749
 Vibration    13          0.676              1.721              1.571
 Vibration    14          0.690              1.680              1.436
 Vibration    15          0.691              1.678              1.429
 Vibration    16          0.702              1.646              1.339
 Vibration    17          0.720              1.594              1.208
 Vibration    18          0.742              1.534              1.080
 Vibration    19          0.751              1.509              1.032
 Vibration    20          0.753              1.504              1.022
 Vibration    21          0.795              1.396              0.845
 Vibration    22          0.802              1.379              0.821
 Vibration    23          0.832              1.304              0.722
 Vibration    24          0.870              1.217              0.622
 Vibration    25          0.874              1.207              0.612
 Vibration    26          0.902              1.146              0.550
 Vibration    27          0.906              1.138              0.543
 Vibration    28          0.924              1.100              0.508
 Vibration    29          0.933              1.083              0.492
 Vibration    30          0.933              1.081              0.491
 Vibration    31          0.968              1.014              0.435

 Optimization completed.
    -- Stationary point found.
 Normal termination of Gaussian 16 at Sun Dec 13 16:33:53 2020.

 ----------------------------------------------------------------------
 # B3LYP/6-311++G(d,p) empiricaldispersion=gd3bj scf=xqc pop=npa geom=c
 heck
 ----------------------------------------------------------------------

 ---------------------------------------
 CID_139707975_JID_9616_Energie_neutraal
 ---------------------------------------
 Structure from the checkpoint file:  "JID_9616.chk"
 Charge =  0 Multiplicity = 1

 SCF Done:  E(RB3LYP) =  -917.167795079     A.U. after   16 cycles
 Normal termination of Gaussian 16 at Sun Dec 13 16:40:14 2020.

 ----------------------------------------------------------------------
 # B3LYP/6-311++G(d,p) empiricaldispersion=gd3bj scf=xqc pop=npa geom=c
 heck
 ----------------------------------------------------------------------

 -------------------------------------
 CID_139707975_JID_9616_Energie_kation
 -------------------------------------
 Structure from the checkpoint file:  "JID_9616.chk"
 Charge =  1 Multiplicity = 2

 SCF Done:  E(UB3LYP) =  -916.874193807     A.U. after   29 cycles
 Normal termination of Gaussian 16 at Sun Dec 13 16:56:43 2020.
 Gaussian 16:  ES64L-G16RevA.03 25-Dec-2016

 ----------------------------------------------------------------------
 # B3LYP/6-311++G(d,p) empiricaldispersion=gd3bj scf=xqc pop=npa geom=c
 heck
 ----------------------------------------------------------------------

 ------------------------------------
 CID_139707975_JID_9616_Energie_anion
 ------------------------------------
 Structure from the checkpoint file:  "JID_9616.chk"
 Charge = -1 Multiplicity = 2

                         Standard orientation:
 ---------------------------------------------------------------------
 Center     Atomic      Atomic             Coordinates (Angstroms)
 Number     Number       Type             X           Y           Z
 ---------------------------------------------------------------------
      1          6           0        3.043303    2.709401    1.351180
      2          6           0        2.932787    1.359200    0.684495
      3          6           0        1.711387    0.675083    0.654498
      4          6           0        1.620770   -0.597080    0.076171
      5          6           0        2.761835   -1.197729   -0.466766
      6          6           0        3.973816   -0.511263   -0.459480
      7          6           0        4.057252    0.763676    0.110400
      8          8           0        5.118434   -1.031986   -0.994176
      9          6           0        0.355717   -1.402968    0.080127
     10          8           0        0.417208   -2.627097    0.131516
     11          6           0       -0.967841   -0.715886    0.015382
     12          6           0       -2.082021   -1.404838    0.512251
     13          6           0       -3.346983   -0.833173    0.435972
     14          6           0       -3.505283    0.422375   -0.164637
     15          6           0       -2.398422    1.096646   -0.682749
     16          6           0       -1.127635    0.541438   -0.591758
     17          8           0       -2.688284    2.310326   -1.265768
     18          8           0       -4.769289    0.942671   -0.225580
     19          8           0       -4.431152   -1.486617    0.936181
     20          1           0        3.472601    2.617883    2.357023
     21          1           0        3.691567    3.384864    0.782607
     22          1           0        2.062629    3.184007    1.455332
     23          1           0        0.836117    1.123024    1.112308
     24          1           0        2.679669   -2.198925   -0.881090
     25          1           0        5.016466    1.273081    0.104490
     26          1           0        4.927133   -1.920363   -1.333262
     27          1           0       -1.955669   -2.385845    0.953863
     28          1           0       -0.274625    1.064292   -1.011739
     29          1           0       -1.875132    2.700906   -1.618732
     30          1           0       -4.716312    1.799145   -0.682770
     31          1           0       -5.211874   -0.929748    0.774078
 ---------------------------------------------------------------------

 SCF Done:  E(UB3LYP) =  -917.187733637     A.U. after   31 cycles

 The electronic state is 2-A.
 Alpha  occ. eigenvalues --  -19.06485 -19.05609 -19.04263 -19.04024 -18.91619
 Alpha  occ. eigenvalues --  -10.11823 -10.11083 -10.10509 -10.10468 -10.06382
 Alpha  occ. eigenvalues --  -10.06210 -10.05469 -10.04378 -10.03941 -10.03290
 Alpha  occ. eigenvalues --  -10.03159 -10.03031 -10.02993 -10.02823  -0.98246
 Alpha  occ. eigenvalues --   -0.96215  -0.94911  -0.94343  -0.85899  -0.72759
 Alpha  occ. eigenvalues --   -0.72364  -0.64945  -0.63095  -0.62198  -0.61078
 Alpha  occ. eigenvalues --   -0.56794  -0.53529  -0.52266  -0.49571  -0.48885
 Alpha  occ. eigenvalues --   -0.45681  -0.43741  -0.40797  -0.40331  -0.38751
 Alpha  occ. eigenvalues --   -0.37379  -0.35621  -0.34977  -0.33769  -0.33523
 Alpha  occ. eigenvalues --   -0.31454  -0.30887  -0.29904  -0.28957  -0.28885
 Alpha  occ. eigenvalues --   -0.28791  -0.28661  -0.28095  -0.26789  -0.26213
 Alpha  occ. eigenvalues --   -0.26147  -0.25008  -0.24065  -0.23537  -0.22257
 Alpha  occ. eigenvalues --   -0.21473  -0.20337  -0.18486  -0.12021  -0.10827
 Alpha  occ. eigenvalues --   -0.10235  -0.10137  -0.08395   0.03580
 Alpha virt. eigenvalues --    0.06296   0.07808   0.08465   0.08708   0.10343
 Alpha virt. eigenvalues --    0.10383   0.10924   0.11422   0.12231   0.12642
 Alpha virt. eigenvalues --    0.12896   0.13317   0.13391   0.14414   0.14702

  Beta  occ. eigenvalues --  -19.06492 -19.05560 -19.04274 -19.04035 -18.90992
  Beta  occ. eigenvalues --  -10.11877 -10.11144 -10.10528 -10.10324 -10.06211
  Beta  occ. eigenvalues --  -10.06035 -10.05479 -10.04269 -10.03935 -10.03235
  Beta  occ. eigenvalues --  -10.02958 -10.02921 -10.02890 -10.02669  -0.98196
  Beta  occ. eigenvalues --   -0.96212  -0.94933  -0.94316  -0.84774  -0.72562
  Beta  occ. eigenvalues --   -0.72187  -0.64758  -0.62774  -0.62044  -0.60849
  Beta  occ. eigenvalues --   -0.56599  -0.53372  -0.51849  -0.49388  -0.48629
  Beta  occ. eigenvalues --   -0.45588  -0.43574  -0.40685  -0.40295  -0.38399
  Beta  occ. eigenvalues --   -0.37262  -0.35451  -0.34841  -0.33584  -0.33306
  Beta  occ. eigenvalues --   -0.31371  -0.30820  -0.29765  -0.28981  -0.28804
  Beta  occ. eigenvalues --   -0.28728  -0.28591  -0.27855  -0.26433  -0.26076
  Beta  occ. eigenvalues --   -0.25998  -0.24721  -0.23449  -0.22864  -0.21722
  Beta  occ. eigenvalues --   -0.21150  -0.19941  -0.16956  -0.10922  -0.10268
  Beta  occ. eigenvalues --   -0.09651  -0.09252  -0.07644
  Beta virt. eigenvalues --    0.06265   0.07766   0.08438   0.08677   0.09375
  Beta virt. eigenvalues --    0.10355   0.10514   0.11135   0.11799   0.12595
  Beta virt. eigenvalues --    0.12810   0.12946   0.13321   0.13544   0.14401

 Mulliken charges and spin densities:
               1          2
     1  C   -0.530031   0.006038
     2  C    0.488146  -0.017827
     3  C   -1.549563   0.017090
     4  C    1.384865   0.049409
     5  C    0.322683   0.178392
     6  C   -0.433805  -0.035854
     7  C   -0.093877   0.166096
     8  O   -0.262885  -0.000417
     9  C   -1.632366   0.138419
    10  O   -0.342290   0.232148
    11  C    1.708209   0.018083
    12  C    0.030049   0.149278
    13  C   -0.266455  -0.054407
    14  C    0.011916   0.111002
    15  C   -0.269034  -0.073883
    16  C   -0.900072   0.126740
    17  O   -0.331424  -0.002986
    18  O   -0.339844   0.008510
    19  O   -0.260030  -0.002432
    20  H    0.138782   0.005271
    21  H    0.119755   0.001954
    22  H    0.128459  -0.000012
    23  H    0.168449  -0.003512
    24  H    0.163437  -0.010164
    25  H    0.132767  -0.014300
    26  H    0.254729   0.000222
    27  H    0.208843  -0.009101
    28  H    0.150689  -0.001811
    29  H    0.260531   0.011381
    30  H    0.275411   0.004109
    31  H    0.263956   0.002564
 Sum of Mulliken charges =  -1.00000   1.00000

 Dipole moment (field-independent basis, Debye):
    X=             -1.9100    Y=              6.1465    Z=             -1.7573  Tot=              6.6720
 Quadrupole moment (field-independent basis, Debye-Ang):
   XX=           -160.0155   YY=           -129.2718   ZZ=           -117.8901
   XY=             -8.4592   XZ=              1.0413   YZ=              1.7674

 Summary of Natural Population Analysis:

                                       Natural Population
                Natural  -----------------------------------------------
    Atom  No    Charge         Core      Valence    Rydberg      Total
 -----------------------------------------------------------------------
      C    1   -0.28844      0.99964     2.28418    0.00462     3.28844
      C    2   -0.02373      0.99953     2.01636    0.00783     3.02373
      C    3   -0.10005      0.99949     2.09272    0.00785     3.10005
      C    4   -0.02871      0.99950     2.01873    0.01048     3.02871
      C    5   -0.10082      0.99948     2.09207    0.00927     3.10082
      C    6    0.14368      0.99939     1.84469    0.01225     2.85632
      C    7   -0.09791      0.99947     2.08914    0.00929     3.09791
      O    8   -0.35055      0.99988     3.34436    0.00631     4.35055
      C    9    0.29726      0.99958     1.68258    0.02058     2.70274
      O   10   -0.23692      0.99988     3.23095    0.00608     4.23692
      C   11   -0.04390      0.99951     2.03465    0.00974     3.04390
      C   12   -0.08665      0.99950     2.07757    0.00957     3.08665
      C   13    0.12433      0.99937     1.86337    0.01293     2.87567
      C   14    0.12627      0.99933     1.86255    0.01185     2.87373
      C   15    0.11043      0.99935     1.87858    0.01164     2.88957
      C   16   -0.11984      0.99951     2.11209    0.00824     3.11984
      O   17   -0.36575      0.99987     3.35928    0.00660     4.36575
      O   18   -0.35968      0.99988     3.35275    0.00706     4.35968
      O   19   -0.34668      0.99988     3.33993    0.00687     4.34668
      H   20    0.09806      0.00000     0.40089    0.00105     0.40194
      H   21    0.09590      0.00000     0.40312    0.00098     0.40410
      H   22    0.09738      0.00000     0.40170    0.00092     0.40262
      H   23    0.09890      0.00000     0.39976    0.00133     0.40110
      H   24    0.10285      0.00000     0.39566    0.00150     0.39715
      H   25    0.09270      0.00000     0.40585    0.00145     0.40730
      H   26    0.22998      0.00000     0.26760    0.00242     0.27002
      H   27    0.11211      0.00000     0.38616    0.00173     0.38789
      H   28    0.10237      0.00000     0.39630    0.00133     0.39763
      H   29    0.23761      0.00000     0.26011    0.00229     0.26239
      H   30    0.24312      0.00000     0.25437    0.00251     0.25688
      H   31    0.23669      0.00000     0.26071    0.00261     0.26331
 =======================================================================
   * Total *   -0.00000     18.99203    48.80879    0.19918    68.00000

 Normal termination of Gaussian 16 at Sun Dec 13 17:14:18 2020.
