 Gaussian 16, Revision A.03,

 -----------------------------------------------------------
 # opt freq B3LYP/6-31G(d) empiricaldispersion=gd3bj scf=xqc
 -----------------------------------------------------------

 -------------------------------
 CID_106904953_JID_5883_neutraal
 -------------------------------
 Symbolic Z-matrix:
 Charge =  0 Multiplicity = 1

 SCF Done:  E(RB3LYP) =  -687.576585679     A.U. after   15 cycles
 SCF Done:  E(RB3LYP) =  -687.579855685     A.U. after   13 cycles
 SCF Done:  E(RB3LYP) =  -687.575152531     A.U. after   13 cycles
 SCF Done:  E(RB3LYP) =  -687.580828620     A.U. after   12 cycles
 SCF Done:  E(RB3LYP) =  -687.581305193     A.U. after   12 cycles
 SCF Done:  E(RB3LYP) =  -687.581584334     A.U. after   12 cycles
 SCF Done:  E(RB3LYP) =  -687.581561258     A.U. after   11 cycles
 SCF Done:  E(RB3LYP) =  -687.581688941     A.U. after   12 cycles
 SCF Done:  E(RB3LYP) =  -687.581746201     A.U. after   11 cycles
 SCF Done:  E(RB3LYP) =  -687.581809800     A.U. after   12 cycles
 SCF Done:  E(RB3LYP) =  -687.581927300     A.U. after   10 cycles
 SCF Done:  E(RB3LYP) =  -687.581927668     A.U. after    8 cycles
 SCF Done:  E(RB3LYP) =  -687.581927907     A.U. after    9 cycles
 SCF Done:  E(RB3LYP) =  -687.581927911     A.U. after    7 cycles
 SCF Done:  E(RB3LYP) =  -687.581927899     A.U. after    7 cycles
 SCF Done:  E(RB3LYP) =  -687.581927890     A.U. after    6 cycles
 Optimization completed.
    -- Stationary point found.
 Normal termination of Gaussian 16 at Thu Dec 10 17:27:49 2020.

 --------------------------------------------------------------------
 #N Geom=AllCheck Guess=TCheck SCRF=Check GenChk RB3LYP/6-31G(d) Freq
 --------------------------------------------------------------------

 Structure from the checkpoint file:  "JID_5883.chk"
 -------------------------------
 CID_106904953_JID_5883_neutraal
 -------------------------------
 Charge =  0 Multiplicity = 1

 SCF Done:  E(RB3LYP) =  -687.581927890     A.U. after    1 cycles

  Exact polarizability: 157.449 -16.751 123.878  15.058  12.702 100.406
 Approx polarizability: 223.319 -36.365 208.615  29.235  38.469 162.298

                      1                      2                      3
                      A                      A                      A
 Frequencies --     22.0842                26.9451                41.7440
 Red. masses --      5.5343                 3.3926                 5.7226
 Frc consts  --      0.0016                 0.0015                 0.0059
 IR Inten    --      2.3874                 0.1787                 0.6175

                      4                      5                      6
                      A                      A                      A
 Frequencies --     51.5084               113.7235               146.3956
 Red. masses --      5.7008                 3.4465                 3.7530
 Frc consts  --      0.0089                 0.0263                 0.0474
 IR Inten    --      0.1294                 0.4768                 0.9373

                      7                      8                      9
                      A                      A                      A
 Frequencies --    175.5704               187.1774               222.9052
 Red. masses --      3.3510                 4.9137                 4.3715
 Frc consts  --      0.0609                 0.1014                 0.1280
 IR Inten    --      0.6193                 2.1598                 4.9377

                     10                     11                     12
                      A                      A                      A
 Frequencies --    244.4276               299.2343               307.3778
 Red. masses --      1.1559                 2.2813                 2.7303
 Frc consts  --      0.0407                 0.1204                 0.1520
 IR Inten    --      0.7804                 4.2656                 0.3054

                     13                     14                     15
                      A                      A                      A
 Frequencies --    338.8052               374.9731               402.3385
 Red. masses --      2.2974                 2.7282                 4.2487
 Frc consts  --      0.1554                 0.2260                 0.4052
 IR Inten    --      1.4713                 3.6192                 2.5491

                     16                     17                     18
                      A                      A                      A
 Frequencies --    429.4373               471.7608               501.6690
 Red. masses --      3.8529                 3.1847                 4.9678
 Frc consts  --      0.4186                 0.4176                 0.7366
 IR Inten    --      0.7346                 3.9288                 3.9913

                     19                     20                     21
                      A                      A                      A
 Frequencies --    530.3258               566.3331               601.5080
 Red. masses --      3.4037                 2.0036                 1.9346
 Frc consts  --      0.5640                 0.3786                 0.4124
 IR Inten    --      1.4397                 9.3110                29.9861

                     22                     23                     24
                      A                      A                      A
 Frequencies --    644.0319               661.8088               676.9523
 Red. masses --      4.0804                 2.0905                 1.8671
 Frc consts  --      0.9972                 0.5395                 0.5041
 IR Inten    --     61.0653                60.6770                 3.6976

                     25                     26                     27
                      A                      A                      A
 Frequencies --    705.8440               736.3246               765.9476
 Red. masses --      2.7368                 3.6243                 1.7550
 Frc consts  --      0.8034                 1.1577                 0.6066
 IR Inten    --    115.6895                44.4627                21.8779

                     28                     29                     30
                      A                      A                      A
 Frequencies --    778.5052               830.3849               847.1580
 Red. masses --      3.7489                 2.0048                 2.5881
 Frc consts  --      1.3387                 0.8145                 1.0944
 IR Inten    --     24.8676                17.8619                16.2784

                     31                     32                     33
                      A                      A                      A
 Frequencies --    910.4761               926.0599               941.0289
 Red. masses --      2.0403                 2.6200                 1.7135
 Frc consts  --      0.9965                 1.3238                 0.8940
 IR Inten    --      4.0788                 0.4429                 0.6388

                     34                     35                     36
                      A                      A                      A
 Frequencies --    954.2450               979.2046              1007.0869
 Red. masses --      1.3567                 1.6215                 1.3081
 Frc consts  --      0.7278                 0.9160                 0.7817
 IR Inten    --     41.8325                10.2262                 0.1814

                     37                     38                     39
                      A                      A                      A
 Frequencies --   1017.4948              1037.9255              1045.7869
 Red. masses --      6.3849                 1.5295                 1.1248
 Frc consts  --      3.8946                 0.9708                 0.7248
 IR Inten    --      4.0372                 9.2961                19.1196

                     40                     41                     42
                      A                      A                      A
 Frequencies --   1087.4799              1104.9271              1121.4351
 Red. masses --      1.7593                 2.4298                 1.6738
 Frc consts  --      1.2258                 1.7478                 1.2403
 IR Inten    --     16.3118                 1.3578                18.4670

                     43                     44                     45
                      A                      A                      A
 Frequencies --   1154.2736              1164.0785              1186.0191
 Red. masses --      2.5023                 3.0855                 1.5518
 Frc consts  --      1.9643                 2.4634                 1.2861
 IR Inten    --     31.6281               229.7478                40.7443

                     46                     47                     48
                      A                      A                      A
 Frequencies --   1196.8781              1223.9131              1260.8245
 Red. masses --      1.4906                 1.8765                 2.3000
 Frc consts  --      1.2581                 1.6561                 2.1542
 IR Inten    --    118.6895                 8.5028                21.9408

                     49                     50                     51
                      A                      A                      A
 Frequencies --   1295.3553              1322.8554              1336.8961
 Red. masses --      1.7718                 1.2716                 2.7251
 Frc consts  --      1.7516                 1.3110                 2.8697
 IR Inten    --      2.9003                 3.2682                14.5898

                     52                     53                     54
                      A                      A                      A
 Frequencies --   1350.0792              1385.5470              1389.5341
 Red. masses --      1.4604                 1.4496                 2.0473
 Frc consts  --      1.5683                 1.6396                 2.3290
 IR Inten    --      5.5248                23.3497                60.6980

                     55                     56                     57
                      A                      A                      A
 Frequencies --   1411.8773              1429.5187              1477.0986
 Red. masses --      1.3571                 1.2395                 1.2186
 Frc consts  --      1.5939                 1.4924                 1.5665
 IR Inten    --      3.3261                 3.6622                 4.6584

                     58                     59                     60
                      A                      A                      A
 Frequencies --   1485.3327              1490.8473              1498.5271
 Red. masses --      3.3936                 1.2890                 1.8056
 Frc consts  --      4.4112                 1.6880                 2.3889
 IR Inten    --     12.4001                 6.4950                 6.0738

                     61                     62                     63
                      A                      A                      A
 Frequencies --   1509.1710              1521.2384              1532.5678
 Red. masses --      1.1359                 1.0515                 1.1449
 Frc consts  --      1.5243                 1.4337                 1.5844
 IR Inten    --     23.5891                 7.4035                 8.6816

                     64                     65                     66
                      A                      A                      A
 Frequencies --   1634.5503              1643.1237              1732.8210
 Red. masses --      6.0295                 6.0356                 4.3680
 Frc consts  --      9.4914                 9.6009                 7.7274
 IR Inten    --      3.3737                46.9392                 3.6544

                     67                     68                     69
                      A                      A                      A
 Frequencies --   1846.2080              3014.9964              3050.3113
 Red. masses --     10.2159                 1.0829                 1.0353
 Frc consts  --     20.5159                 5.7998                 5.6754
 IR Inten    --    237.2641                18.6995                32.8275

                     70                     71                     72
                      A                      A                      A
 Frequencies --   3053.4983              3098.5376              3117.3553
 Red. masses --      1.0590                 1.1057                 1.1014
 Frc consts  --      5.8177                 6.2546                 6.3060
 IR Inten    --     39.1891                15.9570                19.7738

                     73                     74                     75
                      A                      A                      A
 Frequencies --   3132.1399              3137.6373              3169.9671
 Red. masses --      1.0854                 1.1033                 1.0650
 Frc consts  --      6.2739                 6.3995                 6.3056
 IR Inten    --     35.6336                29.2969                 6.2171

                     76                     77                     78
                      A                      A                      A
 Frequencies --   3194.0884              3209.6770              3246.0625
 Red. masses --      1.0876                 1.0949                 1.1143
 Frc consts  --      6.5377                 6.6459                 6.9176
 IR Inten    --      7.0220                16.0675                 8.6571

                     79                     80                     81
                      A                      A                      A
 Frequencies --   3246.6079              3520.5262              3699.5230
 Red. masses --      1.0942                 1.0735                 1.0642
 Frc consts  --      6.7953                 7.8390                 8.5815
 IR Inten    --      2.4148                 0.9251                73.5016

 - Thermochemistry -
 -------------------
 Temperature   298.150 Kelvin.  Pressure   1.00000 Atm.
 Atom     1 has atomic number  6 and mass  12.00000

 Molecular mass:   206.10553 amu.
 Principal axes and moments of inertia in atomic units:
                           1         2         3
     Eigenvalues --  1767.911384715.428035330.88365
           X            0.99992   0.01206   0.00330
           Y           -0.01201   0.99983  -0.01426
           Z           -0.00347   0.01422   0.99989
 This molecule is an asymmetric top.
 Rotational symmetry number  1.
 Warning -- assumption of classical behavior for rotation
           may cause significant error
 Rotational temperatures (Kelvin)      0.04899     0.01837     0.01625
 Rotational constants (GHZ):           1.02083     0.38273     0.33854
 Zero-point vibrational energy     629274.1 (Joules/Mol)
                                  150.40012 (Kcal/Mol)
 Warning -- explicit consideration of  21 degrees of freedom as
           vibrations may cause significant error
 Vibrational temperatures:     31.77    38.77    60.06    74.11   163.62
          (Kelvin)            210.63   252.61   269.31   320.71   351.68
                              430.53   442.25   487.47   539.50   578.88
                              617.86   678.76   721.79   763.02   814.83
                              865.44   926.62   952.20   973.98  1015.55
                             1059.41  1102.03  1120.10  1194.74  1218.87
                             1309.97  1332.39  1353.93  1372.95  1408.86
                             1448.97  1463.95  1493.34  1504.65  1564.64
                             1589.74  1613.49  1660.74  1674.85  1706.42
                             1722.04  1760.94  1814.05  1863.73  1903.29
                             1923.50  1942.46  1993.49  1999.23  2031.38
                             2056.76  2125.22  2137.06  2145.00  2156.05
                             2171.36  2188.72  2205.02  2351.75  2364.09
                             2493.14  2656.28  4337.91  4388.72  4393.30
                             4458.10  4485.18  4506.45  4514.36  4560.88
                             4595.58  4618.01  4670.36  4671.14  5065.25
                             5322.79

 Zero-point correction=                           0.239678 (Hartree/Particle)
 Thermal correction to Energy=                    0.254232
 Thermal correction to Enthalpy=                  0.255176
 Thermal correction to Gibbs Free Energy=         0.195965
 Sum of electronic and zero-point Energies=           -687.342250
 Sum of electronic and thermal Energies=              -687.327696
 Sum of electronic and thermal Enthalpies=            -687.326752
 Sum of electronic and thermal Free Energies=         -687.385963

                     E (Thermal)             CV                S
                      KCal/Mol        Cal/Mol-Kelvin    Cal/Mol-Kelvin
 Total                  159.533             54.442            124.620
 Electronic               0.000              0.000              0.000
 Translational            0.889              2.981             41.874
 Rotational               0.889              2.981             32.163
 Vibrational            157.755             48.481             50.582
 Vibration     1          0.593              1.985              6.437
 Vibration     2          0.593              1.984              6.043
 Vibration     3          0.594              1.980              5.175
 Vibration     4          0.596              1.977              4.759
 Vibration     5          0.607              1.938              3.204
 Vibration     6          0.617              1.907              2.719
 Vibration     7          0.628              1.872              2.375
 Vibration     8          0.632              1.857              2.256
 Vibration     9          0.649              1.806              1.935
 Vibration    10          0.660              1.772              1.770
 Vibration    11          0.692              1.675              1.421
 Vibration    12          0.697              1.660              1.376
 Vibration    13          0.719              1.598              1.218
 Vibration    14          0.746              1.523              1.059
 Vibration    15          0.768              1.465              0.954
 Vibration    16          0.791              1.406              0.860
 Vibration    17          0.829              1.313              0.733
 Vibration    18          0.857              1.246              0.654
 Vibration    19          0.885              1.183              0.586
 Vibration    20          0.922              1.104              0.511
 Vibration    21          0.960              1.029              0.447

 Optimization completed.
    -- Stationary point found.
 Normal termination of Gaussian 16 at Thu Dec 10 17:37:11 2020.

 ----------------------------------------------------------------------
 # B3LYP/6-311++G(d,p) empiricaldispersion=gd3bj scf=xqc pop=npa geom=c
 heck
 ----------------------------------------------------------------------

 ---------------------------------------
 CID_106904953_JID_5883_Energie_neutraal
 ---------------------------------------
 Structure from the checkpoint file:  "JID_5883.chk"
 Charge =  0 Multiplicity = 1

 SCF Done:  E(RB3LYP) =  -687.784527797     A.U. after   15 cycles
 Normal termination of Gaussian 16 at Thu Dec 10 17:40:58 2020.

 ----------------------------------------------------------------------
 # B3LYP/6-311++G(d,p) empiricaldispersion=gd3bj scf=xqc pop=npa geom=c
 heck
 ----------------------------------------------------------------------

 -------------------------------------
 CID_106904953_JID_5883_Energie_kation
 -------------------------------------
 Structure from the checkpoint file:  "JID_5883.chk"
 Charge =  1 Multiplicity = 2

 SCF Done:  E(UB3LYP) =  -687.483196730     A.U. after   26 cycles
 Normal termination of Gaussian 16 at Thu Dec 10 17:50:18 2020.
 Gaussian 16:  ES64L-G16RevA.03 25-Dec-2016

 ----------------------------------------------------------------------
 # B3LYP/6-311++G(d,p) empiricaldispersion=gd3bj scf=xqc pop=npa geom=c
 heck
 ----------------------------------------------------------------------

 ------------------------------------
 CID_106904953_JID_5883_Energie_anion
 ------------------------------------
 Structure from the checkpoint file:  "JID_5883.chk"
 Charge = -1 Multiplicity = 2

                         Standard orientation:
 ---------------------------------------------------------------------
 Center     Atomic      Atomic             Coordinates (Angstroms)
 Number     Number       Type             X           Y           Z
 ---------------------------------------------------------------------
      1          6           0       -4.249044   -0.883647    0.200684
      2          6           0       -2.891625   -0.156008    0.236135
      3          6           0       -2.064961   -0.716405    1.380548
      4          6           0       -0.973855   -1.476223    1.295909
      5          7           0       -2.302540   -0.189166   -1.103894
      6          6           0       -1.470613    0.949138   -1.479877
      7          6           0       -0.183042    1.115043   -0.692417
      8          7           0        0.710132    0.131012   -0.838608
      9          6           0        1.838860    0.181894   -0.124991
     10          6           0        2.149308    1.225376    0.753738
     11          6           0        1.221026    2.253640    0.897539
     12          6           0        0.036432    2.197251    0.168666
     13          6           0        2.747477   -0.998727   -0.292451
     14          8           0        2.464079   -2.024963   -0.865671
     15          8           0        3.954679   -0.801454    0.302641
     16          1           0       -4.100757   -1.935182   -0.069113
     17          1           0       -4.901590   -0.423045   -0.546621
     18          1           0       -4.745512   -0.853775    1.177583
     19          1           0       -3.092511    0.902807    0.457322
     20          1           0       -2.484358   -0.511229    2.367207
     21          1           0       -0.499815   -1.872633    2.189793
     22          1           0       -0.492296   -1.716446    0.352888
     23          1           0       -1.794812   -1.056777   -1.259791
     24          1           0       -1.211902    0.829507   -2.538052
     25          1           0       -2.077111    1.858403   -1.392025
     26          1           0        3.081438    1.218644    1.304763
     27          1           0        1.416590    3.080681    1.574021
     28          1           0       -0.715426    2.975057    0.264619
     29          1           0        4.455086   -1.625580    0.158262
 ---------------------------------------------------------------------

 SCF Done:  E(UB3LYP) =  -687.796502167     A.U. after   32 cycles

 The electronic state is 2-A.
 Alpha  occ. eigenvalues --  -19.00926 -18.93176 -14.17586 -14.12658 -10.11251
 Alpha  occ. eigenvalues --  -10.09385 -10.06591 -10.05967 -10.05551 -10.05024
 Alpha  occ. eigenvalues --  -10.04064 -10.02914 -10.02341 -10.02063 -10.00984
 Alpha  occ. eigenvalues --   -0.94383  -0.84941  -0.79614  -0.77235  -0.67189
 Alpha  occ. eigenvalues --   -0.64228  -0.62540  -0.61193  -0.54739  -0.51607
 Alpha  occ. eigenvalues --   -0.50388  -0.45464  -0.44349  -0.43340  -0.37964
 Alpha  occ. eigenvalues --   -0.35722  -0.35410  -0.33770  -0.33172  -0.32272
 Alpha  occ. eigenvalues --   -0.31486  -0.30912  -0.29312  -0.29224  -0.28035
 Alpha  occ. eigenvalues --   -0.26284  -0.26000  -0.25285  -0.24091  -0.23478
 Alpha  occ. eigenvalues --   -0.23189  -0.22433  -0.21731  -0.16993  -0.14513
 Alpha  occ. eigenvalues --   -0.13438  -0.11566  -0.11328  -0.10330  -0.09286
 Alpha  occ. eigenvalues --    0.05139
 Alpha virt. eigenvalues --    0.07615   0.09265   0.09562   0.09885   0.10629
 Alpha virt. eigenvalues --    0.10772   0.11844   0.12190   0.12320   0.12888
 Alpha virt. eigenvalues --    0.13256   0.13536   0.14357   0.14799   0.16114

  Beta  occ. eigenvalues --  -19.00840 -18.92848 -14.17592 -14.12207 -10.10993
  Beta  occ. eigenvalues --  -10.09381 -10.06585 -10.05966 -10.05550 -10.05143
  Beta  occ. eigenvalues --  -10.04059 -10.02610 -10.02210 -10.02071 -10.00661
  Beta  occ. eigenvalues --   -0.94052  -0.84441  -0.79483  -0.76695  -0.67168
  Beta  occ. eigenvalues --   -0.63671  -0.62349  -0.60932  -0.54519  -0.51420
  Beta  occ. eigenvalues --   -0.49809  -0.45360  -0.44121  -0.43146  -0.37874
  Beta  occ. eigenvalues --   -0.35630  -0.35358  -0.33742  -0.32827  -0.31981
  Beta  occ. eigenvalues --   -0.31303  -0.30795  -0.29095  -0.28158  -0.27716
  Beta  occ. eigenvalues --   -0.26216  -0.25852  -0.25091  -0.23941  -0.23303
  Beta  occ. eigenvalues --   -0.22946  -0.21687  -0.21384  -0.15590  -0.14359
  Beta  occ. eigenvalues --   -0.12039  -0.10980  -0.10638  -0.09250  -0.08814
  Beta virt. eigenvalues --    0.07582   0.09225   0.09513   0.09842   0.10603
  Beta virt. eigenvalues --    0.10742   0.11591   0.11876   0.12235   0.12519
  Beta virt. eigenvalues --    0.13126   0.13267   0.13516   0.14345   0.14757

 Mulliken charges and spin densities:
               1          2
     1  C   -0.529297   0.007000
     2  C   -0.399278  -0.011809
     3  C    0.418927  -0.001324
     4  C   -0.755801  -0.009285
     5  N    0.040704   0.003645
     6  C   -0.684482   0.042524
     7  C    0.797539  -0.112407
     8  N   -0.002313   0.207677
     9  C   -0.488647   0.186992
    10  C    0.159902   0.035317
    11  C   -0.775679   0.107628
    12  C   -0.339818   0.267954
    13  C    0.154773   0.153585
    14  O   -0.411363   0.117001
    15  O   -0.222414   0.016325
    16  H    0.125840   0.000855
    17  H    0.145003   0.000448
    18  H    0.120599  -0.000120
    19  H    0.108457   0.014191
    20  H    0.150151   0.003557
    21  H    0.113617   0.000008
    22  H    0.132326  -0.000264
    23  H    0.227817  -0.001547
    24  H    0.176452  -0.003500
    25  H    0.118467   0.004956
    26  H    0.179552   0.002674
    27  H    0.109732  -0.008929
    28  H    0.084703  -0.024537
    29  H    0.244533   0.001386
 Sum of Mulliken charges =  -1.00000   1.00000

 Dipole moment (field-independent basis, Debye):
    X=             -4.1899    Y=              1.1263    Z=              2.5891  Tot=              5.0525
 Quadrupole moment (field-independent basis, Debye-Ang):
   XX=           -117.7056   YY=           -108.8817   ZZ=           -102.2023
   XY=             -0.4932   XZ=              1.3405   YZ=             -3.7606

 Summary of Natural Population Analysis:

                                       Natural Population
                Natural  -----------------------------------------------
    Atom  No    Charge         Core      Valence    Rydberg      Total
 -----------------------------------------------------------------------
      C    1   -0.27813      0.99965     2.27384    0.00464     3.27813
      C    2   -0.02876      0.99959     2.01656    0.01261     3.02876
      C    3   -0.09934      0.99956     2.09010    0.00968     3.09934
      C    4   -0.18595      0.99956     2.17814    0.00824     3.18595
      N    5   -0.34795      0.99974     2.83387    0.01434     3.84795
      C    6   -0.09094      0.99959     2.07989    0.01146     3.09094
      C    7    0.06565      0.99954     1.92037    0.01444     2.93435
      N    8   -0.17209      0.99964     2.65957    0.01288     3.67209
      C    9    0.09290      0.99948     1.89188    0.01574     2.90710
      C   10   -0.11033      0.99954     2.10312    0.00767     3.11033
      C   11   -0.07567      0.99958     2.06688    0.00921     3.07567
      C   12   -0.06702      0.99951     2.05918    0.00834     3.06702
      C   13    0.42147      0.99969     1.55473    0.02411     2.57853
      O   14   -0.29048      0.99987     3.28390    0.00672     4.29048
      O   15   -0.35727      0.99988     3.35019    0.00720     4.35727
      H   16    0.09671      0.00000     0.40232    0.00097     0.40329
      H   17    0.09789      0.00000     0.40108    0.00103     0.40211
      H   18    0.09059      0.00000     0.40853    0.00087     0.40941
      H   19    0.09173      0.00000     0.40633    0.00194     0.40827
      H   20    0.08618      0.00000     0.41264    0.00117     0.41382
      H   21    0.09019      0.00000     0.40867    0.00114     0.40981
      H   22    0.10818      0.00000     0.39004    0.00178     0.39182
      H   23    0.18077      0.00000     0.31728    0.00195     0.31923
      H   24    0.09709      0.00000     0.40176    0.00115     0.40291
      H   25    0.08467      0.00000     0.41429    0.00103     0.41533
      H   26    0.10178      0.00000     0.39718    0.00104     0.39822
      H   27    0.08620      0.00000     0.41212    0.00167     0.41380
      H   28    0.08631      0.00000     0.41260    0.00109     0.41369
      H   29    0.22561      0.00000     0.26868    0.00571     0.27439
 =======================================================================
   * Total *   -0.00000     14.99441    39.81575    0.18984    55.00000

 Normal termination of Gaussian 16 at Thu Dec 10 17:59:34 2020.
