 Gaussian 16, Revision A.03,

 -----------------------------------------------------------
 # opt freq B3LYP/6-31G(d) empiricaldispersion=gd3bj scf=xqc
 -----------------------------------------------------------

 -------------------------------
 CID_114137241_JID_9125_neutraal
 -------------------------------
 Symbolic Z-matrix:
 Charge =  0 Multiplicity = 1

 SCF Done:  E(RB3LYP) =  -911.425652478     A.U. after   13 cycles
 SCF Done:  E(RB3LYP) =  -911.437781300     A.U. after   12 cycles
 SCF Done:  E(RB3LYP) =  -911.442095010     A.U. after   12 cycles
 SCF Done:  E(RB3LYP) =  -911.444569589     A.U. after   12 cycles
 SCF Done:  E(RB3LYP) =  -911.444301034     A.U. after   14 cycles
 SCF Done:  E(RB3LYP) =  -911.445995631     A.U. after   12 cycles
 SCF Done:  E(RB3LYP) =  -911.447410211     A.U. after   12 cycles
 SCF Done:  E(RB3LYP) =  -911.448520559     A.U. after   12 cycles
 SCF Done:  E(RB3LYP) =  -911.448880129     A.U. after   11 cycles
 SCF Done:  E(RB3LYP) =  -911.449012401     A.U. after   11 cycles
 SCF Done:  E(RB3LYP) =  -911.449260255     A.U. after    7 cycles
 SCF Done:  E(RB3LYP) =  -911.449260360     A.U. after    7 cycles
 SCF Done:  E(RB3LYP) =  -911.449260423     A.U. after    6 cycles
 SCF Done:  E(RB3LYP) =  -911.449260533     A.U. after    7 cycles
 SCF Done:  E(RB3LYP) =  -911.449260616     A.U. after    7 cycles
 SCF Done:  E(RB3LYP) =  -911.449260678     A.U. after    7 cycles
 Optimization completed.
    -- Stationary point found.
 Normal termination of Gaussian 16 at Mon Dec 14 13:33:03 2020.

 --------------------------------------------------------------------
 #N Geom=AllCheck Guess=TCheck SCRF=Check GenChk RB3LYP/6-31G(d) Freq
 --------------------------------------------------------------------

 Structure from the checkpoint file:  "JID_9125.chk"
 -------------------------------
 CID_114137241_JID_9125_neutraal
 -------------------------------
 Charge =  0 Multiplicity = 1

 SCF Done:  E(RB3LYP) =  -911.449260678     A.U. after    1 cycles

  Exact polarizability: 197.588   2.213 185.691  15.026  -3.560 118.254
 Approx polarizability: 251.443  -2.084 271.838  28.771  -9.602 175.297

                      1                      2                      3
                      A                      A                      A
 Frequencies --     18.3942                28.6480                37.9290
 Red. masses --      4.4586                 3.8263                 3.9041
 Frc consts  --      0.0009                 0.0019                 0.0033
 IR Inten    --      0.2552                 0.0690                 0.8004

                      4                      5                      6
                      A                      A                      A
 Frequencies --     55.1331                62.7669                72.2914
 Red. masses --      3.2357                 4.1405                 3.5875
 Frc consts  --      0.0058                 0.0096                 0.0110
 IR Inten    --      0.9899                 0.1418                 3.8131

                      7                      8                      9
                      A                      A                      A
 Frequencies --    108.0173               110.7533               139.0835
 Red. masses --      3.9184                 3.8575                 2.9200
 Frc consts  --      0.0269                 0.0279                 0.0333
 IR Inten    --      2.0903                 0.4773                 2.1168

                     10                     11                     12
                      A                      A                      A
 Frequencies --    154.2467               168.6443               175.6342
 Red. masses --      1.4135                 1.9210                 2.5194
 Frc consts  --      0.0198                 0.0322                 0.0458
 IR Inten    --     12.1928                 3.4477                 1.5482

                     13                     14                     15
                      A                      A                      A
 Frequencies --    180.8290               199.8013               212.9505
 Red. masses --      3.1469                 3.2849                 2.7528
 Frc consts  --      0.0606                 0.0773                 0.0736
 IR Inten    --      0.7509                 5.1333                12.7942

                     16                     17                     18
                      A                      A                      A
 Frequencies --    227.9830               240.2896               247.2610
 Red. masses --      1.1037                 2.7297                 2.9958
 Frc consts  --      0.0338                 0.0929                 0.1079
 IR Inten    --      1.3984                 0.1274                 0.6505

                     19                     20                     21
                      A                      A                      A
 Frequencies --    258.1663               285.0637               297.1599
 Red. masses --      2.3625                 1.3446                 2.3833
 Frc consts  --      0.0928                 0.0644                 0.1240
 IR Inten    --      4.9329                 0.5905                 2.3367

                     22                     23                     24
                      A                      A                      A
 Frequencies --    323.8569               358.8081               409.5199
 Red. masses --      2.6812                 2.3370                 2.8957
 Frc consts  --      0.1657                 0.1773                 0.2861
 IR Inten    --      1.1193                 2.6911                 2.9681

                     25                     26                     27
                      A                      A                      A
 Frequencies --    437.8705               452.8016               473.6686
 Red. masses --      3.2767                 3.3867                 2.5203
 Frc consts  --      0.3701                 0.4091                 0.3332
 IR Inten    --     15.7762                25.7710                24.4621

                     28                     29                     30
                      A                      A                      A
 Frequencies --    489.2155               498.7310               537.1142
 Red. masses --      2.0358                 1.4461                 1.1140
 Frc consts  --      0.2871                 0.2119                 0.1893
 IR Inten    --     30.2528                91.2851                88.9015

                     31                     32                     33
                      A                      A                      A
 Frequencies --    554.2926               579.7818               623.0552
 Red. masses --      3.4650                 3.5188                 5.1058
 Frc consts  --      0.6272                 0.6969                 1.1678
 IR Inten    --      2.6367                 9.0004                10.1080

                     34                     35                     36
                      A                      A                      A
 Frequencies --    647.0915               730.4999               742.2732
 Red. masses --      5.3042                10.3214                 9.3135
 Frc consts  --      1.3086                 3.2451                 3.0234
 IR Inten    --      7.7461                 0.8668                 0.6297

                     37                     38                     39
                      A                      A                      A
 Frequencies --    750.3713               795.4375               821.8139
 Red. masses --      1.4882                 3.8440                11.2821
 Frc consts  --      0.4937                 1.4330                 4.4894
 IR Inten    --      9.4899                11.5329                39.4932

                     40                     41                     42
                      A                      A                      A
 Frequencies --    826.3394               842.0091               911.2860
 Red. masses --      2.6688                 2.4827                 2.0905
 Frc consts  --      1.0737                 1.0371                 1.0229
 IR Inten    --      2.7184                 4.7034                 6.5635

                     43                     44                     45
                      A                      A                      A
 Frequencies --    943.0501               948.6907               955.8313
 Red. masses --      1.1925                 2.2067                 1.5596
 Frc consts  --      0.6249                 1.1701                 0.8395
 IR Inten    --      0.1071                 3.7999                 3.3346

                     46                     47                     48
                      A                      A                      A
 Frequencies --    971.8608               980.6987               989.1696
 Red. masses --      2.6471                 2.0617                 9.2945
 Frc consts  --      1.4731                 1.1683                 5.3582
 IR Inten    --     61.4495                 0.8049                 5.5374

                     49                     50                     51
                      A                      A                      A
 Frequencies --   1007.1038              1038.3370              1078.2815
 Red. masses --      2.8518                 2.3983                 2.4137
 Frc consts  --      1.7042                 1.5235                 1.6535
 IR Inten    --      2.7980                83.4119                12.9244

                     52                     53                     54
                      A                      A                      A
 Frequencies --   1105.2064              1126.0402              1149.5166
 Red. masses --      2.1103                 2.7185                 3.0559
 Frc consts  --      1.5188                 2.0309                 2.3792
 IR Inten    --     81.6703                 7.9536                96.7866

                     55                     56                     57
                      A                      A                      A
 Frequencies --   1158.6503              1165.2895              1173.6589
 Red. masses --      2.2096                 2.0995                 3.7430
 Frc consts  --      1.7477                 1.6797                 3.0378
 IR Inten    --     29.8845                13.3693                 6.4136

                     58                     59                     60
                      A                      A                      A
 Frequencies --   1184.4238              1186.6641              1213.1562
 Red. masses --      2.1793                 1.2672                 1.7869
 Frc consts  --      1.8013                 1.0514                 1.5494
 IR Inten    --     67.9763                 0.6416                21.1737

                     61                     62                     63
                      A                      A                      A
 Frequencies --   1222.6464              1253.4505              1256.2080
 Red. masses --      1.6195                 1.6580                 1.3608
 Frc consts  --      1.4264                 1.5348                 1.2652
 IR Inten    --     22.1230                81.7810                15.5759

                     64                     65                     66
                      A                      A                      A
 Frequencies --   1275.1808              1301.6168              1313.1561
 Red. masses --      2.2778                 1.5000                 2.9450
 Frc consts  --      2.1823                 1.4973                 2.9920
 IR Inten    --     17.7097                20.5670                24.8173

                     67                     68                     69
                      A                      A                      A
 Frequencies --   1343.0343              1375.2825              1380.0382
 Red. masses --      1.1094                 1.6688                 1.1536
 Frc consts  --      1.1790                 1.8597                 1.2945
 IR Inten    --      1.8602                65.1534                 6.4616

                     70                     71                     72
                      A                      A                      A
 Frequencies --   1385.7395              1386.9979              1396.9280
 Red. masses --      1.3620                 1.2882                 1.5986
 Frc consts  --      1.5410                 1.4601                 1.8380
 IR Inten    --     16.4362               101.2096                83.9704

                     73                     74                     75
                      A                      A                      A
 Frequencies --   1408.9983              1417.8881              1428.6595
 Red. masses --      1.4907                 1.5513                 1.3411
 Frc consts  --      1.7437                 1.8375                 1.6128
 IR Inten    --     35.5399               109.8651                 7.6625

                     76                     77                     78
                      A                      A                      A
 Frequencies --   1443.1852              1445.1045              1447.8830
 Red. masses --      1.4599                 1.5326                 1.5569
 Frc consts  --      1.7915                 1.8857                 1.9229
 IR Inten    --    200.1659               125.9748                60.4113

                     79                     80                     81
                      A                      A                      A
 Frequencies --   1470.2069              1505.9514              1510.9908
 Red. masses --      1.3726                 1.0842                 1.0491
 Frc consts  --      1.7480                 1.4487                 1.4112
 IR Inten    --      7.5257                 3.4006                 5.1934

                     82                     83                     84
                      A                      A                      A
 Frequencies --   1512.7945              1515.2649              1520.1413
 Red. masses --      1.0485                 1.1153                 1.0527
 Frc consts  --      1.4137                 1.5088                 1.4332
 IR Inten    --      2.5362                35.3351                 2.6107

                     85                     86                     87
                      A                      A                      A
 Frequencies --   1523.6872              1525.5710              1529.7939
 Red. masses --      1.1848                 1.1393                 1.1756
 Frc consts  --      1.6207                 1.5622                 1.6210
 IR Inten    --    135.6104                20.4312                32.3725

                     88                     89                     90
                      A                      A                      A
 Frequencies --   1533.2057              1544.2371              1557.2176
 Red. masses --      1.2583                 1.0637                 4.3068
 Frc consts  --      1.7427                 1.4945                 6.1533
 IR Inten    --     45.1016                 7.9250               424.2337

                     91                     92                     93
                      A                      A                      A
 Frequencies --   1568.9034              1613.3358              1631.5391
 Red. masses --      1.0993                 4.1123                 8.0065
 Frc consts  --      1.5943                 6.3065                12.5571
 IR Inten    --     43.6598               453.0554              1007.8716

                     94                     95                     96
                      A                      A                      A
 Frequencies --   1653.9444              1747.9675              2979.2548
 Red. masses --      4.7327                 1.0671                 1.0783
 Frc consts  --      7.6278                 1.9210                 5.6391
 IR Inten    --    161.5320                22.3634                 3.7597

                     97                     98                     99
                      A                      A                      A
 Frequencies --   2987.6443              3032.2729              3043.4174
 Red. masses --      1.0752                 1.0694                 1.0720
 Frc consts  --      5.6547                 5.7936                 5.8503
 IR Inten    --     96.3415                14.6253                83.4346

                    100                    101                    102
                      A                      A                      A
 Frequencies --   3045.6392              3053.2727              3056.0449
 Red. masses --      1.0371                 1.0622                 1.0362
 Frc consts  --      5.6681                 5.8343                 5.7020
 IR Inten    --     14.3365                35.5907                19.4297

                    103                    104                    105
                      A                      A                      A
 Frequencies --   3064.4724              3069.7363              3088.9290
 Red. masses --      1.0909                 1.0296                 1.1009
 Frc consts  --      6.0359                 5.7163                 6.1888
 IR Inten    --     11.7300                42.4352                29.3550

                    106                    107                    108
                      A                      A                      A
 Frequencies --   3105.5364              3112.3503              3125.9118
 Red. masses --      1.0958                 1.1023                 1.1022
 Frc consts  --      6.2268                 6.2909                 6.3456
 IR Inten    --     39.7820                13.0431                42.1241

                    109                    110                    111
                      A                      A                      A
 Frequencies --   3127.2479              3134.7019              3142.1754
 Red. masses --      1.1017                 1.1030                 1.1072
 Frc consts  --      6.3480                 6.3858                 6.4406
 IR Inten    --     19.7522                26.8571                25.3215

                    112                    113                    114
                      A                      A                      A
 Frequencies --   3173.1645              3173.2373              3437.8981
 Red. masses --      1.1022                 1.0943                 1.0480
 Frc consts  --      6.5388                 6.4920                 7.2977
 IR Inten    --     24.5099                 6.0960                 3.2122

                    115                    116                    117
                      A                      A                      A
 Frequencies --   3508.6649              3623.3477              3643.3625
 Red. masses --      1.0939                 1.0761                 1.0782
 Frc consts  --      7.9342                 8.3239                 8.4325
 IR Inten    --      0.6873                40.1946                63.3166

 - Thermochemistry -
 -------------------
 Temperature   298.150 Kelvin.  Pressure   1.00000 Atm.
 Atom     1 has atomic number  6 and mass  12.00000

 Molecular mass:   270.18042 amu.
 Principal axes and moments of inertia in atomic units:
                           1         2         3
     Eigenvalues --  3385.124298313.14575**********
           X            0.99986   0.01666   0.00307
           Y           -0.01667   0.99986   0.00298
           Z           -0.00302  -0.00304   0.99999
 This molecule is an asymmetric top.
 Rotational symmetry number  1.
 Warning -- assumption of classical behavior for rotation
           may cause significant error
 Rotational temperatures (Kelvin)      0.02559     0.01042     0.00809
 Rotational constants (GHZ):           0.53314     0.21709     0.16850
 Zero-point vibrational energy     933909.9 (Joules/Mol)
                                  223.20983 (Kcal/Mol)
 Warning -- explicit consideration of  32 degrees of freedom as
           vibrations may cause significant error
 Vibrational temperatures:     26.47    41.22    54.57    79.32    90.31
          (Kelvin)            104.01   155.41   159.35   200.11   221.93
                              242.64   252.70   260.17   287.47   306.39
                              328.02   345.72   355.75   371.44   410.14
                              427.55   465.96   516.24   589.21   630.00
                              651.48   681.50   703.87   717.56   772.79
                              797.50   834.18   896.44   931.02  1051.03
                             1067.97  1079.62  1144.46  1182.41  1188.92
                             1211.46  1311.14  1356.84  1364.95  1375.23
                             1398.29  1411.01  1423.19  1449.00  1493.94
                             1551.41  1590.15  1620.12  1653.90  1667.04
                             1676.59  1688.63  1704.12  1707.34  1745.46
                             1759.12  1803.44  1807.40  1834.70  1872.74
                             1889.34  1932.33  1978.72  1985.57  1993.77
                             1995.58  2009.87  2027.23  2040.02  2055.52
                             2076.42  2079.18  2083.18  2115.30  2166.73
                             2173.98  2176.57  2180.13  2187.14  2192.25
                             2194.96  2201.03  2205.94  2221.81  2240.49
                             2257.30  2321.23  2347.42  2379.66  2514.94
                             4286.48  4298.55  4362.76  4378.80  4382.00
                             4392.98  4396.97  4409.09  4416.67  4444.28
                             4468.17  4477.98  4497.49  4499.41  4510.14
                             4520.89  4565.48  4565.58  4946.37  5048.19
                             5213.19  5241.99

 Zero-point correction=                           0.355708 (Hartree/Particle)
 Thermal correction to Energy=                    0.376600
 Thermal correction to Enthalpy=                  0.377545
 Thermal correction to Gibbs Free Energy=         0.304254
 Sum of electronic and zero-point Energies=           -911.093553
 Sum of electronic and thermal Energies=              -911.072660
 Sum of electronic and thermal Enthalpies=            -911.071716
 Sum of electronic and thermal Free Energies=         -911.145006

                     E (Thermal)             CV                S
                      KCal/Mol        Cal/Mol-Kelvin    Cal/Mol-Kelvin
 Total                  236.320             75.895            154.252
 Electronic               0.000              0.000              0.000
 Translational            0.889              2.981             42.681
 Rotational               0.889              2.981             34.066
 Vibrational            234.543             69.933             77.506
 Vibration     1          0.593              1.986              6.800
 Vibration     2          0.593              1.984              5.921
 Vibration     3          0.594              1.982              5.364
 Vibration     4          0.596              1.976              4.624
 Vibration     5          0.597              1.972              4.368
 Vibration     6          0.598              1.967              4.090
 Vibration     7          0.606              1.943              3.304
 Vibration     8          0.607              1.941              3.256
 Vibration     9          0.615              1.914              2.816
 Vibration    10          0.620              1.898              2.619
 Vibration    11          0.625              1.881              2.451
 Vibration    12          0.628              1.872              2.374
 Vibration    13          0.630              1.866              2.320
 Vibration    14          0.638              1.840              2.135
 Vibration    15          0.644              1.821              2.018
 Vibration    16          0.651              1.798              1.895
 Vibration    17          0.657              1.779              1.801
 Vibration    18          0.661              1.767              1.750
 Vibration    19          0.667              1.749              1.674
 Vibration    20          0.683              1.701              1.503
 Vibration    21          0.691              1.679              1.433
 Vibration    22          0.708              1.628              1.291
 Vibration    23          0.734              1.557              1.127
 Vibration    24          0.774              1.450              0.928
 Vibration    25          0.798              1.388              0.833
 Vibration    26          0.811              1.355              0.787
 Vibration    27          0.830              1.308              0.727
 Vibration    28          0.845              1.274              0.686
 Vibration    29          0.854              1.253              0.661
 Vibration    30          0.892              1.168              0.572
 Vibration    31          0.910              1.130              0.535
 Vibration    32          0.936              1.075              0.486

                           ! Non-Optimized Parameters !
 Normal termination of Gaussian 16 at Mon Dec 14 13:53:07 2020.

 ----------------------------------------------------------------------
 # B3LYP/6-311++G(d,p) empiricaldispersion=gd3bj scf=xqc pop=npa geom=c
 heck
 ----------------------------------------------------------------------

 ---------------------------------------
 CID_114137241_JID_9125_Energie_neutraal
 ---------------------------------------
 Structure from the checkpoint file:  "JID_9125.chk"
 Charge =  0 Multiplicity = 1

 SCF Done:  E(RB3LYP) =  -911.716749878     A.U. after   13 cycles
 Normal termination of Gaussian 16 at Mon Dec 14 14:01:17 2020.

 ----------------------------------------------------------------------
 # B3LYP/6-311++G(d,p) empiricaldispersion=gd3bj scf=xqc pop=npa geom=c
 heck
 ----------------------------------------------------------------------

 -------------------------------------
 CID_114137241_JID_9125_Energie_kation
 -------------------------------------
 Structure from the checkpoint file:  "JID_9125.chk"
 Charge =  1 Multiplicity = 2

 SCF Done:  E(UB3LYP) =  -911.413422167     A.U. after   28 cycles
 Normal termination of Gaussian 16 at Mon Dec 14 14:26:11 2020.
 Gaussian 16:  ES64L-G16RevA.03 25-Dec-2016

 ----------------------------------------------------------------------
 # B3LYP/6-311++G(d,p) empiricaldispersion=gd3bj scf=xqc pop=npa geom=c
 heck
 ----------------------------------------------------------------------

 ------------------------------------
 CID_114137241_JID_9125_Energie_anion
 ------------------------------------
 Structure from the checkpoint file:  "JID_9125.chk"
 Charge = -1 Multiplicity = 2

                         Standard orientation:
 ---------------------------------------------------------------------
 Center     Atomic      Atomic             Coordinates (Angstroms)
 Number     Number       Type             X           Y           Z
 ---------------------------------------------------------------------
      1          6           0        2.992750    1.556126    0.790233
      2          6           0        3.706243    0.954636   -0.423747
      3          6           0        5.221905    1.059001   -0.310365
      4          8           0        3.399975   -0.433646   -0.559353
      5          6           0        2.157234   -0.692862   -1.196966
      6          6           0        1.838901   -2.176706   -1.057587
      7          6           0        1.853546   -2.676696    0.392757
      8          6           0        0.927382   -1.909226    1.344524
      9          7           0       -0.461769   -1.907998    0.914749
     10          6           0       -1.189092   -0.820191    0.574457
     11          7           0       -0.628639    0.394591    0.651136
     12          6           0       -1.450639    1.399422    0.289030
     13          7           0       -2.719137    1.284128   -0.132723
     14          6           0       -3.146192    0.015880   -0.162639
     15          7           0       -2.461202   -1.072591    0.170408
     16          8           0       -4.409870   -0.118572   -0.584688
     17          6           0       -4.939117   -1.446510   -0.646133
     18          7           0       -0.933430    2.654016    0.365035
     19          7           0       -1.587597    3.792499   -0.134243
     20          1           0        1.912673    1.383004    0.744911
     21          1           0        3.172367    2.636173    0.851398
     22          1           0        3.367753    1.093989    1.710716
     23          1           0        3.376035    1.481147   -1.334856
     24          1           0        5.570271    0.499375    0.564935
     25          1           0        5.702622    0.638648   -1.198912
     26          1           0        5.534251    2.103137   -0.200450
     27          1           0        1.355122   -0.093518   -0.748200
     28          1           0        2.217483   -0.417625   -2.263403
     29          1           0        0.854624   -2.354220   -1.509153
     30          1           0        2.567052   -2.758624   -1.635540
     31          1           0        1.589110   -3.743294    0.406578
     32          1           0        2.870995   -2.597234    0.790154
     33          1           0        0.993064   -2.346841    2.349549
     34          1           0        1.234991   -0.867189    1.424772
     35          1           0       -0.951955   -2.786204    0.815330
     36          1           0       -4.359209   -2.067114   -1.334896
     37          1           0       -4.932264   -1.916110    0.341332
     38          1           0       -5.961959   -1.328609   -1.006560
     39          1           0        0.057950    2.748423    0.528936
     40          1           0       -2.009202    3.536920   -1.029029
     41          1           0       -2.377728    3.983748    0.482792
 ---------------------------------------------------------------------

 SCF Done:  E(UB3LYP) =  -911.704114663     A.U. after   31 cycles

 The electronic state is 2-A.
 Alpha  occ. eigenvalues --  -19.07533 -19.02876 -14.27706 -14.25909 -14.24486
 Alpha  occ. eigenvalues --  -14.21168 -14.21148 -14.21095 -10.20975 -10.19433
 Alpha  occ. eigenvalues --  -10.19289 -10.13514 -10.13019 -10.11639 -10.10966
 Alpha  occ. eigenvalues --  -10.07449 -10.07294 -10.07260 -10.07247  -1.00797
 Alpha  occ. eigenvalues --   -0.94498  -0.94282  -0.90847  -0.85306  -0.80350
 Alpha  occ. eigenvalues --   -0.78611  -0.71657  -0.71183  -0.68287  -0.64343
 Alpha  occ. eigenvalues --   -0.62959  -0.60619  -0.57028  -0.56381  -0.53507
 Alpha  occ. eigenvalues --   -0.50506  -0.49502  -0.48087  -0.46672  -0.43214
 Alpha  occ. eigenvalues --   -0.43036  -0.41527  -0.41145  -0.39807  -0.39518
 Alpha  occ. eigenvalues --   -0.38629  -0.37954  -0.36580  -0.35838  -0.34829
 Alpha  occ. eigenvalues --   -0.34536  -0.33554  -0.31902  -0.30731  -0.30492
 Alpha  occ. eigenvalues --   -0.30022  -0.29742  -0.28202  -0.27796  -0.27421
 Alpha  occ. eigenvalues --   -0.26848  -0.26741  -0.25519  -0.24518  -0.23749
 Alpha  occ. eigenvalues --   -0.22088  -0.21086  -0.19211  -0.18477  -0.18241
 Alpha  occ. eigenvalues --   -0.16813  -0.16156  -0.14955   0.04050
 Alpha virt. eigenvalues --    0.05584   0.06270   0.06812   0.07153   0.07867
 Alpha virt. eigenvalues --    0.07977   0.08496   0.08606   0.08901   0.09163
 Alpha virt. eigenvalues --    0.09484   0.10332   0.10601   0.10936   0.11291

  Beta  occ. eigenvalues --  -19.07528 -19.02867 -14.27699 -14.25898 -14.24462
  Beta  occ. eigenvalues --  -14.21162 -14.21143 -14.21085 -10.20974 -10.19433
  Beta  occ. eigenvalues --  -10.19287 -10.13505 -10.12987 -10.11630 -10.10953
  Beta  occ. eigenvalues --  -10.07430 -10.07275 -10.07246 -10.07234  -1.00786
  Beta  occ. eigenvalues --   -0.94487  -0.94271  -0.90831  -0.85280  -0.80338
  Beta  occ. eigenvalues --   -0.78591  -0.71633  -0.71156  -0.68258  -0.64309
  Beta  occ. eigenvalues --   -0.62928  -0.60587  -0.56995  -0.56351  -0.53466
  Beta  occ. eigenvalues --   -0.50474  -0.49470  -0.48053  -0.46638  -0.43182
  Beta  occ. eigenvalues --   -0.43019  -0.41503  -0.41127  -0.39782  -0.39494
  Beta  occ. eigenvalues --   -0.38598  -0.37918  -0.36545  -0.35808  -0.34799
  Beta  occ. eigenvalues --   -0.34507  -0.33528  -0.31876  -0.30710  -0.30471
  Beta  occ. eigenvalues --   -0.29997  -0.29717  -0.28177  -0.27779  -0.27394
  Beta  occ. eigenvalues --   -0.26820  -0.26714  -0.25493  -0.24489  -0.23717
  Beta  occ. eigenvalues --   -0.22052  -0.21073  -0.19194  -0.18458  -0.18230
  Beta  occ. eigenvalues --   -0.16798  -0.16145  -0.14933
  Beta virt. eigenvalues --    0.05813   0.06436   0.06733   0.07373   0.07453
  Beta virt. eigenvalues --    0.07888   0.08182   0.08674   0.09079   0.09144
  Beta virt. eigenvalues --    0.09490   0.09615   0.10540   0.10970   0.11030

 Mulliken charges and spin densities:
               1          2
     1  C    0.034345  -0.453980
     2  C   -0.407023   0.311891
     3  C    0.004611  -0.522140
     4  O   -0.018176   0.027814
     5  C    0.261956  -0.528962
     6  C   -0.536129   0.285292
     7  C    0.133594  -0.704817
     8  C    0.435886  -0.530381
     9  N   -0.321697   0.156310
    10  C    0.201688  -0.449240
    11  N   -0.087029  -0.100431
    12  C    0.008771  -0.149318
    13  N   -0.404494   0.036532
    14  C   -0.035602   0.172436
    15  N   -0.284696   0.209219
    16  O   -0.178595   0.048201
    17  C    0.833420  -1.071176
    18  N   -0.262282  -0.003919
    19  N   -0.152809  -0.061016
    20  H    0.106883   0.041432
    21  H   -0.098231   0.224151
    22  H    0.055538   0.094515
    23  H    0.076070   0.042823
    24  H    0.051581   0.095084
    25  H   -0.080380   0.227646
    26  H   -0.111463   0.244040
    27  H    0.097528   0.086926
    28  H   -0.044838   0.197942
    29  H   -0.080544   0.225909
    30  H   -0.046148   0.238904
    31  H   -0.364695   0.533260
    32  H    0.207909  -0.051340
    33  H   -0.510596   0.707766
    34  H    0.654725  -0.417515
    35  H   -0.139920   0.485660
    36  H   -0.274524   0.455311
    37  H   -0.248153   0.425210
    38  H   -0.120901   0.274901
    39  H    0.286724   0.054501
    40  H    0.179291   0.067533
    41  H    0.178406   0.073025
 Sum of Mulliken charges =  -1.00000   1.00000

 Dipole moment (field-independent basis, Debye):
    X=              0.8273    Y=              4.8124    Z=              0.2687  Tot=              4.8904
 Quadrupole moment (field-independent basis, Debye-Ang):
   XX=           -203.1158   YY=           -182.1601   ZZ=           -147.3407
   XY=            -11.2331   XZ=             -0.1139   YZ=              3.7197

 Summary of Natural Population Analysis:

                                       Natural Population
                Natural  -----------------------------------------------
    Atom  No    Charge         Core      Valence    Rydberg      Total
 -----------------------------------------------------------------------
      C    1   -0.30349      0.99963     2.29735    0.00651     3.30349
      C    2    0.06425      0.99958     1.92254    0.01362     2.93575
      C    3   -0.28773      0.99964     2.28309    0.00500     3.28773
      O    4   -0.31117      0.99987     3.30106    0.01024     4.31117
      C    5   -0.01556      0.99956     2.00469    0.01131     3.01556
      C    6   -0.19874      0.99962     2.19021    0.00892     3.19874
      C    7   -0.19346      0.99962     2.18485    0.00899     3.19346
      C    8   -0.09272      0.99960     2.08196    0.01116     3.09272
      N    9   -0.29510      0.99965     2.78416    0.01130     3.79510
      C   10    0.32065      0.99960     1.66139    0.01837     2.67935
      N   11   -0.31989      0.99963     2.81132    0.00894     3.81989
      C   12    0.30771      0.99960     1.67440    0.01829     2.69229
      N   13   -0.31756      0.99963     2.80757    0.01036     3.81756
      C   14    0.38254      0.99955     1.59767    0.02024     2.61746
      N   15   -0.31876      0.99963     2.80979    0.00933     3.81876
      O   16   -0.26358      0.99985     3.25428    0.00946     4.26358
      C   17   -0.10272      0.99959     2.09415    0.00898     3.10272
      N   18   -0.21922      0.99964     2.70768    0.01190     3.71922
      N   19   -0.31330      0.99978     2.80354    0.00998     3.81330
      H   20    0.10525      0.00000     0.39288    0.00187     0.39475
      H   21    0.09855      0.00000     0.40054    0.00091     0.40145
      H   22    0.09899      0.00000     0.40006    0.00095     0.40101
      H   23    0.07571      0.00000     0.42209    0.00220     0.42429
      H   24    0.09961      0.00000     0.39931    0.00109     0.40039
      H   25    0.10226      0.00000     0.39660    0.00115     0.39774
      H   26    0.09855      0.00000     0.40053    0.00092     0.40145
      H   27    0.08891      0.00000     0.40842    0.00267     0.41109
      H   28    0.07867      0.00000     0.42008    0.00125     0.42133
      H   29    0.10191      0.00000     0.39681    0.00128     0.39809
      H   30    0.09913      0.00000     0.39977    0.00110     0.40087
      H   31    0.09836      0.00000     0.39997    0.00167     0.40164
      H   32    0.10451      0.00000     0.39410    0.00139     0.39549
      H   33    0.09574      0.00000     0.40299    0.00127     0.40426
      H   34    0.11005      0.00000     0.38727    0.00268     0.38995
      H   35    0.20095      0.00000     0.29345    0.00560     0.29905
      H   36    0.09428      0.00000     0.40395    0.00177     0.40572
      H   37    0.09300      0.00000     0.40541    0.00159     0.40700
      H   38    0.08914      0.00000     0.40975    0.00111     0.41086
      H   39    0.19404      0.00000     0.30327    0.00269     0.30596
      H   40    0.17653      0.00000     0.32108    0.00239     0.32347
      H   41    0.17372      0.00000     0.32423    0.00206     0.32628
 =======================================================================
   * Total *    0.00000     18.99328    53.75426    0.25246    73.00000

 Normal termination of Gaussian 16 at Mon Dec 14 14:53:58 2020.
