 Gaussian 16, Revision A.03,

 -----------------------------------------------------------
 # opt freq B3LYP/6-31G(d) empiricaldispersion=gd3bj scf=xqc
 -----------------------------------------------------------

 -------------------------------
 CID_137501254_JID_1248_neutraal
 -------------------------------
 Symbolic Z-matrix:
 Charge =  0 Multiplicity = 1

 SCF Done:  E(RB3LYP) =  -490.508880896     A.U. after   15 cycles
 SCF Done:  E(RB3LYP) =  -490.513691209     A.U. after   12 cycles
 SCF Done:  E(RB3LYP) =  -490.513990149     A.U. after   12 cycles
 SCF Done:  E(RB3LYP) =  -490.514020972     A.U. after   11 cycles
 SCF Done:  E(RB3LYP) =  -490.514028046     A.U. after   10 cycles
 SCF Done:  E(RB3LYP) =  -490.514038095     A.U. after    9 cycles
 SCF Done:  E(RB3LYP) =  -490.514042140     A.U. after   10 cycles
 SCF Done:  E(RB3LYP) =  -490.514043439     A.U. after    9 cycles
 SCF Done:  E(RB3LYP) =  -490.514044793     A.U. after    9 cycles
 SCF Done:  E(RB3LYP) =  -490.514050381     A.U. after   11 cycles
 SCF Done:  E(RB3LYP) =  -490.516336472     A.U. after   10 cycles
 SCF Done:  E(RB3LYP) =  -490.516346244     A.U. after   10 cycles
 SCF Done:  E(RB3LYP) =  -490.516353707     A.U. after   11 cycles
 SCF Done:  E(RB3LYP) =  -490.516355273     A.U. after    9 cycles
 SCF Done:  E(RB3LYP) =  -490.516355845     A.U. after    9 cycles
 Optimization completed.
    -- Stationary point found.
 Normal termination of Gaussian 16 at Tue Dec  8 19:40:08 2020.

 --------------------------------------------------------------------
 #N Geom=AllCheck Guess=TCheck SCRF=Check GenChk RB3LYP/6-31G(d) Freq
 --------------------------------------------------------------------

 Structure from the checkpoint file:  "JID_1248.chk"
 -------------------------------
 CID_137501254_JID_1248_neutraal
 -------------------------------
 Charge =  0 Multiplicity = 1

 SCF Done:  E(RB3LYP) =  -490.516355845     A.U. after    1 cycles

  Exact polarizability: 104.273  -3.309  78.582   0.000   0.000  76.368
 Approx polarizability: 146.719  -9.649 121.163   0.001   0.001 129.718

                      1                      2                      3
                      A                      A                      A
 Frequencies --     46.0651                82.1616               115.0688
 Red. masses --      6.5779                 4.7826                 3.2538
 Frc consts  --      0.0082                 0.0190                 0.0254
 IR Inten    --      0.7341                 1.5996                 1.4466

                      4                      5                      6
                      A                      A                      A
 Frequencies --    171.0343               222.3493               228.1191
 Red. masses --      4.8028                 2.8987                 3.8248
 Frc consts  --      0.0828                 0.0844                 0.1173
 IR Inten    --      1.4735                 1.5595                 7.5892

                      7                      8                      9
                      A                      A                      A
 Frequencies --    360.5326               435.4414               483.5455
 Red. masses --      3.0312                 4.9993                 8.4412
 Frc consts  --      0.2321                 0.5585                 1.1629
 IR Inten    --      9.2682                 7.2654                 2.0522

                     10                     11                     12
                      A                      A                      A
 Frequencies --    539.2459               565.4174               674.0063
 Red. masses --      7.1645                 5.3499                 1.9349
 Frc consts  --      1.2275                 1.0077                 0.5179
 IR Inten    --      3.5378                 1.6137                 1.3372

                     13                     14                     15
                      A                      A                      A
 Frequencies --    675.7202               697.7959               801.1861
 Red. masses --      3.8094                 7.3038                 1.2480
 Frc consts  --      1.0248                 2.0954                 0.4720
 IR Inten    --      0.0430                 5.6174                 0.4385

                     16                     17                     18
                      A                      A                      A
 Frequencies --    812.2134               839.1665               886.2753
 Red. masses --      1.9231                 1.1851                 1.3555
 Frc consts  --      0.7475                 0.4917                 0.6273
 IR Inten    --     21.9326                28.8408                 0.1184

                     19                     20                     21
                      A                      A                      A
 Frequencies --    900.2750               949.5315               969.9974
 Red. masses --      2.3352                 2.4406                 2.7515
 Frc consts  --      1.1151                 1.2965                 1.5253
 IR Inten    --      2.9316                 0.4351                 0.3254

                     22                     23                     24
                      A                      A                      A
 Frequencies --    986.0834               988.5837              1049.6578
 Red. masses --      7.4465                 3.7498                 2.7249
 Frc consts  --      4.2661                 2.1592                 1.7689
 IR Inten    --     22.3147                26.6482                 0.4080

                     25                     26                     27
                      A                      A                      A
 Frequencies --   1090.5992              1096.7798              1130.1445
 Red. masses --      1.4429                 1.7221                 4.6727
 Frc consts  --      1.0112                 1.2206                 3.5163
 IR Inten    --      3.0272                 3.5451                 1.2991

                     28                     29                     30
                      A                      A                      A
 Frequencies --   1200.9632              1204.2037              1225.0111
 Red. masses --      2.9358                 1.5373                 1.2930
 Frc consts  --      2.4948                 1.3134                 1.1432
 IR Inten    --     10.9371                 6.0871                 2.7492

                     31                     32                     33
                      A                      A                      A
 Frequencies --   1258.7099              1274.3976              1292.1006
 Red. masses --      1.4950                 1.2842                 1.4099
 Frc consts  --      1.3955                 1.2288                 1.3869
 IR Inten    --      2.8487                 0.0109                 0.4162

                     34                     35                     36
                      A                      A                      A
 Frequencies --   1304.5287              1309.6253              1316.8648
 Red. masses --      2.0571                 4.6365                 3.8291
 Frc consts  --      2.0626                 4.6853                 3.9123
 IR Inten    --      7.0159                 2.5986                 2.5158

                     37                     38                     39
                      A                      A                      A
 Frequencies --   1392.9582              1456.3096              1500.0149
 Red. masses --      5.2666                 3.2794                 1.0847
 Frc consts  --      6.0208                 4.0978                 1.4379
 IR Inten    --     73.1867                 6.0905                 8.1386

                     40                     41                     42
                      A                      A                      A
 Frequencies --   1512.2132              1523.8768              1534.2690
 Red. masses --      1.0856                 4.6079                 1.1256
 Frc consts  --      1.4627                 6.3045                 1.5611
 IR Inten    --      2.9351                 0.1566                 1.7421

                     43                     44                     45
                      A                      A                      A
 Frequencies --   2366.2982              3097.0937              3109.6783
 Red. masses --     12.6903                 1.0598                 1.0607
 Frc consts  --     41.8661                 5.9892                 6.0430
 IR Inten    --      3.1996                25.8590                12.0422

                     46                     47                     48
                      A                      A                      A
 Frequencies --   3112.6084              3148.3249              3180.6037
 Red. masses --      1.0641                 1.1072                 1.1066
 Frc consts  --      6.0742                 6.4660                 6.5955
 IR Inten    --      7.1033                19.6916                 2.0669

                     49                     50                     51
                      A                      A                      A
 Frequencies --   3181.3367              3280.6416              3296.2669
 Red. masses --      1.1075                 1.0927                 1.1041
 Frc consts  --      6.6042                 6.9292                 7.0681
 IR Inten    --     14.0759                 0.8418                 2.3662

 - Thermochemistry -
 -------------------
 Temperature   298.150 Kelvin.  Pressure   1.00000 Atm.
 Atom     1 has atomic number  6 and mass  12.00000

 Molecular mass:   148.07490 amu.
 Principal axes and moments of inertia in atomic units:
                           1         2         3
     Eigenvalues --  1037.865971778.896832162.64455
           X            0.99862   0.05243  -0.00000
           Y           -0.05243   0.99862  -0.00000
           Z            0.00000   0.00000   1.00000
 This molecule is an asymmetric top.
 Rotational symmetry number  1.
 Warning -- assumption of classical behavior for rotation
           may cause significant error
 Rotational temperatures (Kelvin)      0.08345     0.04869     0.04005
 Rotational constants (GHZ):           1.73890     1.01453     0.83451
 Zero-point vibrational energy     394025.4 (Joules/Mol)
                                   94.17432 (Kcal/Mol)
 Warning -- explicit consideration of  11 degrees of freedom as
           vibrations may cause significant error
 Vibrational temperatures:     66.28   118.21   165.56   246.08   319.91
          (Kelvin)            328.21   518.73   626.50   695.71   775.85
                              813.51   969.74   972.21  1003.97  1152.73
                             1168.59  1207.37  1275.15  1295.29  1366.16
                             1395.61  1418.75  1422.35  1510.22  1569.13
                             1578.02  1626.03  1727.92  1732.58  1762.52
                             1811.00  1833.57  1859.04  1876.93  1884.26
                             1894.67  2004.16  2095.30  2158.19  2175.74
                             2192.52  2207.47  3404.58  4456.03  4474.13
                             4478.35  4529.74  4576.18  4577.23  4720.11
                             4742.59

 Zero-point correction=                           0.150076 (Hartree/Particle)
 Thermal correction to Energy=                    0.159227
 Thermal correction to Enthalpy=                  0.160172
 Thermal correction to Gibbs Free Energy=         0.114773
 Sum of electronic and zero-point Energies=           -490.366280
 Sum of electronic and thermal Energies=              -490.357128
 Sum of electronic and thermal Enthalpies=            -490.356184
 Sum of electronic and thermal Free Energies=         -490.401583

                     E (Thermal)             CV                S
                      KCal/Mol        Cal/Mol-Kelvin    Cal/Mol-Kelvin
 Total                   99.917             34.071             95.550
 Electronic               0.000              0.000              0.000
 Translational            0.889              2.981             40.888
 Rotational               0.889              2.981             29.769
 Vibrational             98.139             28.110             24.893
 Vibration     1          0.595              1.979              4.980
 Vibration     2          0.600              1.961              3.839
 Vibration     3          0.608              1.937              3.182
 Vibration     4          0.626              1.878              2.424
 Vibration     5          0.648              1.807              1.940
 Vibration     6          0.651              1.798              1.894
 Vibration     7          0.735              1.554              1.120
 Vibration     8          0.796              1.393              0.841
 Vibration     9          0.840              1.287              0.701
 Vibration    10          0.894              1.163              0.567
 Vibration    11          0.921              1.106              0.513

 Optimization completed.
    -- Stationary point found.
 Normal termination of Gaussian 16 at Tue Dec  8 19:43:36 2020.

 ----------------------------------------------------------------------
 # B3LYP/6-311++G(d,p) empiricaldispersion=gd3bj scf=xqc pop=npa geom=c
 heck
 ----------------------------------------------------------------------

 ---------------------------------------
 CID_137501254_JID_1248_Energie_neutraal
 ---------------------------------------
 Structure from the checkpoint file:  "JID_1248.chk"
 Charge =  0 Multiplicity = 1

 SCF Done:  E(RB3LYP) =  -490.645970836     A.U. after   14 cycles
 Normal termination of Gaussian 16 at Tue Dec  8 19:44:33 2020.

 ----------------------------------------------------------------------
 # B3LYP/6-311++G(d,p) empiricaldispersion=gd3bj scf=xqc pop=npa geom=c
 heck
 ----------------------------------------------------------------------

 -------------------------------------
 CID_137501254_JID_1248_Energie_kation
 -------------------------------------
 Structure from the checkpoint file:  "JID_1248.chk"
 Charge =  1 Multiplicity = 2

 SCF Done:  E(UB3LYP) =  -490.280874834     A.U. after   21 cycles
 Normal termination of Gaussian 16 at Tue Dec  8 19:47:24 2020.
 Gaussian 16:  ES64L-G16RevA.03 25-Dec-2016

 ----------------------------------------------------------------------
 # B3LYP/6-311++G(d,p) empiricaldispersion=gd3bj scf=xqc pop=npa geom=c
 heck
 ----------------------------------------------------------------------

 ------------------------------------
 CID_137501254_JID_1248_Energie_anion
 ------------------------------------
 Structure from the checkpoint file:  "JID_1248.chk"
 Charge = -1 Multiplicity = 2

                         Standard orientation:
 ---------------------------------------------------------------------
 Center     Atomic      Atomic             Coordinates (Angstroms)
 Number     Number       Type             X           Y           Z
 ---------------------------------------------------------------------
      1          6           0       -1.767899   -1.801701   -0.000019
      2          6           0       -1.520338   -0.722301   -1.084371
      3          6           0       -0.828082    0.157418    0.000028
      4          6           0       -1.520345   -0.722363    1.084404
      5          6           0       -1.128224    1.591907   -0.000011
      6          7           0       -1.409128    2.717950    0.000007
      7          7           0        0.619634   -0.050370   -0.000007
      8          7           0        1.329221   -0.059354   -1.131294
      9          6           0        2.591416   -0.107880   -0.703542
     10          6           0        2.591472   -0.107886    0.703532
     11          7           0        1.329276   -0.059300    1.131276
     12          1           0       -0.988994   -2.568653    0.000008
     13          1           0       -2.745810   -2.287613   -0.000047
     14          1           0       -0.896783   -0.962736   -1.945420
     15          1           0       -2.445245   -0.245986   -1.417170
     16          1           0       -2.445220   -0.246057    1.417299
     17          1           0       -0.896718   -0.962842    1.945379
     18          1           0        3.413829   -0.145902   -1.402716
     19          1           0        3.413925   -0.145854    1.402663
 ---------------------------------------------------------------------

 SCF Done:  E(UB3LYP) =  -490.633729632     A.U. after   33 cycles
 SCF Done:  E(UB3LYP) =  -490.633729683     a.u. after    2 cycles

 The electronic state is 2-A.
 Alpha  occ. eigenvalues --  -14.31048 -14.23221 -14.23219 -14.21274 -10.16092
 Alpha  occ. eigenvalues --  -10.10888 -10.09143 -10.09093 -10.08205 -10.08204
 Alpha  occ. eigenvalues --  -10.07219  -0.99906  -0.81533  -0.78571  -0.78409
 Alpha  occ. eigenvalues --   -0.70778  -0.60783  -0.57968  -0.51869  -0.51425
 Alpha  occ. eigenvalues --   -0.48218  -0.43987  -0.41257  -0.37329  -0.36178
 Alpha  occ. eigenvalues --   -0.34974  -0.33328  -0.30491  -0.29515  -0.27832
 Alpha  occ. eigenvalues --   -0.25929  -0.24484  -0.23847  -0.22522  -0.22297
 Alpha  occ. eigenvalues --   -0.21654  -0.19040  -0.18712  -0.16371   0.04885
 Alpha virt. eigenvalues --    0.06761   0.07468   0.08666   0.09296   0.09342
 Alpha virt. eigenvalues --    0.10480   0.11845   0.11974   0.12570   0.13175
 Alpha virt. eigenvalues --    0.13342   0.14140   0.15094   0.15688   0.16230

  Beta  occ. eigenvalues --  -14.30934 -14.23025 -14.23022 -14.21252 -10.16091
  Beta  occ. eigenvalues --  -10.10866 -10.09137 -10.09087 -10.08177 -10.08175
  Beta  occ. eigenvalues --  -10.07179  -0.99653  -0.81461  -0.78481  -0.78057
  Beta  occ. eigenvalues --   -0.70658  -0.60696  -0.57898  -0.51791  -0.51228
  Beta  occ. eigenvalues --   -0.48068  -0.43785  -0.41155  -0.37233  -0.35695
  Beta  occ. eigenvalues --   -0.34876  -0.33183  -0.30431  -0.29467  -0.27785
  Beta  occ. eigenvalues --   -0.25843  -0.24412  -0.23793  -0.22410  -0.22072
  Beta  occ. eigenvalues --   -0.21613  -0.18681  -0.17804  -0.15973
  Beta virt. eigenvalues --    0.07541   0.08278   0.08930   0.09153   0.09752
  Beta virt. eigenvalues --    0.09821   0.11056   0.12081   0.12113   0.12955
  Beta virt. eigenvalues --    0.13299   0.13594   0.14357   0.15174   0.15661

 Mulliken charges and spin densities:
               1          2
     1  C    0.318637  -0.402150
     2  C   -0.301711  -0.202919
     3  C   -1.193219   1.705865
     4  C   -0.301552  -0.203051
     5  C    2.464734  -3.115936
     6  N   -0.356366   0.094137
     7  N    0.482318   0.077528
     8  N   -0.228376   0.181977
     9  C    0.329261  -0.479787
    10  C    0.329344  -0.479868
    11  N   -0.228391   0.182005
    12  H    0.179826  -0.050949
    13  H   -0.974200   1.165799
    14  H    0.156887   0.026968
    15  H   -0.434290   0.620972
    16  H   -0.434342   0.621020
    17  H    0.156886   0.026962
    18  H   -0.482699   0.615688
    19  H   -0.482746   0.615740
 Sum of Mulliken charges =  -1.00000   1.00000

 Dipole moment (field-independent basis, Debye):
    X=              3.0879    Y=             -0.0612    Z=             -0.0001  Tot=              3.0885
 Quadrupole moment (field-independent basis, Debye-Ang):
   XX=           -131.2904   YY=           -101.1538   ZZ=            -87.3234
   XY=             -2.2130   XZ=             -0.0001   YZ=             -0.0001

 Summary of Natural Population Analysis:

                                       Natural Population
                Natural  -----------------------------------------------
    Atom  No    Charge         Core      Valence    Rydberg      Total
 -----------------------------------------------------------------------
      C    1   -0.19162      0.99964     2.18306    0.00892     3.19162
      C    2   -0.17140      0.99961     2.16271    0.00908     3.17140
      C    3    0.01146      0.99946     1.97242    0.01666     2.98854
      C    4   -0.17140      0.99961     2.16270    0.00908     3.17140
      C    5    0.16959      0.99960     1.81388    0.01693     2.83041
      N    6   -0.17759      0.99979     2.66688    0.01092     3.67759
      N    7   -0.01056      0.99966     2.49180    0.01910     3.51056
      N    8   -0.11380      0.99972     2.60285    0.01123     3.61380
      C    9   -0.03809      0.99963     2.02479    0.01367     3.03809
      C   10   -0.03809      0.99963     2.02479    0.01367     3.03809
      N   11   -0.11381      0.99972     2.60285    0.01123     3.61381
      H   12    0.09837      0.00000     0.40036    0.00127     0.40163
      H   13    0.10652      0.00000     0.38812    0.00536     0.39348
      H   14    0.11191      0.00000     0.38647    0.00162     0.38809
      H   15    0.10761      0.00000     0.38999    0.00241     0.39239
      H   16    0.10761      0.00000     0.38998    0.00241     0.39239
      H   17    0.11191      0.00000     0.38647    0.00162     0.38809
      H   18    0.10070      0.00000     0.39819    0.00112     0.39930
      H   19    0.10070      0.00000     0.39818    0.00112     0.39930
 =======================================================================
   * Total *    0.00000     10.99609    27.84650    0.15741    39.00000

 Normal termination of Gaussian 16 at Tue Dec  8 19:55:39 2020.
