 Gaussian 16, Revision A.03,

 -----------------------------------------------------------
 # opt freq B3LYP/6-31G(d) empiricaldispersion=gd3bj scf=xqc
 -----------------------------------------------------------

 ------------------------------
 CID_61024352_JID_5847_neutraal
 ------------------------------
 Symbolic Z-matrix:
 Charge =  0 Multiplicity = 1

 SCF Done:  E(RB3LYP) =  -704.814204061     A.U. after   14 cycles
 SCF Done:  E(RB3LYP) =  -704.819875583     A.U. after   12 cycles
 SCF Done:  E(RB3LYP) =  -704.820724003     A.U. after   12 cycles
 SCF Done:  E(RB3LYP) =  -704.821157025     A.U. after   12 cycles
 SCF Done:  E(RB3LYP) =  -704.821608851     A.U. after   14 cycles
 SCF Done:  E(RB3LYP) =  -704.821786775     A.U. after   14 cycles
 SCF Done:  E(RB3LYP) =  -704.821881641     A.U. after   12 cycles
 SCF Done:  E(RB3LYP) =  -704.822002657     A.U. after   12 cycles
 SCF Done:  E(RB3LYP) =  -704.822009000     A.U. after   10 cycles
 SCF Done:  E(RB3LYP) =  -704.822014319     A.U. after   10 cycles
 SCF Done:  E(RB3LYP) =  -704.822015496     A.U. after    9 cycles
 SCF Done:  E(RB3LYP) =  -704.822013625     A.U. after    9 cycles
 SCF Done:  E(RB3LYP) =  -704.822013610     A.U. after    7 cycles
 SCF Done:  E(RB3LYP) =  -704.822015448     A.U. after    9 cycles
 SCF Done:  E(RB3LYP) =  -704.822013741     A.U. after    9 cycles
 Optimization completed.
    -- Stationary point found.
 Normal termination of Gaussian 16 at Thu Dec 10 17:33:15 2020.

 --------------------------------------------------------------------
 #N Geom=AllCheck Guess=TCheck SCRF=Check GenChk RB3LYP/6-31G(d) Freq
 --------------------------------------------------------------------

 Structure from the checkpoint file:  "JID_5847.chk"
 ------------------------------
 CID_61024352_JID_5847_neutraal
 ------------------------------
 Charge =  0 Multiplicity = 1

 SCF Done:  E(RB3LYP) =  -704.822013740     A.U. after    1 cycles

  Exact polarizability: 166.730  28.626 104.800  -9.387   6.592 119.805
 Approx polarizability: 216.894  53.757 159.231 -15.694   7.810 208.544

                      1                      2                      3
                      A                      A                      A
 Frequencies --     28.8263                38.1485                47.8691
 Red. masses --      4.8313                 3.9775                 4.4829
 Frc consts  --      0.0024                 0.0034                 0.0061
 IR Inten    --      0.1217                 1.6317                 0.0803

                      4                      5                      6
                      A                      A                      A
 Frequencies --    106.6527               138.3383               178.8239
 Red. masses --      4.7509                 3.9888                 4.5135
 Frc consts  --      0.0318                 0.0450                 0.0850
 IR Inten    --      1.3772                 0.4453                 5.0692

                      7                      8                      9
                      A                      A                      A
 Frequencies --    209.5819               264.4623               270.5131
 Red. masses --      1.0481                 2.4586                 2.8434
 Frc consts  --      0.0271                 0.1013                 0.1226
 IR Inten    --     26.5083                17.3279                 3.5784

                     10                     11                     12
                      A                      A                      A
 Frequencies --    310.5717               348.0283               369.0126
 Red. masses --      3.7401                 3.3362                 2.1800
 Frc consts  --      0.2125                 0.2381                 0.1749
 IR Inten    --      2.0030                 8.0086                 2.2223

                     13                     14                     15
                      A                      A                      A
 Frequencies --    398.1625               429.5463               447.6577
 Red. masses --      3.4473                 3.9506                 6.9041
 Frc consts  --      0.3220                 0.4295                 0.8152
 IR Inten    --      1.2231                 3.9731                 0.9546

                     16                     17                     18
                      A                      A                      A
 Frequencies --    480.0848               481.4945               498.2448
 Red. masses --      2.5609                 3.6869                 2.8314
 Frc consts  --      0.3478                 0.5036                 0.4141
 IR Inten    --     11.4192                 4.3153                 5.9294

                     19                     20                     21
                      A                      A                      A
 Frequencies --    516.3952               570.9237               634.9769
 Red. masses --      2.6089                 2.9976                 2.1937
 Frc consts  --      0.4099                 0.5757                 0.5211
 IR Inten    --      9.1905                49.3495                20.7745

                     22                     23                     24
                      A                      A                      A
 Frequencies --    662.6939               676.1217               717.9309
 Red. masses --      3.2384                 2.6297                 1.3747
 Frc consts  --      0.8379                 0.7083                 0.4175
 IR Inten    --    119.2146               162.2754               235.3692

                     25                     26                     27
                      A                      A                      A
 Frequencies --    754.9194               780.9567               826.3460
 Red. masses --      4.7456                 2.4979                 1.6438
 Frc consts  --      1.5935                 0.8976                 0.6613
 IR Inten    --      7.6743                25.2180                54.5397

                     28                     29                     30
                      A                      A                      A
 Frequencies --    841.5451               871.2800               891.0263
 Red. masses --      2.9569                 3.8375                 2.9358
 Frc consts  --      1.2338                 1.7164                 1.3733
 IR Inten    --     10.3308                 2.4021                25.7773

                     31                     32                     33
                      A                      A                      A
 Frequencies --    910.5648               913.8670               940.1722
 Red. masses --      1.9290                 1.4138                 1.3071
 Frc consts  --      0.9423                 0.6957                 0.6807
 IR Inten    --      4.3610                12.2592                 1.9915

                     34                     35                     36
                      A                      A                      A
 Frequencies --    964.3328               991.0035              1035.1624
 Red. masses --      2.0481                 3.2126                 2.9872
 Frc consts  --      1.1221                 1.8589                 1.8859
 IR Inten    --     44.6191                 7.7489                 9.4732

                     37                     38                     39
                      A                      A                      A
 Frequencies --   1083.4577              1106.3846              1111.7254
 Red. masses --      2.6636                 2.9630                 1.9949
 Frc consts  --      1.8422                 2.1369                 1.4527
 IR Inten    --     11.9839                17.9830                22.9981

                     40                     41                     42
                      A                      A                      A
 Frequencies --   1120.1839              1146.0811              1147.8629
 Red. masses --      1.8717                 2.6675                 3.7458
 Frc consts  --      1.3838                 2.0644                 2.9078
 IR Inten    --      4.3068                25.7321                 1.2927

                     43                     44                     45
                      A                      A                      A
 Frequencies --   1156.2477              1166.8244              1185.0443
 Red. masses --      4.3341                 2.3348                 1.3366
 Frc consts  --      3.4139                 1.8729                 1.1059
 IR Inten    --    180.4606                20.4876                18.3882

                     46                     47                     48
                      A                      A                      A
 Frequencies --   1259.1074              1266.3154              1301.3111
 Red. masses --      1.3147                 1.1325                 1.9368
 Frc consts  --      1.2280                 1.0699                 1.9324
 IR Inten    --     32.7650                 7.1862                25.9875

                     49                     50                     51
                      A                      A                      A
 Frequencies --   1315.9353              1319.3223              1325.1759
 Red. masses --      1.5700                 1.7152                 1.4857
 Frc consts  --      1.6019                 1.7590                 1.5372
 IR Inten    --     39.3072                59.2099                16.9063

                     52                     53                     54
                      A                      A                      A
 Frequencies --   1339.1993              1352.3500              1365.1560
 Red. masses --      1.2295                 1.8295                 2.2173
 Frc consts  --      1.2991                 1.9713                 2.4347
 IR Inten    --      2.6299                21.0303                28.1010

                     55                     56                     57
                      A                      A                      A
 Frequencies --   1384.4980              1411.0595              1423.9159
 Red. masses --      1.2808                 1.2646                 1.3881
 Frc consts  --      1.4465                 1.4835                 1.6582
 IR Inten    --      2.9834                34.2160                 4.9445

                     58                     59                     60
                      A                      A                      A
 Frequencies --   1434.3801              1447.6501              1468.9378
 Red. masses --      1.3544                 1.4491                 2.2455
 Frc consts  --      1.6418                 1.7893                 2.8548
 IR Inten    --     16.9466                 1.1879                52.0390

                     61                     62                     63
                      A                      A                      A
 Frequencies --   1506.8495              1508.5615              1514.8002
 Red. masses --      1.1134                 1.9191                 1.1102
 Frc consts  --      1.4894                 2.5732                 1.5009
 IR Inten    --      0.9732                49.8805                 2.3910

                     64                     65                     66
                      A                      A                      A
 Frequencies --   1515.3346              1522.1322              1565.5207
 Red. masses --      1.1058                 1.1081                 2.3802
 Frc consts  --      1.4960                 1.5126                 3.4370
 IR Inten    --     11.7813                 1.3431               363.4194

                     67                     68                     69
                      A                      A                      A
 Frequencies --   1637.7308              1676.5807              1695.5169
 Red. masses --      4.8825                 3.0286                 1.3909
 Frc consts  --      7.7157                 5.0158                 2.3558
 IR Inten    --     22.2246                44.6451                32.0628

                     70                     71                     72
                      A                      A                      A
 Frequencies --   2984.6586              2997.8355              3003.6530
 Red. masses --      1.0708                 1.0712                 1.0801
 Frc consts  --      5.6203                 5.6719                 5.7413
 IR Inten    --     29.9408                43.1743                17.8564

                     73                     74                     75
                      A                      A                      A
 Frequencies --   3011.9498              3068.8678              3104.8030
 Red. masses --      1.0689                 1.0599                 1.0968
 Frc consts  --      5.7133                 5.8812                 6.2293
 IR Inten    --     94.4474                43.1020                11.0625

                     76                     77                     78
                      A                      A                      A
 Frequencies --   3110.9511              3111.6296              3113.1586
 Red. masses --      1.0974                 1.0962                 1.1007
 Frc consts  --      6.2573                 6.2534                 6.2853
 IR Inten    --     41.7486                51.2094                33.5285

                     79                     80                     81
                      A                      A                      A
 Frequencies --   3141.6123              3178.9821              3214.8785
 Red. masses --      1.0895                 1.0891                 1.0922
 Frc consts  --      6.3355                 6.4847                 6.6512
 IR Inten    --     48.1472                21.1626                16.9132

                     82                     83                     84
                      A                      A                      A
 Frequencies --   3528.1178              3568.9144              3623.5140
 Red. masses --      1.0483                 1.0744                 1.0967
 Frc consts  --      7.6882                 8.0630                 8.4838
 IR Inten    --      4.6915                21.0363                 5.5206

 - Thermochemistry -
 -------------------
 Temperature   298.150 Kelvin.  Pressure   1.00000 Atm.
 Atom     1 has atomic number  6 and mass  12.00000

 Molecular mass:   209.11643 amu.
 Principal axes and moments of inertia in atomic units:
                           1         2         3
     Eigenvalues --  1356.848536716.628136771.90130
           X            0.99996   0.00851  -0.00295
           Y           -0.00626   0.89244   0.45113
           Z            0.00647  -0.45109   0.89245
 This molecule is an asymmetric top.
 Rotational symmetry number  1.
 Warning -- assumption of classical behavior for rotation
           may cause significant error
 Rotational temperatures (Kelvin)      0.06383     0.01290     0.01279
 Rotational constants (GHZ):           1.33010     0.26870     0.26650
 Zero-point vibrational energy     670452.6 (Joules/Mol)
                                  160.24201 (Kcal/Mol)
 Warning -- explicit consideration of  20 degrees of freedom as
           vibrations may cause significant error
 Vibrational temperatures:     41.47    54.89    68.87   153.45   199.04
          (Kelvin)            257.29   301.54   380.50   389.21   446.84
                              500.74   530.93   572.87   618.02   644.08
                              690.73   692.76   716.86   742.98   821.43
                              913.59   953.47   972.79  1032.94  1086.16
                             1123.62  1188.93  1210.80  1253.58  1281.99
                             1310.10  1314.85  1352.70  1387.46  1425.83
                             1489.37  1558.85  1591.84  1599.52  1611.69
                             1648.96  1651.52  1663.58  1678.80  1705.01
                             1811.57  1821.95  1872.30  1893.34  1898.21
                             1906.63  1926.81  1945.73  1964.16  1991.98
                             2030.20  2048.70  2063.75  2082.85  2113.47
                             2168.02  2170.48  2179.46  2180.23  2190.01
                             2252.44  2356.33  2412.23  2439.47  4294.26
                             4313.22  4321.59  4333.52  4415.42  4467.12
                             4475.96  4476.94  4479.14  4520.08  4573.85
                             4625.49  5076.17  5134.87  5213.43

 Zero-point correction=                           0.255362 (Hartree/Particle)
 Thermal correction to Energy=                    0.268844
 Thermal correction to Enthalpy=                  0.269788
 Thermal correction to Gibbs Free Energy=         0.213788
 Sum of electronic and zero-point Energies=           -704.566652
 Sum of electronic and thermal Energies=              -704.553170
 Sum of electronic and thermal Enthalpies=            -704.552226
 Sum of electronic and thermal Free Energies=         -704.608226

                     E (Thermal)             CV                S
                      KCal/Mol        Cal/Mol-Kelvin    Cal/Mol-Kelvin
 Total                  168.702             52.490            117.863
 Electronic               0.000              0.000              0.000
 Translational            0.889              2.981             41.917
 Rotational               0.889              2.981             32.490
 Vibrational            166.925             46.528             43.456
 Vibration     1          0.593              1.984              5.909
 Vibration     2          0.594              1.982              5.353
 Vibration     3          0.595              1.978              4.904
 Vibration     4          0.606              1.944              3.329
 Vibration     5          0.614              1.915              2.827
 Vibration     6          0.629              1.868              2.341
 Vibration     7          0.642              1.826              2.047
 Vibration     8          0.671              1.738              1.632
 Vibration     9          0.674              1.728              1.593
 Vibration    10          0.699              1.654              1.359
 Vibration    11          0.726              1.579              1.175
 Vibration    12          0.741              1.536              1.084
 Vibration    13          0.764              1.474              0.969
 Vibration    14          0.791              1.406              0.860
 Vibration    15          0.807              1.366              0.803
 Vibration    16          0.836              1.294              0.710
 Vibration    17          0.838              1.291              0.706
 Vibration    18          0.854              1.254              0.663
 Vibration    19          0.871              1.214              0.618
 Vibration    20          0.927              1.094              0.502

 Optimization completed.
    -- Stationary point found.
 Normal termination of Gaussian 16 at Thu Dec 10 17:42:21 2020.

 ----------------------------------------------------------------------
 # B3LYP/6-311++G(d,p) empiricaldispersion=gd3bj scf=xqc pop=npa geom=c
 heck
 ----------------------------------------------------------------------

 --------------------------------------
 CID_61024352_JID_5847_Energie_neutraal
 --------------------------------------
 Structure from the checkpoint file:  "JID_5847.chk"
 Charge =  0 Multiplicity = 1

 SCF Done:  E(RB3LYP) =  -705.028815148     A.U. after   15 cycles
 Normal termination of Gaussian 16 at Thu Dec 10 17:46:06 2020.

 ----------------------------------------------------------------------
 # B3LYP/6-311++G(d,p) empiricaldispersion=gd3bj scf=xqc pop=npa geom=c
 heck
 ----------------------------------------------------------------------

 ------------------------------------
 CID_61024352_JID_5847_Energie_kation
 ------------------------------------
 Structure from the checkpoint file:  "JID_5847.chk"
 Charge =  1 Multiplicity = 2

 SCF Done:  E(UB3LYP) =  -704.769874048     A.U. after   22 cycles
 Normal termination of Gaussian 16 at Thu Dec 10 17:52:32 2020.
 Gaussian 16:  ES64L-G16RevA.03 25-Dec-2016

 ----------------------------------------------------------------------
 # B3LYP/6-311++G(d,p) empiricaldispersion=gd3bj scf=xqc pop=npa geom=c
 heck
 ----------------------------------------------------------------------

 -----------------------------------
 CID_61024352_JID_5847_Energie_anion
 -----------------------------------
 Structure from the checkpoint file:  "JID_5847.chk"
 Charge = -1 Multiplicity = 2

                         Standard orientation:
 ---------------------------------------------------------------------
 Center     Atomic      Atomic             Coordinates (Angstroms)
 Number     Number       Type             X           Y           Z
 ---------------------------------------------------------------------
      1          6           0        4.021872   -1.172129   -0.001678
      2          6           0        2.803052   -1.385002   -0.890565
      3          8           0        2.100662   -0.159540   -1.059534
      4          6           0        1.695930    0.384405    0.198808
      5          6           0        2.919840    0.585095    1.087948
      6          8           0        3.631737   -0.635182    1.256891
      7          6           0        0.953962    1.683098   -0.113735
      8          7           0       -0.225454    1.498791   -0.940632
      9          6           0       -1.334193    0.801106   -0.459950
     10          7           0       -2.062666    0.168532   -1.391404
     11          6           0       -3.172199   -0.468960   -1.016669
     12          6           0       -3.637878   -0.538842    0.302298
     13          6           0       -2.863374    0.115925    1.269330
     14          6           0       -1.707684    0.788263    0.896555
     15          7           0       -4.848370   -1.177862    0.625171
     16          1           0        4.532435   -2.117571    0.205926
     17          1           0        4.726482   -0.488343   -0.503126
     18          1           0        2.140925   -2.139954   -0.437749
     19          1           0        3.094006   -1.722006   -1.890362
     20          1           0        1.013674   -0.325770    0.693706
     21          1           0        2.628263    0.915253    2.089926
     22          1           0        3.577248    1.349133    0.638999
     23          1           0        0.676944    2.187079    0.818394
     24          1           0        1.632763    2.355798   -0.648748
     25          1           0       -0.001103    1.180781   -1.877528
     26          1           0       -3.730240   -0.963429   -1.813008
     27          1           0       -3.170687    0.101928    2.312609
     28          1           0       -1.114626    1.298016    1.647628
     29          1           0       -5.127504   -1.874886   -0.056433
     30          1           0       -4.858312   -1.582219    1.554904
 ---------------------------------------------------------------------

 SCF Done:  E(UB3LYP) =  -705.016541871     A.U. after   33 cycles
 SCF Done:  E(UB3LYP) =  -705.016541871     a.u. after    1 cycles

 The electronic state is 2-A.
 Alpha  occ. eigenvalues --  -19.04696 -19.04561 -14.22227 -14.21315 -14.20253
 Alpha  occ. eigenvalues --  -10.13647 -10.13509 -10.13480 -10.13456 -10.13434
 Alpha  occ. eigenvalues --  -10.11845 -10.10877 -10.09877 -10.08099 -10.07689
 Alpha  occ. eigenvalues --   -0.97859  -0.94101  -0.86827  -0.82049  -0.79494
 Alpha  occ. eigenvalues --   -0.70946  -0.69100  -0.64922  -0.62273  -0.59651
 Alpha  occ. eigenvalues --   -0.55688  -0.53936  -0.50724  -0.49604  -0.44524
 Alpha  occ. eigenvalues --   -0.42710  -0.42409  -0.40997  -0.40388  -0.39747
 Alpha  occ. eigenvalues --   -0.38947  -0.37716  -0.35894  -0.34720  -0.33759
 Alpha  occ. eigenvalues --   -0.32582  -0.31537  -0.30722  -0.29470  -0.29154
 Alpha  occ. eigenvalues --   -0.28717  -0.28290  -0.27357  -0.24548  -0.22737
 Alpha  occ. eigenvalues --   -0.20846  -0.18589  -0.17162  -0.16377  -0.16102
 Alpha  occ. eigenvalues --   -0.09321   0.04128
 Alpha virt. eigenvalues --    0.05456   0.06230   0.06861   0.07292   0.08100
 Alpha virt. eigenvalues --    0.08366   0.09252   0.09398   0.09877   0.10625
 Alpha virt. eigenvalues --    0.10952   0.11185   0.12126   0.12588   0.13860

  Beta  occ. eigenvalues --  -19.04692 -19.04554 -14.22225 -14.21250 -14.20234
  Beta  occ. eigenvalues --  -10.13646 -10.13491 -10.13461 -10.13438 -10.13433
  Beta  occ. eigenvalues --  -10.11835 -10.10873 -10.09861 -10.08060 -10.07676
  Beta  occ. eigenvalues --   -0.97846  -0.94088  -0.86806  -0.81998  -0.79440
  Beta  occ. eigenvalues --   -0.70925  -0.69040  -0.64884  -0.62234  -0.59613
  Beta  occ. eigenvalues --   -0.55651  -0.53872  -0.50678  -0.49565  -0.44491
  Beta  occ. eigenvalues --   -0.42670  -0.42367  -0.40947  -0.40356  -0.39691
  Beta  occ. eigenvalues --   -0.38914  -0.37680  -0.35842  -0.34688  -0.33719
  Beta  occ. eigenvalues --   -0.32550  -0.31480  -0.30668  -0.29445  -0.29118
  Beta  occ. eigenvalues --   -0.28701  -0.28256  -0.27332  -0.24497  -0.22716
  Beta  occ. eigenvalues --   -0.20812  -0.18514  -0.17102  -0.16344  -0.16070
  Beta  occ. eigenvalues --   -0.09257
  Beta virt. eigenvalues --    0.06119   0.06867   0.07022   0.07094   0.07827
  Beta virt. eigenvalues --    0.08458   0.09035   0.09546   0.09758   0.10206
  Beta virt. eigenvalues --    0.10732   0.11092   0.11478   0.12504   0.12929

 Mulliken charges and spin densities:
               1          2
     1  C    0.450320  -0.703641
     2  C    0.013434  -0.056871
     3  O   -0.079323   0.034629
     4  C   -0.364185   0.170055
     5  C    0.215816  -0.682115
     6  O   -0.129462   0.055276
     7  C   -0.280937  -0.341664
     8  N    0.148194  -0.006283
     9  C   -0.475027  -0.094550
    10  N   -0.126034   0.026658
    11  C   -0.992855   0.938439
    12  C    1.902076  -2.287653
    13  C   -0.587065   0.598159
    14  C    1.001228  -0.797302
    15  N   -0.297126  -0.026628
    16  H   -0.285701   0.462404
    17  H   -0.055122   0.179792
    18  H    0.111009   0.017176
    19  H   -0.218101   0.378230
    20  H    0.312506  -0.092115
    21  H   -0.129937   0.314629
    22  H   -0.011539   0.145521
    23  H   -0.122243   0.302812
    24  H    0.160163   0.029358
    25  H    0.266439   0.005184
    26  H   -0.134083   0.314888
    27  H   -0.869514   1.077823
    28  H    0.034785   0.095231
    29  H   -0.204320   0.439197
    30  H   -0.253397   0.503360
 Sum of Mulliken charges =  -1.00000   1.00000

 Dipole moment (field-independent basis, Debye):
    X=              5.6649    Y=              3.1245    Z=             -2.9682  Tot=              7.1179
 Quadrupole moment (field-independent basis, Debye-Ang):
   XX=           -194.4659   YY=           -123.6123   ZZ=           -131.7650
   XY=             -5.1930   XZ=             10.0264   YZ=              3.2657

 Summary of Natural Population Analysis:

                                       Natural Population
                Natural  -----------------------------------------------
    Atom  No    Charge         Core      Valence    Rydberg      Total
 -----------------------------------------------------------------------
      C    1   -0.02498      0.99959     2.01276    0.01263     3.02498
      C    2   -0.02387      0.99958     2.01169    0.01260     3.02387
      O    3   -0.30441      0.99988     3.29479    0.00973     4.30441
      C    4    0.03928      0.99955     1.94733    0.01384     2.96072
      C    5   -0.02086      0.99954     2.00910    0.01222     3.02086
      O    6   -0.29694      0.99989     3.28697    0.01007     4.29694
      C    7   -0.09394      0.99959     2.08172    0.01263     3.09394
      N    8   -0.31743      0.99969     2.80721    0.01053     3.81743
      C    9    0.18318      0.99953     1.80128    0.01602     2.81682
      N   10   -0.24748      0.99967     2.73793    0.00988     3.74748
      C   11    0.01361      0.99954     1.97227    0.01458     2.98639
      C   12    0.04902      0.99948     1.94000    0.01151     2.95098
      C   13   -0.09015      0.99953     2.08005    0.01057     3.09015
      C   14   -0.13762      0.99952     2.12965    0.00845     3.13762
      N   15   -0.39922      0.99973     2.88842    0.01107     3.89922
      H   16    0.09486      0.00000     0.40366    0.00148     0.40514
      H   17    0.07957      0.00000     0.41880    0.00162     0.42043
      H   18    0.08298      0.00000     0.41565    0.00138     0.41702
      H   19    0.09392      0.00000     0.40479    0.00129     0.40608
      H   20    0.08867      0.00000     0.40908    0.00225     0.41133
      H   21    0.09641      0.00000     0.40213    0.00146     0.40359
      H   22    0.07904      0.00000     0.41938    0.00158     0.42096
      H   23    0.09856      0.00000     0.40019    0.00125     0.40144
      H   24    0.09966      0.00000     0.39917    0.00117     0.40034
      H   25    0.19133      0.00000     0.30557    0.00310     0.30867
      H   26    0.08683      0.00000     0.41173    0.00144     0.41317
      H   27    0.10396      0.00000     0.39445    0.00158     0.39604
      H   28    0.10308      0.00000     0.39558    0.00134     0.39692
      H   29    0.18408      0.00000     0.31263    0.00329     0.31592
      H   30    0.18884      0.00000     0.30280    0.00835     0.31116
 =======================================================================
   * Total *   -0.00000     14.99431    40.79678    0.20891    56.00000

 Normal termination of Gaussian 16 at Thu Dec 10 18:01:59 2020.
