 Gaussian 16, Revision A.03,

 -----------------------------------------------------------
 # opt freq B3LYP/6-31G(d) empiricaldispersion=gd3bj scf=xqc
 -----------------------------------------------------------

 -------------------------------
 CID_140224191_JID_9099_neutraal
 -------------------------------
 Symbolic Z-matrix:
 Charge =  0 Multiplicity = 1

 SCF Done:  E(RB3LYP) =  -845.041699325     A.U. after   15 cycles
 SCF Done:  E(RB3LYP) =  -845.048522036     A.U. after   14 cycles
 SCF Done:  E(RB3LYP) =  -845.047193477     A.U. after   14 cycles
 SCF Done:  E(RB3LYP) =  -845.049802896     A.U. after   14 cycles
 SCF Done:  E(RB3LYP) =  -845.051804707     A.U. after   13 cycles
 SCF Done:  E(RB3LYP) =  -845.047371664     A.U. after   14 cycles
 SCF Done:  E(RB3LYP) =  -845.052491199     A.U. after   13 cycles
 SCF Done:  E(RB3LYP) =  -845.054056043     A.U. after   13 cycles
 SCF Done:  E(RB3LYP) =  -845.054972202     A.U. after   14 cycles
 SCF Done:  E(RB3LYP) =  -845.055377259     A.U. after   14 cycles
 SCF Done:  E(RB3LYP) =  -845.056004805     A.U. after   12 cycles
 SCF Done:  E(RB3LYP) =  -845.056005735     A.U. after   11 cycles
 SCF Done:  E(RB3LYP) =  -845.056005974     A.U. after    8 cycles
 SCF Done:  E(RB3LYP) =  -845.056006149     A.U. after    9 cycles
 Optimization completed.
    -- Stationary point found.
 Normal termination of Gaussian 16 at Sun Dec 13 20:30:07 2020.

 --------------------------------------------------------------------
 #N Geom=AllCheck Guess=TCheck SCRF=Check GenChk RB3LYP/6-31G(d) Freq
 --------------------------------------------------------------------

 Structure from the checkpoint file:  "JID_9099.chk"
 -------------------------------
 CID_140224191_JID_9099_neutraal
 -------------------------------
 Charge =  0 Multiplicity = 1

 SCF Done:  E(RB3LYP) =  -845.056006149     A.U. after    1 cycles

  Exact polarizability: 200.681  14.495 152.856  15.667   2.200 140.128
 Approx polarizability: 291.602  31.007 242.474  36.101  11.903 247.777

                      1                      2                      3
                      A                      A                      A
 Frequencies --     41.6667                49.5287                57.6104
 Red. masses --      3.9985                 4.2940                 4.5382
 Frc consts  --      0.0041                 0.0062                 0.0089
 IR Inten    --      0.1987                 0.1617                 1.2931

                      4                      5                      6
                      A                      A                      A
 Frequencies --     79.8905                83.7311                98.3353
 Red. masses --      3.6011                 4.1074                 1.9735
 Frc consts  --      0.0135                 0.0170                 0.0112
 IR Inten    --      8.4137                 6.1748                 1.0073

                      7                      8                      9
                      A                      A                      A
 Frequencies --    106.8653               137.2622               181.2670
 Red. masses --      3.2569                 3.0355                 5.4574
 Frc consts  --      0.0219                 0.0337                 0.1057
 IR Inten    --      0.9576                 6.8559                 2.8792

                     10                     11                     12
                      A                      A                      A
 Frequencies --    210.5168               233.0113               252.1876
 Red. masses --      5.2231                 3.4513                 1.9844
 Frc consts  --      0.1364                 0.1104                 0.0744
 IR Inten    --      2.8771                 1.7409                 0.6088

                     13                     14                     15
                      A                      A                      A
 Frequencies --    266.3941               277.0409               303.2056
 Red. masses --      3.1585                 2.8637                 4.5440
 Frc consts  --      0.1321                 0.1295                 0.2461
 IR Inten    --      0.4801                 0.9827                 1.5539

                     16                     17                     18
                      A                      A                      A
 Frequencies --    349.5526               374.5684               396.7227
 Red. masses --      4.8118                 4.4103                 4.6865
 Frc consts  --      0.3464                 0.3646                 0.4346
 IR Inten    --      2.3355                 3.7644                 3.2840

                     19                     20                     21
                      A                      A                      A
 Frequencies --    419.2849               445.2815               477.2197
 Red. masses --      3.0156                 5.6906                 4.3596
 Frc consts  --      0.3124                 0.6648                 0.5850
 IR Inten    --      0.4139                10.1105                 6.9493

                     22                     23                     24
                      A                      A                      A
 Frequencies --    507.8233               532.6841               585.7616
 Red. masses --      3.9490                 4.1722                 4.3320
 Frc consts  --      0.6000                 0.6975                 0.8757
 IR Inten    --      4.7645                 6.5769                 7.9391

                     25                     26                     27
                      A                      A                      A
 Frequencies --    604.5474               628.7023               633.9712
 Red. masses --      2.5026                 5.3723                 4.4701
 Frc consts  --      0.5389                 1.2511                 1.0585
 IR Inten    --      9.2721                 3.1930                18.2415

                     28                     29                     30
                      A                      A                      A
 Frequencies --    642.0147               681.0135               712.4144
 Red. masses --      1.8057                 4.1883                 4.9043
 Frc consts  --      0.4385                 1.1445                 1.4665
 IR Inten    --    115.8886                37.8024                 0.7049

                     31                     32                     33
                      A                      A                      A
 Frequencies --    720.4045               760.9594               774.3225
 Red. masses --      1.8105                 4.0585                 1.5683
 Frc consts  --      0.5536                 1.3846                 0.5540
 IR Inten    --     40.4261                 3.8138                31.7263

                     34                     35                     36
                      A                      A                      A
 Frequencies --    780.5475               826.3599               830.0171
 Red. masses --      1.7102                 2.8401                 1.1433
 Frc consts  --      0.6139                 1.1427                 0.4641
 IR Inten    --      8.1862                16.5716                 3.6081

                     37                     38                     39
                      A                      A                      A
 Frequencies --    856.0336               866.2846               887.8980
 Red. masses --      3.1118                 1.2870                 1.5768
 Frc consts  --      1.3435                 0.5690                 0.7324
 IR Inten    --      6.7395                 0.5261                 2.6090

                     40                     41                     42
                      A                      A                      A
 Frequencies --    933.1363               935.7272               959.1749
 Red. masses --      1.5355                 2.3616                 1.3587
 Frc consts  --      0.7877                 1.2183                 0.7365
 IR Inten    --      3.9377                22.3474                 3.4859

                     43                     44                     45
                      A                      A                      A
 Frequencies --    978.0765               987.7294               999.3311
 Red. masses --      1.3330                 1.2677                 1.2615
 Frc consts  --      0.7513                 0.7287                 0.7423
 IR Inten    --      0.1208                 1.0988                 0.6629

                     46                     47                     48
                      A                      A                      A
 Frequencies --   1022.6311              1030.4140              1042.9447
 Red. masses --      6.1463                 2.8710                 3.3327
 Frc consts  --      3.7871                 1.7960                 2.1358
 IR Inten    --      1.8713                45.8128                26.5328

                     49                     50                     51
                      A                      A                      A
 Frequencies --   1060.7511              1065.8420              1077.1475
 Red. masses --      2.2868                 3.7923                 2.2601
 Frc consts  --      1.5160                 2.5383                 1.5450
 IR Inten    --      6.4282                59.4145                18.2973

                     52                     53                     54
                      A                      A                      A
 Frequencies --   1094.2102              1126.5754              1141.9451
 Red. masses --      2.5039                 2.1975                 1.8744
 Frc consts  --      1.7663                 1.6432                 1.4401
 IR Inten    --     22.9024                13.8378                27.5966

                     55                     56                     57
                      A                      A                      A
 Frequencies --   1149.3136              1189.6175              1193.6615
 Red. masses --      2.1526                 1.7382                 1.1826
 Frc consts  --      1.6753                 1.4493                 0.9927
 IR Inten    --     33.1785                 5.1882                 0.9802

                     58                     59                     60
                      A                      A                      A
 Frequencies --   1194.9979              1198.7526              1214.9978
 Red. masses --      1.4769                 1.4071                 1.2696
 Frc consts  --      1.2426                 1.1914                 1.1042
 IR Inten    --     10.5206                11.3229                 1.8743

                     61                     62                     63
                      A                      A                      A
 Frequencies --   1226.0222              1260.9082              1312.9255
 Red. masses --      2.7554                 3.7316                 1.2401
 Frc consts  --      2.4402                 3.4956                 1.2595
 IR Inten    --     17.4190               130.4380                 3.8746

                     64                     65                     66
                      A                      A                      A
 Frequencies --   1318.0022              1343.3932              1349.0293
 Red. masses --      1.3162                 4.9704                 2.3973
 Frc consts  --      1.3471                 5.2851                 2.5705
 IR Inten    --     15.5432                 4.3627                 2.1181

                     67                     68                     69
                      A                      A                      A
 Frequencies --   1366.3701              1401.9335              1410.0829
 Red. masses --      2.5280                 1.2592                 1.2966
 Frc consts  --      2.7807                 1.4582                 1.5190
 IR Inten    --      0.6732                71.5307                 3.5882

                     70                     71                     72
                      A                      A                      A
 Frequencies --   1424.2440              1450.9546              1495.4216
 Red. masses --      1.2917                 1.3650                 2.2213
 Frc consts  --      1.5438                 1.6931                 2.9267
 IR Inten    --     32.3253                53.1678                 7.0012

                     73                     74                     75
                      A                      A                      A
 Frequencies --   1501.8651              1514.7102              1529.8908
 Red. masses --      2.2966                 1.0407                 1.0511
 Frc consts  --      3.0521                 1.4068                 1.4495
 IR Inten    --     15.7984                 3.2976                 3.3298

                     76                     77                     78
                      A                      A                      A
 Frequencies --   1535.5702              1539.8499              1553.1645
 Red. masses --      2.3234                 2.1341                 1.1420
 Frc consts  --      3.2279                 2.9814                 1.6231
 IR Inten    --     39.1707                18.1067                 1.1644

                     79                     80                     81
                      A                      A                      A
 Frequencies --   1639.1534              1644.5083              1658.4118
 Red. masses --      5.9742                 5.7451                 5.6610
 Frc consts  --      9.4573                 9.1543                 9.1734
 IR Inten    --      7.7395                 0.5582                 0.7320

                     82                     83                     84
                      A                      A                      A
 Frequencies --   1662.2323              1833.2379              2955.8433
 Red. masses --      5.8063                10.6748                 1.0867
 Frc consts  --      9.4521                21.1373                 5.5942
 IR Inten    --      9.8123               119.9434                92.1720

                     85                     86                     87
                      A                      A                      A
 Frequencies --   3048.4403              3064.0479              3098.5230
 Red. masses --      1.0596                 1.0355                 1.1052
 Frc consts  --      5.8015                 5.7277                 6.2517
 IR Inten    --     30.5176                15.9709                11.8444

                     88                     89                     90
                      A                      A                      A
 Frequencies --   3135.1176              3146.5798              3184.0600
 Red. masses --      1.1022                 1.1037                 1.0853
 Frc consts  --      6.3830                 6.4386                 6.4828
 IR Inten    --     21.0723                26.3040                 0.5187

                     91                     92                     93
                      A                      A                      A
 Frequencies --   3190.8719              3193.7943              3204.6165
 Red. masses --      1.0860                 1.0894                 1.0910
 Frc consts  --      6.5148                 6.5470                 6.6013
 IR Inten    --      2.2632                15.1757                21.5032

                     94                     95                     96
                      A                      A                      A
 Frequencies --   3206.9415              3214.8251              3218.4460
 Red. masses --      1.0939                 1.0964                 1.0938
 Frc consts  --      6.6282                 6.6761                 6.6755
 IR Inten    --     28.4447                18.0925                 7.6861

                     97                     98                     99
                      A                      A                      A
 Frequencies --   3224.7151              3250.6797              3648.2379
 Red. masses --      1.0923                 1.0914                 1.0649
 Frc consts  --      6.6925                 6.7948                 8.3508
 IR Inten    --      5.4208                 2.4004               121.7443

 - Thermochemistry -
 -------------------
 Temperature   298.150 Kelvin.  Pressure   1.00000 Atm.
 Atom     1 has atomic number  6 and mass  12.00000

 Molecular mass:   256.10994 amu.
 Principal axes and moments of inertia in atomic units:
                           1         2         3
     Eigenvalues --  3536.990964899.579086326.92589
           X            0.99946   0.03107   0.01042
           Y           -0.03117   0.99947   0.00984
           Z           -0.01011  -0.01016   0.99990
 This molecule is an asymmetric top.
 Rotational symmetry number  1.
 Warning -- assumption of classical behavior for rotation
           may cause significant error
 Rotational temperatures (Kelvin)      0.02449     0.01768     0.01369
 Rotational constants (GHZ):           0.51025     0.36835     0.28525
 Zero-point vibrational energy     749026.8 (Joules/Mol)
                                  179.02170 (Kcal/Mol)
 Warning -- explicit consideration of  25 degrees of freedom as
           vibrations may cause significant error
 Vibrational temperatures:     59.95    71.26    82.89   114.94   120.47
          (Kelvin)            141.48   153.76   197.49   260.80   302.89
                              335.25   362.84   383.28   398.60   436.25
                              502.93   538.92   570.80   603.26   640.66
                              686.61   730.64   766.41   842.78   869.81
                              904.56   912.14   923.72   979.83  1025.01
                             1036.50  1094.85  1114.08  1123.03  1188.95
                             1194.21  1231.64  1246.39  1277.49  1342.57
                             1346.30  1380.04  1407.23  1421.12  1437.81
                             1471.34  1482.54  1500.56  1526.18  1533.51
                             1549.78  1574.32  1620.89  1643.00  1653.61
                             1711.59  1717.41  1719.34  1724.74  1748.11
                             1763.97  1814.17  1889.01  1896.31  1932.84
                             1940.95  1965.90  2017.07  2028.79  2049.17
                             2087.60  2151.58  2160.85  2179.33  2201.17
                             2209.34  2215.50  2234.66  2358.38  2366.08
                             2386.08  2391.58  2637.62  4252.80  4386.03
                             4408.48  4458.08  4510.73  4527.23  4581.15
                             4590.95  4595.16  4610.73  4614.07  4625.42
                             4630.63  4639.65  4677.00  5249.00

 Zero-point correction=                           0.285289 (Hartree/Particle)
 Thermal correction to Energy=                    0.302406
 Thermal correction to Enthalpy=                  0.303350
 Thermal correction to Gibbs Free Energy=         0.240036
 Sum of electronic and zero-point Energies=           -844.770717
 Sum of electronic and thermal Energies=              -844.753600
 Sum of electronic and thermal Enthalpies=            -844.752656
 Sum of electronic and thermal Free Energies=         -844.815971

                     E (Thermal)             CV                S
                      KCal/Mol        Cal/Mol-Kelvin    Cal/Mol-Kelvin
 Total                  189.763             66.035            133.257
 Electronic               0.000              0.000              0.000
 Translational            0.889              2.981             42.521
 Rotational               0.889              2.981             33.061
 Vibrational            187.985             60.074             57.675
 Vibration     1          0.594              1.981              5.178
 Vibration     2          0.595              1.978              4.836
 Vibration     3          0.596              1.974              4.537
 Vibration     4          0.600              1.963              3.894
 Vibration     5          0.601              1.960              3.801
 Vibration     6          0.604              1.950              3.487
 Vibration     7          0.606              1.944              3.325
 Vibration     8          0.614              1.916              2.842
 Vibration     9          0.630              1.865              2.315
 Vibration    10          0.643              1.825              2.039
 Vibration    11          0.654              1.790              1.856
 Vibration    12          0.664              1.759              1.715
 Vibration    13          0.672              1.735              1.619
 Vibration    14          0.678              1.716              1.552
 Vibration    15          0.695              1.668              1.399
 Vibration    16          0.727              1.576              1.168
 Vibration    17          0.746              1.524              1.061
 Vibration    18          0.763              1.477              0.975
 Vibration    19          0.782              1.428              0.894
 Vibration    20          0.805              1.371              0.810
 Vibration    21          0.834              1.301              0.718
 Vibration    22          0.863              1.233              0.639
 Vibration    23          0.888              1.178              0.581
 Vibration    24          0.943              1.062              0.475
 Vibration    25          0.963              1.022              0.442

                           ! Non-Optimized Parameters !
 Normal termination of Gaussian 16 at Sun Dec 13 20:51:48 2020.

 ----------------------------------------------------------------------
 # B3LYP/6-311++G(d,p) empiricaldispersion=gd3bj scf=xqc pop=npa geom=c
 heck
 ----------------------------------------------------------------------

 ---------------------------------------
 CID_140224191_JID_9099_Energie_neutraal
 ---------------------------------------
 Structure from the checkpoint file:  "JID_9099.chk"
 Charge =  0 Multiplicity = 1

 SCF Done:  E(RB3LYP) =  -845.291388889     A.U. after   16 cycles
 Normal termination of Gaussian 16 at Sun Dec 13 21:01:22 2020.

 ----------------------------------------------------------------------
 # B3LYP/6-311++G(d,p) empiricaldispersion=gd3bj scf=xqc pop=npa geom=c
 heck
 ----------------------------------------------------------------------

 -------------------------------------
 CID_140224191_JID_9099_Energie_kation
 -------------------------------------
 Structure from the checkpoint file:  "JID_9099.chk"
 Charge =  1 Multiplicity = 2

 SCF Done:  E(UB3LYP) =  -844.983424333     A.U. after   33 cycles
 SCF Done:  E(UB3LYP) =  -844.983424333     a.u. after    1 cycles
 Normal termination of Gaussian 16 at Sun Dec 13 21:28:57 2020.
 Gaussian 16:  ES64L-G16RevA.03 25-Dec-2016

 ----------------------------------------------------------------------
 # B3LYP/6-311++G(d,p) empiricaldispersion=gd3bj scf=xqc pop=npa geom=c
 heck
 ----------------------------------------------------------------------

 ------------------------------------
 CID_140224191_JID_9099_Energie_anion
 ------------------------------------
 Structure from the checkpoint file:  "JID_9099.chk"
 Charge = -1 Multiplicity = 2

                         Standard orientation:
 ---------------------------------------------------------------------
 Center     Atomic      Atomic             Coordinates (Angstroms)
 Number     Number       Type             X           Y           Z
 ---------------------------------------------------------------------
      1          6           0        1.372865    3.255037    0.703306
      2          6           0        0.306034    2.571062   -0.126968
      3          8           0       -0.499372    1.773316    0.766368
      4          6           0       -1.479144    0.999623    0.163106
      5          6           0       -2.572881    1.607123   -0.447981
      6          6           0       -3.571721    0.819200   -1.019297
      7          6           0       -3.470417   -0.569057   -0.966267
      8          6           0       -2.375605   -1.171666   -0.342522
      9          6           0       -1.360872   -0.400366    0.230374
     10          6           0       -0.116400   -0.972508    0.919247
     11          6           0       -0.146421   -2.490745    1.149946
     12          8           0       -0.447087   -3.323921    0.327062
     13          6           0        1.139245   -0.714815    0.069480
     14          6           0        2.334533   -0.336529    0.686019
     15          6           0        3.475819   -0.095787   -0.080891
     16          6           0        3.434941   -0.248641   -1.466684
     17          6           0        2.248423   -0.655024   -2.082255
     18          6           0        1.106669   -0.891279   -1.318666
     19          8           0        0.023361   -0.446292    2.233574
     20          1           0        0.918767    3.874085    1.483647
     21          1           0        1.989799    3.895586    0.064339
     22          1           0        2.022944    2.511899    1.173874
     23          1           0       -0.335582    3.304251   -0.631011
     24          1           0        0.748659    1.915949   -0.885144
     25          1           0       -2.640946    2.690447   -0.457275
     26          1           0       -4.425819    1.291528   -1.495860
     27          1           0       -4.243590   -1.191106   -1.407165
     28          1           0       -2.298151   -2.250804   -0.320905
     29          1           0        0.196692   -2.760014    2.170155
     30          1           0        2.356238   -0.223507    1.764171
     31          1           0        4.397396    0.209213    0.407296
     32          1           0        4.322358   -0.059251   -2.063925
     33          1           0        2.211011   -0.786229   -3.160081
     34          1           0        0.184594   -1.203697   -1.797495
     35          1           0        0.030009    0.523071    2.119663
 ---------------------------------------------------------------------

 SCF Done:  E(UB3LYP) =  -845.288331964     A.U. after   33 cycles
 SCF Done:  E(UB3LYP) =  -845.288331964     a.u. after    2 cycles

 The electronic state is 2-A.
 Alpha  occ. eigenvalues --  -19.04188 -18.99376 -18.94793 -10.12557 -10.11827
 Alpha  occ. eigenvalues --  -10.10875 -10.07864 -10.07205 -10.07118 -10.06822
 Alpha  occ. eigenvalues --  -10.06766 -10.06304 -10.05696 -10.05158 -10.04792
 Alpha  occ. eigenvalues --  -10.04770 -10.04462 -10.04247 -10.03908  -0.95624
 Alpha  occ. eigenvalues --   -0.90479  -0.88444  -0.74841  -0.73042  -0.67652
 Alpha  occ. eigenvalues --   -0.66137  -0.63127  -0.62163  -0.61944  -0.56739
 Alpha  occ. eigenvalues --   -0.53579  -0.50684  -0.48694  -0.47945  -0.47428
 Alpha  occ. eigenvalues --   -0.43645  -0.41674  -0.39654  -0.38598  -0.38105
 Alpha  occ. eigenvalues --   -0.36459  -0.36111  -0.33969  -0.33446  -0.32826
 Alpha  occ. eigenvalues --   -0.32021  -0.31308  -0.30330  -0.30013  -0.29778
 Alpha  occ. eigenvalues --   -0.28388  -0.27744  -0.26748  -0.26483  -0.25109
 Alpha  occ. eigenvalues --   -0.24953  -0.24804  -0.23422  -0.22802  -0.22006
 Alpha  occ. eigenvalues --   -0.21472  -0.18576  -0.15969  -0.14673  -0.13730
 Alpha  occ. eigenvalues --   -0.13257  -0.12544  -0.09706   0.05296
 Alpha virt. eigenvalues --    0.06607   0.07252   0.08172   0.08861   0.09063
 Alpha virt. eigenvalues --    0.09274   0.09451   0.10245   0.10704   0.10900
 Alpha virt. eigenvalues --    0.11056   0.11778   0.11915   0.12630   0.13243

  Beta  occ. eigenvalues --  -19.04181 -18.99363 -18.94329 -10.12550 -10.11778
  Beta  occ. eigenvalues --  -10.10921 -10.07493 -10.07214 -10.07109 -10.06780
  Beta  occ. eigenvalues --  -10.06727 -10.06261 -10.05676 -10.05208 -10.04727
  Beta  occ. eigenvalues --  -10.04676 -10.04453 -10.04066 -10.03782  -0.95590
  Beta  occ. eigenvalues --   -0.90353  -0.87663  -0.74761  -0.72846  -0.67612
  Beta  occ. eigenvalues --   -0.65980  -0.62969  -0.62038  -0.61761  -0.56406
  Beta  occ. eigenvalues --   -0.53536  -0.50484  -0.48583  -0.47886  -0.47002
  Beta  occ. eigenvalues --   -0.43450  -0.41472  -0.39488  -0.38558  -0.37816
  Beta  occ. eigenvalues --   -0.36394  -0.36019  -0.33792  -0.33374  -0.32733
  Beta  occ. eigenvalues --   -0.31920  -0.31088  -0.30219  -0.29912  -0.29700
  Beta  occ. eigenvalues --   -0.28199  -0.27584  -0.26682  -0.26238  -0.25003
  Beta  occ. eigenvalues --   -0.24801  -0.24222  -0.23125  -0.22305  -0.21486
  Beta  occ. eigenvalues --   -0.20296  -0.18489  -0.15793  -0.14490  -0.13369
  Beta  occ. eigenvalues --   -0.12848  -0.11830  -0.09270
  Beta virt. eigenvalues --    0.06696   0.07282   0.08135   0.08863   0.09137
  Beta virt. eigenvalues --    0.09382   0.09498   0.10222   0.10568   0.10736
  Beta virt. eigenvalues --    0.10929   0.11215   0.11823   0.12547   0.13102

 Mulliken charges and spin densities:
               1          2
     1  C   -0.396889  -0.209072
     2  C   -0.170217   0.093701
     3  O   -0.102183   0.000350
     4  C   -0.195935  -0.056719
     5  C   -0.128591   0.049895
     6  C   -0.184063  -0.312469
     7  C   -0.306114  -0.025460
     8  C   -0.278214   0.104187
     9  C    0.733116   0.070913
    10  C   -0.479890  -0.028850
    11  C   -0.253210   0.345328
    12  O   -0.320567   0.140198
    13  C    1.246872  -0.039051
    14  C    0.048285  -0.096525
    15  C   -0.517880   0.074103
    16  C    0.006661  -0.200830
    17  C   -0.479428  -0.012368
    18  C   -0.781410   0.306844
    19  O   -0.107926  -0.010369
    20  H    0.136839  -0.003400
    21  H    0.037055   0.086822
    22  H    0.122088   0.053508
    23  H    0.126474   0.000214
    24  H    0.189706  -0.002268
    25  H    0.028675   0.117650
    26  H   -0.044640   0.177260
    27  H    0.087829   0.063681
    28  H    0.216295  -0.011071
    29  H    0.115415  -0.020339
    30  H    0.165210   0.006807
    31  H   -0.101786   0.244183
    32  H    0.034155   0.071995
    33  H    0.122241   0.027348
    34  H    0.150817  -0.007483
    35  H    0.281215   0.001286
 Sum of Mulliken charges =  -1.00000   1.00000

 Dipole moment (field-independent basis, Debye):
    X=             -0.8668    Y=              5.9525    Z=             -1.3829  Tot=              6.1722
 Quadrupole moment (field-independent basis, Debye-Ang):
   XX=           -152.1286   YY=           -146.8694   ZZ=           -130.7213
   XY=              1.8578   XZ=              3.3397   YZ=              1.5914

 Summary of Natural Population Analysis:

                                       Natural Population
                Natural  -----------------------------------------------
    Atom  No    Charge         Core      Valence    Rydberg      Total
 -----------------------------------------------------------------------
      C    1   -0.29631      0.99966     2.29087    0.00578     3.29631
      C    2   -0.00783      0.99958     1.99865    0.00959     3.00783
      O    3   -0.30749      0.99985     3.29746    0.01018     4.30749
      C    4    0.16279      0.99931     1.82537    0.01253     2.83721
      C    5   -0.12127      0.99951     2.11244    0.00932     3.12127
      C    6   -0.11000      0.99958     2.09953    0.01090     3.11000
      C    7   -0.10318      0.99957     2.09439    0.00922     3.10318
      C    8   -0.09038      0.99952     2.08210    0.00876     3.09038
      C    9   -0.02192      0.99943     2.01008    0.01241     3.02192
      C   10    0.07676      0.99943     1.90712    0.01668     2.92324
      C   11    0.27656      0.99970     1.70231    0.02143     2.72344
      O   12   -0.25170      0.99988     3.24461    0.00721     4.25170
      C   13   -0.00243      0.99947     1.99067    0.01230     3.00243
      C   14   -0.10636      0.99950     2.09576    0.01110     3.10636
      C   15   -0.10390      0.99957     2.09399    0.01034     3.10390
      C   16   -0.08406      0.99957     2.07341    0.01108     3.08406
      C   17   -0.11440      0.99957     2.10638    0.00845     3.11440
      C   18   -0.08082      0.99950     2.07163    0.00969     3.08082
      O   19   -0.37766      0.99989     3.37090    0.00687     4.37766
      H   20    0.09571      0.00000     0.40346    0.00083     0.40429
      H   21    0.09914      0.00000     0.40012    0.00074     0.40086
      H   22    0.10902      0.00000     0.38979    0.00119     0.39098
      H   23    0.07688      0.00000     0.42211    0.00101     0.42312
      H   24    0.09608      0.00000     0.40240    0.00152     0.40392
      H   25    0.09993      0.00000     0.39905    0.00102     0.40007
      H   26    0.09646      0.00000     0.40263    0.00091     0.40354
      H   27    0.09651      0.00000     0.40270    0.00079     0.40349
      H   28    0.12019      0.00000     0.37845    0.00136     0.37981
      H   29    0.04501      0.00000     0.45277    0.00221     0.45499
      H   30    0.10589      0.00000     0.39300    0.00111     0.39411
      H   31    0.09390      0.00000     0.40524    0.00086     0.40610
      H   32    0.09178      0.00000     0.40746    0.00077     0.40822
      H   33    0.09327      0.00000     0.40557    0.00116     0.40673
      H   34    0.10502      0.00000     0.39388    0.00110     0.39498
      H   35    0.23879      0.00000     0.25869    0.00253     0.26121
 =======================================================================
   * Total *    0.00000     18.99209    48.78497    0.22294    68.00000

 Normal termination of Gaussian 16 at Sun Dec 13 23:05:48 2020.
