 Gaussian 16, Revision A.03,

 -----------------------------------------------------------
 # opt freq B3LYP/6-31G(d) empiricaldispersion=gd3bj scf=xqc
 -----------------------------------------------------------

 -----------------------------
 CID_89418512_JID_252_neutraal
 -----------------------------
 Symbolic Z-matrix:
 Charge =  0 Multiplicity = 1

 SCF Done:  E(RB3LYP) =  -821.383778063     A.U. after   14 cycles
 SCF Done:  E(RB3LYP) =  -821.386396003     A.U. after   12 cycles
 SCF Done:  E(RB3LYP) =  -821.386988882     A.U. after   12 cycles
 SCF Done:  E(RB3LYP) =  -821.387110056     A.U. after   11 cycles
 SCF Done:  E(RB3LYP) =  -821.387233472     A.U. after   10 cycles
 SCF Done:  E(RB3LYP) =  -821.387312624     A.U. after   10 cycles
 SCF Done:  E(RB3LYP) =  -821.387347257     A.U. after   10 cycles
 SCF Done:  E(RB3LYP) =  -821.387368900     A.U. after   10 cycles
 SCF Done:  E(RB3LYP) =  -821.387371653     A.U. after    9 cycles
 SCF Done:  E(RB3LYP) =  -821.387372791     A.U. after    8 cycles
 SCF Done:  E(RB3LYP) =  -821.387374498     A.U. after    8 cycles
 SCF Done:  E(RB3LYP) =  -821.387375346     A.U. after    8 cycles
 SCF Done:  E(RB3LYP) =  -821.387375594     A.U. after    8 cycles
 Optimization completed.
    -- Stationary point found.
 Normal termination of Gaussian 16 at Tue Dec  8 10:21:59 2020.

 --------------------------------------------------------------------
 #N Geom=AllCheck Guess=TCheck SCRF=Check GenChk RB3LYP/6-31G(d) Freq
 --------------------------------------------------------------------

 Structure from the checkpoint file:  "JID_252.chk"
 -----------------------------
 CID_89418512_JID_252_neutraal
 -----------------------------
 Charge =  0 Multiplicity = 1

 SCF Done:  E(RB3LYP) =  -821.387375594     A.U. after    1 cycles

  Exact polarizability: 104.520   0.508 108.549 -13.132  -2.160  66.856
 Approx polarizability: 148.434  -2.022 182.416 -27.353  -3.699 105.109

                      1                      2                      3
                      A                      A                      A
 Frequencies --     53.9061               113.6339               137.7196
 Red. masses --      6.4590                 7.3188                 2.0743
 Frc consts  --      0.0111                 0.0557                 0.0232
 IR Inten    --      1.7795                 2.3205                11.4268

                      4                      5                      6
                      A                      A                      A
 Frequencies --    165.5482               207.6099               218.4285
 Red. masses --      5.2566                 1.1644                 1.6228
 Frc consts  --      0.0849                 0.0296                 0.0456
 IR Inten    --     19.5846                40.6140                33.8482

                      7                      8                      9
                      A                      A                      A
 Frequencies --    252.3568               289.9036               320.3073
 Red. masses --      2.4985                 1.1294                 2.7665
 Frc consts  --      0.0937                 0.0559                 0.1672
 IR Inten    --     10.1682               129.8209                 9.5650

                     10                     11                     12
                      A                      A                      A
 Frequencies --    368.2906               398.1305               445.4954
 Red. masses --      2.6464                 3.5174                 4.6085
 Frc consts  --      0.2115                 0.3285                 0.5389
 IR Inten    --      0.1054                 3.3473                 1.2530

                     13                     14                     15
                      A                      A                      A
 Frequencies --    460.7311               487.1215               572.3539
 Red. masses --      5.3016                 2.4852                 4.7388
 Frc consts  --      0.6631                 0.3475                 0.9146
 IR Inten    --      6.4689                12.4378                 4.8825

                     16                     17                     18
                      A                      A                      A
 Frequencies --    595.3134               722.7380               744.4255
 Red. masses --      3.1106                 2.6911                 5.1202
 Frc consts  --      0.6495                 0.8282                 1.6718
 IR Inten    --      1.9308                46.4614                39.2030

                     19                     20                     21
                      A                      A                      A
 Frequencies --    777.6356               817.9896               851.3595
 Red. masses --      2.1588                 2.9779                 1.4246
 Frc consts  --      0.7692                 1.1740                 0.6084
 IR Inten    --     13.0281                 1.1272                37.8492

                     22                     23                     24
                      A                      A                      A
 Frequencies --    874.6188               891.5090               925.9795
 Red. masses --      2.1455                 1.5122                 1.7895
 Frc consts  --      0.9670                 0.7081                 0.9040
 IR Inten    --      3.5505                 1.0165                 7.0164

                     25                     26                     27
                      A                      A                      A
 Frequencies --    997.8246              1047.4550              1071.8375
 Red. masses --      2.1919                 1.6564                 2.1184
 Frc consts  --      1.2858                 1.0708                 1.4339
 IR Inten    --     13.3044                 2.8666                11.7719

                     28                     29                     30
                      A                      A                      A
 Frequencies --   1107.0079              1201.2518              1215.0929
 Red. masses --      2.0005                 1.1424                 1.2212
 Frc consts  --      1.4444                 0.9713                 1.0623
 IR Inten    --      0.9226                 0.2332                85.3962

                     31                     32                     33
                      A                      A                      A
 Frequencies --   1221.4998              1232.7147              1251.0130
 Red. masses --      1.2326                 1.6731                 1.7848
 Frc consts  --      1.0836                 1.4979                 1.6457
 IR Inten    --     51.7611                20.7108               241.4297

                     34                     35                     36
                      A                      A                      A
 Frequencies --   1287.6266              1300.3097              1355.6662
 Red. masses --      1.9893                 1.5673                 1.7152
 Frc consts  --      1.9432                 1.5613                 1.8572
 IR Inten    --     34.0469                12.2656                11.8603

                     37                     38                     39
                      A                      A                      A
 Frequencies --   1362.1661              1367.9347              1419.4021
 Red. masses --      1.3123                 1.3413                 1.9363
 Frc consts  --      1.4347                 1.4788                 2.2984
 IR Inten    --     10.0566               109.8386               116.9362

                     40                     41                     42
                      A                      A                      A
 Frequencies --   1440.8794              1491.4994              1501.9532
 Red. masses --      2.2058                 1.0809                 1.1048
 Frc consts  --      2.6982                 1.4167                 1.4683
 IR Inten    --     33.2309                10.8472                 3.0187

                     43                     44                     45
                      A                      A                      A
 Frequencies --   1711.2245              1755.2005              2682.8383
 Red. masses --      6.6139                 5.8624                 1.0387
 Frc consts  --     11.4109                10.6409                 4.4050
 IR Inten    --     15.1031                53.6305                19.5156

                     46                     47                     48
                      A                      A                      A
 Frequencies --   3007.1654              3034.8688              3058.1617
 Red. masses --      1.0672                 1.0836                 1.0944
 Frc consts  --      5.6858                 5.8804                 6.0305
 IR Inten    --     31.8130                34.5300                18.5783

                     49                     50                     51
                      A                      A                      A
 Frequencies --   3099.0964              3154.5638              3206.7137
 Red. masses --      1.0591                 1.1070                 1.0890
 Frc consts  --      5.9935                 6.4907                 6.5978
 IR Inten    --      7.3477                 3.5415                17.9645

                     52                     53                     54
                      A                      A                      A
 Frequencies --   3218.8433              3745.5194              3766.1001
 Red. masses --      1.0929                 1.0662                 1.0663
 Frc consts  --      6.6718                 8.8125                 8.9110
 IR Inten    --      8.2139                33.1956                43.2395

 - Thermochemistry -
 -------------------
 Temperature   298.150 Kelvin.  Pressure   1.00000 Atm.
 Atom     1 has atomic number  6 and mass  12.00000

 Molecular mass:   158.04015 amu.
 Principal axes and moments of inertia in atomic units:
                           1         2         3
     Eigenvalues --  1429.872591852.780542961.73291
           X            0.99998   0.00312  -0.00564
           Y           -0.00315   0.99998  -0.00549
           Z            0.00563   0.00551   0.99997
 This molecule is an asymmetric top.
 Rotational symmetry number  1.
 Warning -- assumption of classical behavior for rotation
           may cause significant error
 Rotational temperatures (Kelvin)      0.06057     0.04675     0.02924
 Rotational constants (GHZ):           1.26217     0.97407     0.60935
 Zero-point vibrational energy     418732.1 (Joules/Mol)
                                  100.07937 (Kcal/Mol)
 Warning -- explicit consideration of  16 degrees of freedom as
           vibrations may cause significant error
 Vibrational temperatures:     77.56   163.49   198.15   238.19   298.70
          (Kelvin)            314.27   363.09   417.11   460.85   529.89
                              572.82   640.97   662.89   700.86   823.49
                              856.52  1039.86  1071.06  1118.84  1176.90
                             1224.92  1258.38  1282.68  1332.28  1435.65
                             1507.05  1542.14  1592.74  1728.33  1748.25
                             1757.47  1773.60  1799.93  1852.61  1870.86
                             1950.50  1959.85  1968.15  2042.20  2073.10
                             2145.93  2160.98  2462.07  2525.34  3860.01
                             4326.64  4366.50  4400.01  4458.91  4538.71
                             4613.75  4631.20  5388.97  5418.58

 Zero-point correction=                           0.159487 (Hartree/Particle)
 Thermal correction to Energy=                    0.170136
 Thermal correction to Enthalpy=                  0.171080
 Thermal correction to Gibbs Free Energy=         0.123208
 Sum of electronic and zero-point Energies=           -821.227889
 Sum of electronic and thermal Energies=              -821.217240
 Sum of electronic and thermal Enthalpies=            -821.216296
 Sum of electronic and thermal Free Energies=         -821.264168

                     E (Thermal)             CV                S
                      KCal/Mol        Cal/Mol-Kelvin    Cal/Mol-Kelvin
 Total                  106.762             39.769            100.755
 Electronic               0.000              0.000              0.000
 Translational            0.889              2.981             41.082
 Rotational               0.889              2.981             30.440
 Vibrational            104.984             33.807             29.232
 Vibration     1          0.596              1.976              4.669
 Vibration     2          0.607              1.938              3.206
 Vibration     3          0.614              1.916              2.835
 Vibration     4          0.624              1.885              2.485
 Vibration     5          0.641              1.829              2.065
 Vibration     6          0.646              1.813              1.972
 Vibration     7          0.664              1.759              1.714
 Vibration     8          0.686              1.693              1.475
 Vibration     9          0.706              1.635              1.309
 Vibration    10          0.741              1.537              1.087
 Vibration    11          0.764              1.474              0.970
 Vibration    12          0.805              1.371              0.810
 Vibration    13          0.819              1.337              0.764
 Vibration    14          0.843              1.279              0.691
 Vibration    15          0.929              1.091              0.500
 Vibration    16          0.953              1.042              0.458

 Optimization completed.
    -- Stationary point found.
 Normal termination of Gaussian 16 at Tue Dec  8 10:25:48 2020.

 ----------------------------------------------------------------------
 # B3LYP/6-311++G(d,p) empiricaldispersion=gd3bj scf=xqc pop=npa geom=c
 heck
 ----------------------------------------------------------------------

 -------------------------------------
 CID_89418512_JID_252_Energie_neutraal
 -------------------------------------
 Structure from the checkpoint file:  "JID_252.chk"
 Charge =  0 Multiplicity = 1

 SCF Done:  E(RB3LYP) =  -821.555575976     A.U. after   14 cycles
 Normal termination of Gaussian 16 at Tue Dec  8 10:27:01 2020.

 ----------------------------------------------------------------------
 # B3LYP/6-311++G(d,p) empiricaldispersion=gd3bj scf=xqc pop=npa geom=c
 heck
 ----------------------------------------------------------------------

 -----------------------------------
 CID_89418512_JID_252_Energie_kation
 -----------------------------------
 Structure from the checkpoint file:  "JID_252.chk"
 Charge =  1 Multiplicity = 2

 SCF Done:  E(UB3LYP) =  -821.289581380     A.U. after   22 cycles
 Normal termination of Gaussian 16 at Tue Dec  8 10:30:32 2020.
 Gaussian 16:  ES64L-G16RevA.03 25-Dec-2016

 ----------------------------------------------------------------------
 # B3LYP/6-311++G(d,p) empiricaldispersion=gd3bj scf=xqc pop=npa geom=c
 heck
 ----------------------------------------------------------------------

 ----------------------------------
 CID_89418512_JID_252_Energie_anion
 ----------------------------------
 Structure from the checkpoint file:  "JID_252.chk"
 Charge = -1 Multiplicity = 2

                         Standard orientation:
 ---------------------------------------------------------------------
 Center     Atomic      Atomic             Coordinates (Angstroms)
 Number     Number       Type             X           Y           Z
 ---------------------------------------------------------------------
      1          6           0        0.285490   -0.774837    1.034868
      2          6           0       -0.308083    0.572140    0.594517
      3          6           0        0.791659    1.506698    0.139154
      4          6           0        1.882033    1.021170   -0.480092
      5          6           0        2.078436   -0.417637   -0.632421
      6          6           0        1.313236   -1.283775    0.055471
      7          8           0        1.514056   -2.637145   -0.038089
      8          8           0        0.540757    2.858209    0.185307
      9          6           0       -1.305925    0.444556   -0.578728
     10         16           0       -2.856397   -0.475222   -0.199580
     11          1           0        0.764082   -0.653069    2.019316
     12          1           0       -0.530035   -1.497438    1.171633
     13          1           0       -0.846560    1.001530    1.450546
     14          1           0        2.614122    1.706553   -0.894995
     15          1           0        2.867499   -0.785996   -1.279536
     16          1           0        0.880344   -3.087726    0.539076
     17          1           0       -0.096276    3.031398    0.895155
     18          1           0       -1.633324    1.443127   -0.878950
     19          1           0       -0.814224   -0.012751   -1.440132
     20          1           0       -2.362856   -1.720465   -0.363194
 ---------------------------------------------------------------------

 SCF Done:  E(UB3LYP) =  -821.549039490     A.U. after   29 cycles

 The electronic state is 2-A.
 Alpha  occ. eigenvalues --  -88.73064 -19.04172 -19.04038 -10.11782 -10.11541
 Alpha  occ. eigenvalues --  -10.09448 -10.08367 -10.07127 -10.05437 -10.04896
 Alpha  occ. eigenvalues --   -7.81750  -5.78112  -5.77781  -5.77146  -0.94886
 Alpha  occ. eigenvalues --   -0.94781  -0.74128  -0.68133  -0.63298  -0.62270
 Alpha  occ. eigenvalues --   -0.55790  -0.50029  -0.49468  -0.43331  -0.42920
 Alpha  occ. eigenvalues --   -0.37863  -0.36547  -0.35979  -0.32317  -0.31336
 Alpha  occ. eigenvalues --   -0.29964  -0.29717  -0.28742  -0.28303  -0.26076
 Alpha  occ. eigenvalues --   -0.24524  -0.22796  -0.22318  -0.21410  -0.17521
 Alpha  occ. eigenvalues --   -0.13349  -0.07763   0.04406
 Alpha virt. eigenvalues --    0.06470   0.08509   0.08939   0.09446   0.10384
 Alpha virt. eigenvalues --    0.10918   0.11351   0.12061   0.12468   0.13633
 Alpha virt. eigenvalues --    0.13795   0.15947   0.16548   0.16770   0.16903

  Beta  occ. eigenvalues --  -88.73038 -19.04130 -19.03986 -10.11778 -10.11528
  Beta  occ. eigenvalues --  -10.09430 -10.08339 -10.07084 -10.05437 -10.04884
  Beta  occ. eigenvalues --   -7.81723  -5.78055  -5.77763  -5.77125  -0.94799
  Beta  occ. eigenvalues --   -0.94683  -0.74073  -0.68079  -0.63225  -0.62186
  Beta  occ. eigenvalues --   -0.55691  -0.49928  -0.49372  -0.43260  -0.42806
  Beta  occ. eigenvalues --   -0.37783  -0.36497  -0.35912  -0.32258  -0.31274
  Beta  occ. eigenvalues --   -0.29867  -0.29660  -0.28697  -0.28232  -0.26003
  Beta  occ. eigenvalues --   -0.24466  -0.22718  -0.22244  -0.21339  -0.17482
  Beta  occ. eigenvalues --   -0.13283  -0.07708
  Beta virt. eigenvalues --    0.07492   0.08034   0.08898   0.08983   0.10038
  Beta virt. eigenvalues --    0.10804   0.11435   0.11535   0.12417   0.12844
  Beta virt. eigenvalues --    0.13926   0.14522   0.16091   0.16564   0.16977

 Mulliken charges and spin densities:
               1          2
     1  C    0.068391  -0.711306
     2  C    0.280785   0.515421
     3  C   -0.468285  -0.136065
     4  C    0.573322  -0.396153
     5  C    0.755349  -1.016688
     6  C    0.087975  -0.342650
     7  O   -0.302649   0.089586
     8  O   -0.238836  -0.000543
     9  C   -0.474907   0.025209
    10  S    0.460802  -0.609944
    11  H   -0.400770   0.581708
    12  H   -0.108733   0.192695
    13  H   -0.628942   0.826582
    14  H    0.160217   0.004543
    15  H    0.157580   0.006742
    16  H   -0.403896   0.690591
    17  H   -0.198521   0.495003
    18  H   -0.040565   0.259415
    19  H    0.104180   0.082003
    20  H   -0.382495   0.443851
 Sum of Mulliken charges =  -1.00000   1.00000

 Dipole moment (field-independent basis, Debye):
    X=              1.8889    Y=              1.5841    Z=             -3.3251  Tot=              4.1393
 Quadrupole moment (field-independent basis, Debye-Ang):
   XX=           -103.5043   YY=           -120.1585   ZZ=            -94.2796
   XY=              3.6009   XZ=             -0.6817   YZ=             -1.4983

 Summary of Natural Population Analysis:

                                       Natural Population
                Natural  -----------------------------------------------
    Atom  No    Charge         Core      Valence    Rydberg      Total
 -----------------------------------------------------------------------
      C    1   -0.22252      0.99958     2.21027    0.01267     3.22252
      C    2   -0.13856      0.99954     2.12347    0.01555     3.13856
      C    3    0.16311      0.99935     1.82119    0.01635     2.83689
      C    4   -0.14747      0.99947     2.13908    0.00892     3.14747
      C    5   -0.15974      0.99947     2.15015    0.01012     3.15974
      C    6    0.17092      0.99937     1.81503    0.01469     2.82908
      O    7   -0.34289      0.99987     3.33558    0.00744     4.34289
      O    8   -0.34940      0.99988     3.34176    0.00776     4.34940
      C    9   -0.24284      0.99955     2.23239    0.01090     3.24284
      S   10   -0.02538      4.99966     3.01109    0.01463     8.02538
      H   11    0.11219      0.00000     0.38557    0.00224     0.38781
      H   12    0.11080      0.00000     0.38594    0.00326     0.38920
      H   13    0.11015      0.00000     0.38531    0.00454     0.38985
      H   14    0.10094      0.00000     0.39801    0.00105     0.39906
      H   15    0.10066      0.00000     0.39816    0.00119     0.39934
      H   16    0.24050      0.00000     0.24869    0.01081     0.25950
      H   17    0.23839      0.00000     0.25454    0.00707     0.26161
      H   18    0.10832      0.00000     0.39037    0.00131     0.39168
      H   19    0.10786      0.00000     0.39096    0.00118     0.39214
      H   20    0.06498      0.00000     0.43113    0.00389     0.43502
 =======================================================================
   * Total *   -0.00000     13.99575    27.84869    0.15556    42.00000

 Normal termination of Gaussian 16 at Tue Dec  8 10:37:19 2020.
