 Gaussian 16, Revision A.03,

 -----------------------------------------------------------
 # opt freq B3LYP/6-31G(d) empiricaldispersion=gd3bj scf=xqc
 -----------------------------------------------------------

 ------------------------------
 CID_12566000_JID_1001_neutraal
 ------------------------------
 Symbolic Z-matrix:
 Charge =  0 Multiplicity = 1

 SCF Done:  E(RB3LYP) =  -496.855047473     A.U. after   15 cycles
 SCF Done:  E(RB3LYP) =  -496.859121270     A.U. after   12 cycles
 SCF Done:  E(RB3LYP) =  -496.859583264     A.U. after   12 cycles
 SCF Done:  E(RB3LYP) =  -496.859612947     A.U. after   12 cycles
 SCF Done:  E(RB3LYP) =  -496.859687821     A.U. after   11 cycles
 SCF Done:  E(RB3LYP) =  -496.859712011     A.U. after   10 cycles
 SCF Done:  E(RB3LYP) =  -496.859715370     A.U. after    9 cycles
 SCF Done:  E(RB3LYP) =  -496.859715831     A.U. after    8 cycles
 SCF Done:  E(RB3LYP) =  -496.859715949     A.U. after    8 cycles
 SCF Done:  E(RB3LYP) =  -496.859715978     A.U. after    7 cycles
 Optimization completed.
    -- Stationary point found.
 Normal termination of Gaussian 16 at Tue Dec  8 15:48:57 2020.

 --------------------------------------------------------------------
 #N Geom=AllCheck Guess=TCheck SCRF=Check GenChk RB3LYP/6-31G(d) Freq
 --------------------------------------------------------------------

 Structure from the checkpoint file:  "JID_1001.chk"
 ------------------------------
 CID_12566000_JID_1001_neutraal
 ------------------------------
 Charge =  0 Multiplicity = 1

 SCF Done:  E(RB3LYP) =  -496.859715978     A.U. after    1 cycles

  Exact polarizability: 143.366   5.836  97.856  -7.906   0.994  63.094
 Approx polarizability: 193.848  20.702 176.586 -18.722   2.365  92.583

                      1                      2                      3
                      A                      A                      A
 Frequencies --     50.0381                66.1079                94.9980
 Red. masses --      2.7428                 2.8703                 2.6808
 Frc consts  --      0.0040                 0.0074                 0.0143
 IR Inten    --      0.1852                 1.1165                 1.0675

                      4                      5                      6
                      A                      A                      A
 Frequencies --    136.8599               187.9657               203.4317
 Red. masses --      4.3428                 3.0460                 1.3516
 Frc consts  --      0.0479                 0.0634                 0.0330
 IR Inten    --      2.6028                 1.0465                 0.2247

                      7                      8                      9
                      A                      A                      A
 Frequencies --    222.4575               279.6314               315.6930
 Red. masses --      1.2333                 2.7220                 1.8656
 Frc consts  --      0.0360                 0.1254                 0.1095
 IR Inten    --      1.5865                 1.2149                 2.1673

                     10                     11                     12
                      A                      A                      A
 Frequencies --    341.5633               410.8741               467.6803
 Red. masses --      3.1606                 4.7340                 4.1526
 Frc consts  --      0.2173                 0.4709                 0.5351
 IR Inten    --      2.9795                 1.8582                 0.4718

                     13                     14                     15
                      A                      A                      A
 Frequencies --    523.5398               534.3935               575.5823
 Red. masses --      3.7292                 4.0395                 6.3354
 Frc consts  --      0.6022                 0.6797                 1.2366
 IR Inten    --     11.2151                 1.8341                 8.6738

                     16                     17                     18
                      A                      A                      A
 Frequencies --    646.7597               704.2871               722.2168
 Red. masses --      3.7107                 5.3258                 1.4329
 Frc consts  --      0.9145                 1.5565                 0.4404
 IR Inten    --      4.6298                 4.8197                69.5233

                     19                     20                     21
                      A                      A                      A
 Frequencies --    738.9907               792.5549               804.7997
 Red. masses --      3.2927                 1.8572                 1.3283
 Frc consts  --      1.0595                 0.6873                 0.5069
 IR Inten    --      1.3151                13.0157                 1.4254

                     22                     23                     24
                      A                      A                      A
 Frequencies --    814.1936               857.9866               957.5925
 Red. masses --      2.0175                 1.2782                 2.2242
 Frc consts  --      0.7880                 0.5544                 1.2017
 IR Inten    --      4.7213                16.4204                 3.2788

                     25                     26                     27
                      A                      A                      A
 Frequencies --    982.8393              1037.3007              1071.5978
 Red. masses --      2.3535                 2.7394                 2.4845
 Frc consts  --      1.3394                 1.7366                 1.6809
 IR Inten    --      8.2239                 3.3143                38.2874

                     28                     29                     30
                      A                      A                      A
 Frequencies --   1090.0497              1093.5361              1108.6883
 Red. masses --      1.7304                 1.7975                 1.4635
 Frc consts  --      1.2114                 1.2665                 1.0599
 IR Inten    --     14.8404                 1.2495                 0.0612

                     31                     32                     33
                      A                      A                      A
 Frequencies --   1184.2861              1209.9879              1260.7229
 Red. masses --      3.5148                 3.5554                 1.6671
 Frc consts  --      2.9044                 3.0669                 1.5611
 IR Inten    --      8.5570                17.0333                13.4491

                     34                     35                     36
                      A                      A                      A
 Frequencies --   1280.5169              1294.1697              1343.1764
 Red. masses --      1.8617                 1.2194                 1.6625
 Frc consts  --      1.7986                 1.2033                 1.7672
 IR Inten    --     10.6590                 0.1070                14.7317

                     37                     38                     39
                      A                      A                      A
 Frequencies --   1371.9750              1372.3139              1404.2883
 Red. masses --      1.5615                 1.5201                 1.5875
 Frc consts  --      1.7317                 1.6867                 1.8445
 IR Inten    --      3.0283                12.1839                 1.5718

                     40                     41                     42
                      A                      A                      A
 Frequencies --   1427.7357              1442.0042              1495.8570
 Red. masses --      1.2378                 1.2145                 1.4327
 Frc consts  --      1.4866                 1.4879                 1.8888
 IR Inten    --      4.0710                 1.3904                 9.6904

                     43                     44                     45
                      A                      A                      A
 Frequencies --   1502.0771              1516.5679              1527.6660
 Red. masses --      1.4689                 1.3027                 1.0516
 Frc consts  --      1.9527                 1.7653                 1.4460
 IR Inten    --      5.9565                 3.6731                 7.5706

                     46                     47                     48
                      A                      A                      A
 Frequencies --   1528.2317              1534.9807              1542.4457
 Red. masses --      1.0426                 1.0751                 1.0662
 Frc consts  --      1.4346                 1.4924                 1.4946
 IR Inten    --      8.9394                 2.6933                 6.0049

                     49                     50                     51
                      A                      A                      A
 Frequencies --   1597.2775              1666.4032              1772.8685
 Red. masses --      6.3722                 5.5816                 8.5859
 Frc consts  --      9.5786                 9.1321                15.8998
 IR Inten    --      7.6891                89.3434               397.3222

                     52                     53                     54
                      A                      A                      A
 Frequencies --   3037.4248              3056.3287              3057.1900
 Red. masses --      1.0689                 1.0363                 1.0357
 Frc consts  --      5.8102                 5.7032                 5.7036
 IR Inten    --     26.8238                43.0271                16.5700

                     55                     56                     57
                      A                      A                      A
 Frequencies --   3063.1559              3102.5258              3115.6370
 Red. masses --      1.0606                 1.0949                 1.1008
 Frc consts  --      5.8634                 6.2095                 6.2957
 IR Inten    --     16.6166                 2.6080                12.2864

                     58                     59                     60
                      A                      A                      A
 Frequencies --   3123.9227              3127.2178              3137.1112
 Red. masses --      1.1039                 1.1010                 1.1040
 Frc consts  --      6.3473                 6.3441                 6.4013
 IR Inten    --     30.0992                37.5442                26.1898

                     61                     62                     63
                      A                      A                      A
 Frequencies --   3147.4836              3214.8992              3576.8111
 Red. masses --      1.1025                 1.0918                 1.0770
 Frc consts  --      6.4352                 6.6488                 8.1185
 IR Inten    --     22.8807                18.9469                36.6339

 - Thermochemistry -
 -------------------
 Temperature   298.150 Kelvin.  Pressure   1.00000 Atm.
 Atom     1 has atomic number  6 and mass  12.00000

 Molecular mass:   152.09496 amu.
 Principal axes and moments of inertia in atomic units:
                           1         2         3
     Eigenvalues --   719.300932737.210983219.91894
           X            0.99994  -0.00990   0.00562
           Y            0.00991   0.99995  -0.00333
           Z           -0.00559   0.00338   0.99998
 This molecule is an asymmetric top.
 Rotational symmetry number  1.
 Warning -- assumption of classical behavior for rotation
           may cause significant error
 Rotational temperatures (Kelvin)      0.12041     0.03164     0.02690
 Rotational constants (GHZ):           2.50902     0.65934     0.56049
 Zero-point vibrational energy     513613.5 (Joules/Mol)
                                  122.75657 (Kcal/Mol)
 Warning -- explicit consideration of  15 degrees of freedom as
           vibrations may cause significant error
 Vibrational temperatures:     71.99    95.11   136.68   196.91   270.44
          (Kelvin)            292.69   320.07   402.33   454.21   491.43
                              591.16   672.89   753.26   768.87   828.13
                              930.54  1013.31  1039.11  1063.24  1140.31
                             1157.93  1171.44  1234.45  1377.76  1414.09
                             1492.44  1541.79  1568.34  1573.35  1595.16
                             1703.92  1740.90  1813.90  1842.38  1862.02
                             1932.53  1973.97  1974.45  2020.46  2054.19
                             2074.72  2152.20  2161.15  2182.00  2197.97
                             2198.78  2208.49  2219.24  2298.13  2397.58
                             2550.76  4370.18  4397.38  4398.61  4407.20
                             4463.84  4482.71  4494.63  4499.37  4513.60
                             4528.53  4625.52  5146.23

 Zero-point correction=                           0.195625 (Hartree/Particle)
 Thermal correction to Energy=                    0.206631
 Thermal correction to Enthalpy=                  0.207575
 Thermal correction to Gibbs Free Energy=         0.158489
 Sum of electronic and zero-point Energies=           -496.664091
 Sum of electronic and thermal Energies=              -496.653085
 Sum of electronic and thermal Enthalpies=            -496.652141
 Sum of electronic and thermal Free Energies=         -496.701227

                     E (Thermal)             CV                S
                      KCal/Mol        Cal/Mol-Kelvin    Cal/Mol-Kelvin
 Total                  129.663             40.710            103.310
 Electronic               0.000              0.000              0.000
 Translational            0.889              2.981             40.968
 Rotational               0.889              2.981             30.229
 Vibrational            127.886             34.748             32.114
 Vibration     1          0.595              1.978              4.816
 Vibration     2          0.598              1.970              4.266
 Vibration     3          0.603              1.953              3.554
 Vibration     4          0.614              1.917              2.847
 Vibration     5          0.633              1.856              2.248
 Vibration     6          0.639              1.835              2.102
 Vibration     7          0.648              1.807              1.939
 Vibration     8          0.680              1.711              1.536
 Vibration     9          0.703              1.644              1.332
 Vibration    10          0.721              1.592              1.205
 Vibration    11          0.775              1.447              0.924
 Vibration    12          0.825              1.322              0.744
 Vibration    13          0.879              1.198              0.602
 Vibration    14          0.889              1.174              0.577
 Vibration    15          0.932              1.084              0.494

                           ! Non-Optimized Parameters !
 Normal termination of Gaussian 16 at Tue Dec  8 15:54:22 2020.

 ----------------------------------------------------------------------
 # B3LYP/6-311++G(d,p) empiricaldispersion=gd3bj scf=xqc pop=npa geom=c
 heck
 ----------------------------------------------------------------------

 --------------------------------------
 CID_12566000_JID_1001_Energie_neutraal
 --------------------------------------
 Structure from the checkpoint file:  "JID_1001.chk"
 Charge =  0 Multiplicity = 1

 SCF Done:  E(RB3LYP) =  -497.000390160     A.U. after   15 cycles
 Normal termination of Gaussian 16 at Tue Dec  8 15:57:14 2020.

 ----------------------------------------------------------------------
 # B3LYP/6-311++G(d,p) empiricaldispersion=gd3bj scf=xqc pop=npa geom=c
 heck
 ----------------------------------------------------------------------

 ------------------------------------
 CID_12566000_JID_1001_Energie_kation
 ------------------------------------
 Structure from the checkpoint file:  "JID_1001.chk"
 Charge =  1 Multiplicity = 2

 SCF Done:  E(UB3LYP) =  -496.697420190     A.U. after   22 cycles
 Normal termination of Gaussian 16 at Tue Dec  8 16:02:40 2020.
 Gaussian 16:  ES64L-G16RevA.03 25-Dec-2016

 ----------------------------------------------------------------------
 # B3LYP/6-311++G(d,p) empiricaldispersion=gd3bj scf=xqc pop=npa geom=c
 heck
 ----------------------------------------------------------------------

 -----------------------------------
 CID_12566000_JID_1001_Energie_anion
 -----------------------------------
 Structure from the checkpoint file:  "JID_1001.chk"
 Charge = -1 Multiplicity = 2

                         Standard orientation:
 ---------------------------------------------------------------------
 Center     Atomic      Atomic             Coordinates (Angstroms)
 Number     Number       Type             X           Y           Z
 ---------------------------------------------------------------------
      1          6           0       -3.738113    0.403345   -0.522851
      2          6           0       -2.925598   -0.266274    0.598877
      3          6           0       -1.457435   -0.346340    0.293526
      4          6           0       -0.767093   -1.497968    0.048485
      5          7           0        0.569498   -1.512468   -0.254372
      6          6           0        1.234693   -0.390508   -0.315091
      7          6           0        0.610809    0.923744   -0.068673
      8          8           0        1.179726    2.011319   -0.107904
      9          7           0       -0.750114    0.828801    0.226279
     10          6           0        2.705885   -0.400554   -0.618973
     11          6           0        3.557330   -0.114747    0.630921
     12          1           0       -3.408470    1.432844   -0.702624
     13          1           0       -4.800255    0.434580   -0.260377
     14          1           0       -3.629699   -0.149843   -1.461042
     15          1           0       -3.072991    0.282622    1.539610
     16          1           0       -3.294762   -1.282482    0.768585
     17          1           0       -1.269319   -2.458804    0.085288
     18          1           0       -1.209573    1.716473    0.400459
     19          1           0        2.955419   -1.380265   -1.036321
     20          1           0        2.916667    0.366086   -1.373969
     21          1           0        3.376945   -0.869663    1.404060
     22          1           0        4.623283   -0.131247    0.379746
     23          1           0        3.316386    0.870633    1.039141
 ---------------------------------------------------------------------

 SCF Done:  E(UB3LYP) =  -497.005481909     A.U. after   29 cycles

 The electronic state is 2-A.
 Alpha  occ. eigenvalues --  -18.94082 -14.21453 -14.15271 -10.12097 -10.07457
 Alpha  occ. eigenvalues --  -10.06347 -10.05307 -10.05071 -10.04492 -10.03594
 Alpha  occ. eigenvalues --  -10.03465  -0.89666  -0.82307  -0.76710  -0.67217
 Alpha  occ. eigenvalues --   -0.64577  -0.59732  -0.53954  -0.51449  -0.49250
 Alpha  occ. eigenvalues --   -0.46938  -0.39360  -0.39074  -0.33840  -0.32994
 Alpha  occ. eigenvalues --   -0.31820  -0.30598  -0.29901  -0.29136  -0.28227
 Alpha  occ. eigenvalues --   -0.26732  -0.25069  -0.24620  -0.24056  -0.22246
 Alpha  occ. eigenvalues --   -0.21844  -0.20837  -0.17774  -0.14832  -0.09512
 Alpha  occ. eigenvalues --   -0.08173   0.04450
 Alpha virt. eigenvalues --    0.07296   0.08971   0.09529   0.09781   0.10612
 Alpha virt. eigenvalues --    0.11415   0.12193   0.13087   0.13243   0.13817
 Alpha virt. eigenvalues --    0.13973   0.14792   0.15392   0.16256   0.17135

  Beta  occ. eigenvalues --  -18.94007 -14.21207 -14.14903 -10.12059 -10.07194
  Beta  occ. eigenvalues --  -10.06355 -10.05242 -10.05173 -10.04209 -10.03563
  Beta  occ. eigenvalues --  -10.03487  -0.89445  -0.81896  -0.76059  -0.66975
  Beta  occ. eigenvalues --   -0.64401  -0.59509  -0.53569  -0.51141  -0.49151
  Beta  occ. eigenvalues --   -0.46812  -0.39101  -0.38813  -0.33511  -0.32909
  Beta  occ. eigenvalues --   -0.31680  -0.29947  -0.29793  -0.28975  -0.28040
  Beta  occ. eigenvalues --   -0.26463  -0.24845  -0.24455  -0.23935  -0.22068
  Beta  occ. eigenvalues --   -0.21732  -0.19978  -0.16303  -0.14555  -0.09177
  Beta  occ. eigenvalues --   -0.07014
  Beta virt. eigenvalues --    0.07686   0.08710   0.09729   0.09979   0.10781
  Beta virt. eigenvalues --    0.10922   0.11405   0.12208   0.13126   0.13312
  Beta virt. eigenvalues --    0.14003   0.14118   0.15159   0.15357   0.16318

 Mulliken charges and spin densities:
               1          2
     1  C    0.703135  -1.189198
     2  C   -1.409390   0.849358
     3  C    0.740664  -0.378475
     4  C    0.181985  -0.338576
     5  N   -0.052664   0.178025
     6  C    0.170560   0.014533
     7  C   -0.095447   0.063650
     8  O   -0.449198   0.031419
     9  N   -0.207114   0.140926
    10  C   -0.300261   0.047969
    11  C   -0.450280  -0.034028
    12  H    0.065296   0.050056
    13  H   -0.588385   0.725716
    14  H    0.043624   0.094165
    15  H   -0.258765   0.417292
    16  H    0.002252   0.144299
    17  H    0.108129   0.043489
    18  H    0.211825   0.058981
    19  H    0.106811   0.022805
    20  H    0.140784   0.009260
    21  H    0.120010  -0.010365
    22  H    0.052134   0.057764
    23  H    0.164295   0.000936
 Sum of Mulliken charges =  -1.00000   1.00000

 Dipole moment (field-independent basis, Debye):
    X=              2.0797    Y=             -1.3240    Z=             -0.1565  Tot=              2.4704
 Quadrupole moment (field-independent basis, Debye-Ang):
   XX=           -123.7291   YY=            -91.6583   ZZ=            -80.4334
   XY=              1.2549   XZ=              3.3445   YZ=             -1.4921

 Summary of Natural Population Analysis:

                                       Natural Population
                Natural  -----------------------------------------------
    Atom  No    Charge         Core      Valence    Rydberg      Total
 -----------------------------------------------------------------------
      C    1   -0.27924      0.99966     2.27428    0.00530     3.27924
      C    2   -0.20725      0.99962     2.19745    0.01019     3.20725
      C    3    0.13484      0.99951     1.85390    0.01174     2.86516
      C    4   -0.06013      0.99950     2.04543    0.01521     3.06013
      N    5   -0.18075      0.99967     2.66896    0.01212     3.68075
      C    6    0.11686      0.99954     1.86695    0.01666     2.88314
      C    7    0.30736      0.99960     1.66938    0.02366     2.69264
      O    8   -0.34148      0.99988     3.33600    0.00560     4.34148
      N    9   -0.25438      0.99963     2.74576    0.00899     3.75438
      C   10   -0.20514      0.99962     2.19718    0.00834     3.20514
      C   11   -0.27919      0.99966     2.27542    0.00411     3.27919
      H   12    0.09337      0.00000     0.40525    0.00138     0.40663
      H   13    0.09907      0.00000     0.39829    0.00264     0.40093
      H   14    0.09743      0.00000     0.40163    0.00094     0.40257
      H   15    0.10206      0.00000     0.39539    0.00255     0.39794
      H   16    0.10145      0.00000     0.39751    0.00104     0.39855
      H   17    0.08646      0.00000     0.41195    0.00160     0.41354
      H   18    0.18897      0.00000     0.30741    0.00362     0.31103
      H   19    0.09562      0.00000     0.40208    0.00230     0.40438
      H   20    0.10010      0.00000     0.39819    0.00172     0.39990
      H   21    0.09269      0.00000     0.40643    0.00087     0.40731
      H   22    0.08675      0.00000     0.41164    0.00162     0.41325
      H   23    0.10454      0.00000     0.39450    0.00097     0.39546
 =======================================================================
   * Total *    0.00000     10.99590    29.86094    0.14316    41.00000

 Normal termination of Gaussian 16 at Tue Dec  8 16:11:38 2020.
