 Gaussian 16, Revision A.03,

 -----------------------------------------------------------
 # opt freq B3LYP/6-31G(d) empiricaldispersion=gd3bj scf=xqc
 -----------------------------------------------------------

 -------------------------------
 CID_136990975_JID_9792_neutraal
 -------------------------------
 Symbolic Z-matrix:
 Charge =  0 Multiplicity = 1

 SCF Done:  E(RB3LYP) =  -1212.28663517     A.U. after   14 cycles
 SCF Done:  E(RB3LYP) =  -1212.29342788     A.U. after   13 cycles
 SCF Done:  E(RB3LYP) =  -1212.29472550     A.U. after   13 cycles
 SCF Done:  E(RB3LYP) =  -1212.29485016     A.U. after   12 cycles
 SCF Done:  E(RB3LYP) =  -1212.29488714     A.U. after   10 cycles
 SCF Done:  E(RB3LYP) =  -1212.29490605     A.U. after   10 cycles
 SCF Done:  E(RB3LYP) =  -1212.29491043     A.U. after    9 cycles
 SCF Done:  E(RB3LYP) =  -1212.29491222     A.U. after    8 cycles
 SCF Done:  E(RB3LYP) =  -1212.29491279     A.U. after    8 cycles
 SCF Done:  E(RB3LYP) =  -1212.29491397     A.U. after    9 cycles
 SCF Done:  E(RB3LYP) =  -1212.29557747     A.U. after   10 cycles
 SCF Done:  E(RB3LYP) =  -1212.29557122     A.U. after   10 cycles
 SCF Done:  E(RB3LYP) =  -1212.29557936     A.U. after   10 cycles
 SCF Done:  E(RB3LYP) =  -1212.29558064     A.U. after    9 cycles
 SCF Done:  E(RB3LYP) =  -1212.29558066     A.U. after    6 cycles
 Optimization completed.
    -- Stationary point found.
 Normal termination of Gaussian 16 at Mon Dec 14 17:39:54 2020.

 --------------------------------------------------------------------
 #N Geom=AllCheck Guess=TCheck SCRF=Check GenChk RB3LYP/6-31G(d) Freq
 --------------------------------------------------------------------

 Structure from the checkpoint file:  "JID_9792.chk"
 -------------------------------
 CID_136990975_JID_9792_neutraal
 -------------------------------
 Charge =  0 Multiplicity = 1

 SCF Done:  E(RB3LYP) =  -1212.29558066     A.U. after    1 cycles

  Exact polarizability: 284.336  16.804 177.387   9.082 -12.770 106.667
 Approx polarizability: 373.304  39.076 305.812  17.056 -33.786 187.264

                      1                      2                      3
                      A                      A                      A
 Frequencies --     21.8834                23.9748                30.2869
 Red. masses --      4.6925                 4.4503                 5.6144
 Frc consts  --      0.0013                 0.0015                 0.0030
 IR Inten    --      2.2717                 0.2860                 0.9764

                      4                      5                      6
                      A                      A                      A
 Frequencies --     48.8170                58.4884                69.8132
 Red. masses --      1.0346                 1.0400                 4.7686
 Frc consts  --      0.0015                 0.0021                 0.0137
 IR Inten    --      0.5715                 0.4311                 0.1224

                      7                      8                      9
                      A                      A                      A
 Frequencies --     90.3120               129.5242               160.1754
 Red. masses --      6.3590                 6.7898                 6.7897
 Frc consts  --      0.0306                 0.0671                 0.1026
 IR Inten    --      0.8186                 0.6268                 3.1223

                     10                     11                     12
                      A                      A                      A
 Frequencies --    172.7814               178.8770               213.1669
 Red. masses --      3.0784                 5.1676                 5.7844
 Frc consts  --      0.0541                 0.0974                 0.1549
 IR Inten    --      0.1505                 2.4027                 0.5803

                     13                     14                     15
                      A                      A                      A
 Frequencies --    218.0639               262.7634               284.1608
 Red. masses --      6.1062                 5.3885                 3.2278
 Frc consts  --      0.1711                 0.2192                 0.1536
 IR Inten    --      0.4334                 0.6582                 2.8318

                     16                     17                     18
                      A                      A                      A
 Frequencies --    318.2087               336.3307               351.5975
 Red. masses --      1.9541                 2.9874                 4.4319
 Frc consts  --      0.1166                 0.1991                 0.3228
 IR Inten    --     70.6395                25.0894                 7.6611

                     19                     20                     21
                      A                      A                      A
 Frequencies --    378.0579               415.9575               420.6208
 Red. masses --      2.2996                 1.9544                 3.7985
 Frc consts  --      0.1937                 0.1992                 0.3960
 IR Inten    --     45.0099                33.7655                 5.6112

                     22                     23                     24
                      A                      A                      A
 Frequencies --    436.0744               465.7860               488.6604
 Red. masses --      2.5503                 2.7814                 6.2189
 Frc consts  --      0.2857                 0.3555                 0.8749
 IR Inten    --     14.4595                 6.4317                 7.2537

                     25                     26                     27
                      A                      A                      A
 Frequencies --    522.1356               538.3543               560.4593
 Red. masses --      4.6184                 5.4959                 3.5535
 Frc consts  --      0.7418                 0.9385                 0.6576
 IR Inten    --      2.2288                12.9570                 0.5857

                     28                     29                     30
                      A                      A                      A
 Frequencies --    563.3658               572.0991               604.9989
 Red. masses --      5.0302                 4.5813                 4.1016
 Frc consts  --      0.9406                 0.8834                 0.8845
 IR Inten    --      8.0211                12.9153                 3.9378

                     31                     32                     33
                      A                      A                      A
 Frequencies --    624.1645               648.9516               740.2585
 Red. masses --      2.0007                 7.3157                 2.5663
 Frc consts  --      0.4592                 1.8152                 0.8286
 IR Inten    --     80.1945                21.0437               120.7155

                     34                     35                     36
                      A                      A                      A
 Frequencies --    745.9632               782.8793               787.3984
 Red. masses --      4.9925                 5.9492                 5.3581
 Frc consts  --      1.6368                 2.1483                 1.9573
 IR Inten    --     49.0986                 5.4116                18.0545

                     37                     38                     39
                      A                      A                      A
 Frequencies --    847.1755               862.5403               871.5148
 Red. masses --      4.1898                 1.2180                 1.4929
 Frc consts  --      1.7717                 0.5339                 0.6681
 IR Inten    --     29.6083                 7.0869                19.9347

                     40                     41                     42
                      A                      A                      A
 Frequencies --    902.2122               953.1005               961.7101
 Red. masses --      5.0091                 1.4990                 7.4169
 Frc consts  --      2.4023                 0.8023                 4.0417
 IR Inten    --     59.0651                12.5525               157.8737

                     43                     44                     45
                      A                      A                      A
 Frequencies --    972.4412               991.5618               999.9567
 Red. masses --      4.7156                 1.3221                 4.9079
 Frc consts  --      2.6273                 0.7659                 2.8914
 IR Inten    --      4.3383                 0.0521                 4.6906

                     46                     47                     48
                      A                      A                      A
 Frequencies --   1035.1436              1038.1868              1046.0899
 Red. masses --      3.7381                 2.0449                 1.4711
 Frc consts  --      2.3599                 1.2986                 0.9485
 IR Inten    --     19.2922                 4.1204                 1.3699

                     49                     50                     51
                      A                      A                      A
 Frequencies --   1069.4544              1076.7927              1121.4042
 Red. masses --      1.6399                 1.5906                 2.8618
 Frc consts  --      1.1051                 1.0866                 2.1204
 IR Inten    --     12.0576                 0.0950                26.8158

                     52                     53                     54
                      A                      A                      A
 Frequencies --   1141.1964              1165.6959              1199.1089
 Red. masses --      2.3900                 1.2891                 2.0422
 Frc consts  --      1.8339                 1.0321                 1.7301
 IR Inten    --     12.0333                11.7112                31.0186

                     55                     56                     57
                      A                      A                      A
 Frequencies --   1206.9586              1273.5398              1303.2226
 Red. masses --      1.4806                 7.8373                 8.9759
 Frc consts  --      1.2708                 7.4893                 8.9819
 IR Inten    --      6.2513                 8.6651                18.5507

                     58                     59                     60
                      A                      A                      A
 Frequencies --   1309.2426              1330.4725              1363.2994
 Red. masses --      7.8659                 1.5249                 1.4805
 Frc consts  --      7.9440                 1.5904                 1.6212
 IR Inten    --    296.5785                28.6351                93.4272

                     61                     62                     63
                      A                      A                      A
 Frequencies --   1385.5350              1407.7016              1431.5011
 Red. masses --      3.4392                 3.0216                 1.2829
 Frc consts  --      3.8900                 3.5278                 1.5489
 IR Inten    --     53.7364                17.4501                 8.7331

                     64                     65                     66
                      A                      A                      A
 Frequencies --   1441.2434              1452.8723              1462.3955
 Red. masses --      1.4450                 2.0796                 3.4945
 Frc consts  --      1.7685                 2.5864                 4.4032
 IR Inten    --      0.0679                10.6160                 0.2076

                     67                     68                     69
                      A                      A                      A
 Frequencies --   1502.8671              1504.0683              1511.5052
 Red. masses --      1.0466                 1.0452                 1.2209
 Frc consts  --      1.3927                 1.3931                 1.6435
 IR Inten    --      5.7382                 9.7127               124.6826

                     70                     71                     72
                      A                      A                      A
 Frequencies --   1514.0260              1524.0072              1598.0886
 Red. masses --      1.1115                 2.8954                 5.5163
 Frc consts  --      1.5012                 3.9622                 8.3004
 IR Inten    --     18.1641                28.8233               280.0642

                     73                     74                     75
                      A                      A                      A
 Frequencies --   1602.1219              1630.1234              1633.8934
 Red. masses --      5.7428                 6.0063                 5.8504
 Frc consts  --      8.6849                 9.4037                 9.2020
 IR Inten    --     33.2969               237.1052                27.1479

                     76                     77                     78
                      A                      A                      A
 Frequencies --   1655.1962              1719.6993              3061.6924
 Red. masses --      1.2702                 4.5682                 1.0360
 Frc consts  --      2.0504                 7.9598                 5.7220
 IR Inten    --     66.2869                96.2818                10.5975

                     79                     80                     81
                      A                      A                      A
 Frequencies --   3061.9062              3123.3922              3123.5693
 Red. masses --      1.0359                 1.1003                 1.1005
 Frc consts  --      5.7221                 6.3241                 6.3261
 IR Inten    --      8.3414                 1.3322                13.0642

                     82                     83                     84
                      A                      A                      A
 Frequencies --   3146.8424              3147.5278              3193.0161
 Red. masses --      1.1036                 1.1039                 1.0913
 Frc consts  --      6.4392                 6.4435                 6.5554
 IR Inten    --     12.9402                20.8147                17.3016

                     85                     86                     87
                      A                      A                      A
 Frequencies --   3208.1538              3216.2415              3225.2383
 Red. masses --      1.0891                 1.0922                 1.0946
 Frc consts  --      6.6045                 6.6563                 6.7083
 IR Inten    --      3.8459                 9.6971                 5.2207

                     88                     89                     90
                      A                      A                      A
 Frequencies --   3550.7550              3653.4607              3781.6988
 Red. masses --      1.0468                 1.0987                 1.0679
 Frc consts  --      7.7762                 8.6404                 8.9979
 IR Inten    --     25.9921                21.1149               103.2066

 - Thermochemistry -
 -------------------
 Temperature   298.150 Kelvin.  Pressure   1.00000 Atm.
 Atom     1 has atomic number  6 and mass  12.00000

 Molecular mass:   275.08408 amu.
 Principal axes and moments of inertia in atomic units:
                           1         2         3
     Eigenvalues --  2210.39374********************
           X            0.99995  -0.01019   0.00168
           Y            0.01020   0.99993  -0.00543
           Z           -0.00163   0.00545   0.99998
 This molecule is an asymmetric top.
 Rotational symmetry number  1.
 Warning -- assumption of classical behavior for rotation
           may cause significant error
 Rotational temperatures (Kelvin)      0.03918     0.00722     0.00637
 Rotational constants (GHZ):           0.81648     0.15044     0.13269
 Zero-point vibrational energy     644654.2 (Joules/Mol)
                                  154.07606 (Kcal/Mol)
 Warning -- explicit consideration of  30 degrees of freedom as
           vibrations may cause significant error
 Vibrational temperatures:     31.49    34.49    43.58    70.24    84.15
          (Kelvin)            100.45   129.94   186.36   230.46   248.59
                              257.36   306.70   313.75   378.06   408.84
                              457.83   483.90   505.87   543.94   598.47
                              605.18   627.41   670.16   703.07   751.24
                              774.57   806.38   810.56   823.12   870.46
                              898.03   933.70  1065.07  1073.27  1126.39
                             1132.89  1218.90  1241.00  1253.92  1298.08
                             1371.30  1383.69  1399.13  1426.64  1438.71
                             1489.34  1493.72  1505.09  1538.71  1549.26
                             1613.45  1641.93  1677.18  1725.25  1736.54
                             1832.34  1875.05  1883.71  1914.25  1961.48
                             1993.48  2025.37  2059.61  2073.63  2090.36
                             2104.06  2162.29  2164.02  2174.72  2178.35
                             2192.71  2299.29  2305.10  2345.38  2350.81
                             2381.46  2474.26  4405.09  4405.40  4493.86
                             4494.12  4527.60  4528.59  4594.04  4615.82
                             4627.45  4640.40  5108.74  5256.52  5441.02

 Zero-point correction=                           0.245536 (Hartree/Particle)
 Thermal correction to Energy=                    0.264096
 Thermal correction to Enthalpy=                  0.265040
 Thermal correction to Gibbs Free Energy=         0.195720
 Sum of electronic and zero-point Energies=          -1212.050045
 Sum of electronic and thermal Energies=             -1212.031485
 Sum of electronic and thermal Enthalpies=           -1212.030541
 Sum of electronic and thermal Free Energies=        -1212.099860

                     E (Thermal)             CV                S
                      KCal/Mol        Cal/Mol-Kelvin    Cal/Mol-Kelvin
 Total                  165.723             67.947            145.896
 Electronic               0.000              0.000              0.000
 Translational            0.889              2.981             42.734
 Rotational               0.889              2.981             34.244
 Vibrational            163.945             61.985             68.918
 Vibration     1          0.593              1.985              6.456
 Vibration     2          0.593              1.985              6.274
 Vibration     3          0.594              1.984              5.811
 Vibration     4          0.595              1.978              4.865
 Vibration     5          0.596              1.974              4.508
 Vibration     6          0.598              1.969              4.159
 Vibration     7          0.602              1.956              3.653
 Vibration     8          0.612              1.924              2.953
 Vibration     9          0.622              1.891              2.548
 Vibration    10          0.626              1.876              2.405
 Vibration    11          0.629              1.868              2.340
 Vibration    12          0.644              1.821              2.016
 Vibration    13          0.646              1.814              1.975
 Vibration    14          0.670              1.741              1.643
 Vibration    15          0.683              1.703              1.508
 Vibration    16          0.705              1.639              1.319
 Vibration    17          0.717              1.603              1.230
 Vibration    18          0.728              1.572              1.159
 Vibration    19          0.748              1.517              1.047
 Vibration    20          0.779              1.436              0.906
 Vibration    21          0.783              1.425              0.890
 Vibration    22          0.797              1.392              0.839
 Vibration    23          0.823              1.326              0.749
 Vibration    24          0.845              1.275              0.687
 Vibration    25          0.877              1.201              0.605
 Vibration    26          0.893              1.165              0.569
 Vibration    27          0.916              1.117              0.523
 Vibration    28          0.919              1.111              0.517
 Vibration    29          0.928              1.092              0.500
 Vibration    30          0.964              1.021              0.441

 Optimization completed.
    -- Stationary point found.
 Normal termination of Gaussian 16 at Mon Dec 14 17:52:21 2020.

 ----------------------------------------------------------------------
 # B3LYP/6-311++G(d,p) empiricaldispersion=gd3bj scf=xqc pop=npa geom=c
 heck
 ----------------------------------------------------------------------

 ---------------------------------------
 CID_136990975_JID_9792_Energie_neutraal
 ---------------------------------------
 Structure from the checkpoint file:  "JID_9792.chk"
 Charge =  0 Multiplicity = 1

 SCF Done:  E(RB3LYP) =  -1212.55221972     A.U. after   17 cycles
 Normal termination of Gaussian 16 at Mon Dec 14 17:58:24 2020.

 ----------------------------------------------------------------------
 # B3LYP/6-311++G(d,p) empiricaldispersion=gd3bj scf=xqc pop=npa geom=c
 heck
 ----------------------------------------------------------------------

 -------------------------------------
 CID_136990975_JID_9792_Energie_kation
 -------------------------------------
 Structure from the checkpoint file:  "JID_9792.chk"
 Charge =  1 Multiplicity = 2

 SCF Done:  E(UB3LYP) =  -1212.26924052     A.U. after   27 cycles
 Normal termination of Gaussian 16 at Mon Dec 14 18:12:08 2020.
 Gaussian 16:  ES64L-G16RevA.03 25-Dec-2016

 ----------------------------------------------------------------------
 # B3LYP/6-311++G(d,p) empiricaldispersion=gd3bj scf=xqc pop=npa geom=c
 heck
 ----------------------------------------------------------------------

 ------------------------------------
 CID_136990975_JID_9792_Energie_anion
 ------------------------------------
 Structure from the checkpoint file:  "JID_9792.chk"
 Charge = -1 Multiplicity = 2

                         Standard orientation:
 ---------------------------------------------------------------------
 Center     Atomic      Atomic             Coordinates (Angstroms)
 Number     Number       Type             X           Y           Z
 ---------------------------------------------------------------------
      1          6           0       -1.982840    3.004419    0.554643
      2          6           0       -2.633001    1.673883    0.300623
      3          6           0       -4.017553    1.512794    0.231364
      4          6           0       -4.516933    0.228556   -0.007244
      5          7           0       -3.691050   -0.816595   -0.166794
      6          6           0       -2.385326   -0.549987   -0.080036
      7          7           0       -1.806745    0.625343    0.143872
      8         16           0       -1.367311   -2.003750   -0.313081
      9          6           0        0.279360   -1.340964   -0.144078
     10          6           0        0.802016   -0.426427   -1.073099
     11          7           0        2.037078    0.058376   -1.017265
     12          6           0        2.832961   -0.352655   -0.012015
     13          6           0        2.406377   -1.263493    0.962121
     14          6           0        1.106707   -1.761366    0.894806
     15          6           0        4.213208    0.191012    0.036264
     16          7           0        4.421378    1.368386   -0.452070
     17          8           0        5.797625    1.697454   -0.310010
     18          7           0        5.174217   -0.568014    0.690503
     19          6           0       -5.989816   -0.056960   -0.100532
     20          1           0       -2.718471    3.811186    0.611264
     21          1           0       -1.418895    2.971958    1.493526
     22          1           0       -1.263603    3.227556   -0.240274
     23          1           0       -4.685896    2.357690    0.356968
     24          1           0        0.180845   -0.080344   -1.895319
     25          1           0        3.067778   -1.542886    1.774892
     26          1           0        0.735631   -2.453092    1.644578
     27          1           0        5.833439    2.571215   -0.725479
     28          1           0        5.110223   -1.565143    0.526427
     29          1           0        6.110662   -0.203871    0.558797
     30          1           0       -6.278478   -0.789772    0.660722
     31          1           0       -6.587267    0.848721    0.033646
     32          1           0       -6.225111   -0.498202   -1.074995
 ---------------------------------------------------------------------

 SCF Done:  E(UB3LYP) =  -1212.56087877     A.U. after   33 cycles
 SCF Done:  E(UB3LYP) =  -1212.56087877     a.u. after    1 cycles

 The electronic state is 2-A.
 Alpha  occ. eigenvalues --  -88.72870 -19.04536 -14.21383 -14.21119 -14.18311
 Alpha  occ. eigenvalues --  -14.17378 -14.17040 -10.13552 -10.10782 -10.09925
 Alpha  occ. eigenvalues --  -10.09448 -10.07276 -10.07049 -10.06855 -10.06209
 Alpha  occ. eigenvalues --  -10.06191 -10.05811 -10.05704 -10.04907  -7.81452
 Alpha  occ. eigenvalues --   -5.77826  -5.77421  -5.76911  -0.96053  -0.86362
 Alpha  occ. eigenvalues --   -0.82539  -0.80157  -0.76968  -0.71186  -0.70309
 Alpha  occ. eigenvalues --   -0.67810  -0.64878  -0.63189  -0.60192  -0.59082
 Alpha  occ. eigenvalues --   -0.52504  -0.50593  -0.48554  -0.48039  -0.45042
 Alpha  occ. eigenvalues --   -0.42782  -0.40645  -0.40503  -0.37654  -0.36648
 Alpha  occ. eigenvalues --   -0.35145  -0.34072  -0.33788  -0.33571  -0.31809
 Alpha  occ. eigenvalues --   -0.31698  -0.30611  -0.30063  -0.29823  -0.28142
 Alpha  occ. eigenvalues --   -0.27845  -0.27387  -0.27145  -0.26591  -0.25017
 Alpha  occ. eigenvalues --   -0.22386  -0.21262  -0.18242  -0.18020  -0.17710
 Alpha  occ. eigenvalues --   -0.16474  -0.15944  -0.14708  -0.12715  -0.12645
 Alpha  occ. eigenvalues --   -0.11151  -0.09870   0.04088
 Alpha virt. eigenvalues --    0.06500   0.07019   0.07324   0.08443   0.08725
 Alpha virt. eigenvalues --    0.09302   0.09910   0.10149   0.10481   0.11077
 Alpha virt. eigenvalues --    0.11706   0.12033   0.12301   0.12709   0.12942

  Beta  occ. eigenvalues --  -88.72877 -19.04494 -14.21368 -14.20868 -14.18271
  Beta  occ. eigenvalues --  -14.17174 -14.16971 -10.13498 -10.10784 -10.09750
  Beta  occ. eigenvalues --  -10.09145 -10.07279 -10.06880 -10.06769 -10.06225
  Beta  occ. eigenvalues --  -10.05934 -10.05879 -10.05651 -10.04884  -7.81458
  Beta  occ. eigenvalues --   -5.77832  -5.77433  -5.76921  -0.95876  -0.86089
  Beta  occ. eigenvalues --   -0.82354  -0.79985  -0.76610  -0.70911  -0.70030
  Beta  occ. eigenvalues --   -0.67500  -0.64578  -0.62994  -0.60008  -0.59003
  Beta  occ. eigenvalues --   -0.52145  -0.50512  -0.48239  -0.47883  -0.44825
  Beta  occ. eigenvalues --   -0.42708  -0.40468  -0.40410  -0.37517  -0.36548
  Beta  occ. eigenvalues --   -0.34977  -0.33932  -0.33422  -0.33253  -0.31570
  Beta  occ. eigenvalues --   -0.31454  -0.30493  -0.29801  -0.29512  -0.27862
  Beta  occ. eigenvalues --   -0.27599  -0.27231  -0.26788  -0.26280  -0.24710
  Beta  occ. eigenvalues --   -0.22095  -0.21076  -0.17762  -0.17475  -0.16949
  Beta  occ. eigenvalues --   -0.16173  -0.15194  -0.14000  -0.12477  -0.12378
  Beta  occ. eigenvalues --   -0.10696  -0.09143
  Beta virt. eigenvalues --    0.06956   0.07232   0.08370   0.08454   0.08699
  Beta virt. eigenvalues --    0.08830   0.09736   0.09905   0.10276   0.10493
  Beta virt. eigenvalues --    0.11155   0.11678   0.12070   0.12274   0.12681

 Mulliken charges and spin densities:
               1          2
     1  C   -0.395585  -0.019285
     2  C    0.274996   0.109110
     3  C   -0.463590  -0.059714
     4  C    0.217534   0.181353
     5  N    0.073628   0.026236
     6  C   -0.901401  -0.033516
     7  N    0.158742   0.106114
     8  S   -0.143218   0.043206
     9  C    0.922071   0.173691
    10  C   -0.193551  -0.018900
    11  N    0.130266   0.032489
    12  C   -0.330305   0.145398
    13  C   -0.111975   0.033690
    14  C   -0.735339   0.056910
    15  C   -0.261524   0.027260
    16  N   -0.429091   0.117719
    17  O   -0.109524   0.006044
    18  N   -0.373279  -0.004895
    19  C   -0.492794  -0.032952
    20  H    0.116774   0.005010
    21  H    0.162737   0.003679
    22  H    0.141345   0.028130
    23  H    0.111086   0.003421
    24  H    0.184544  -0.003162
    25  H    0.157482   0.010991
    26  H    0.156025  -0.004145
    27  H    0.259580   0.008062
    28  H    0.216592  -0.005923
    29  H    0.271731   0.015273
    30  H    0.131455   0.023661
    31  H    0.121050   0.002614
    32  H    0.133538   0.022431
 Sum of Mulliken charges =  -1.00000   1.00000

 Dipole moment (field-independent basis, Debye):
    X=             -0.8759    Y=              0.8911    Z=              1.3226  Tot=              1.8195
 Quadrupole moment (field-independent basis, Debye-Ang):
   XX=           -169.7577   YY=           -129.5167   ZZ=           -129.4876
   XY=            -15.5011   XZ=             -0.1720   YZ=             -2.3956

 Summary of Natural Population Analysis:

                                       Natural Population
                Natural  -----------------------------------------------
    Atom  No    Charge         Core      Valence    Rydberg      Total
 -----------------------------------------------------------------------
      C    1   -0.30100      0.99964     2.29638    0.00498     3.30100
      C    2    0.15955      0.99956     1.82882    0.01207     2.84045
      C    3   -0.17696      0.99946     2.17023    0.00727     3.17696
      C    4    0.17420      0.99956     1.81432    0.01192     2.82580
      N    5   -0.27304      0.99963     2.76090    0.01251     3.77304
      C    6    0.16203      0.99957     1.81621    0.02219     2.83797
      N    7   -0.24646      0.99961     2.73348    0.01336     3.74646
      S    8    0.13089      4.99947     2.84886    0.02079     7.86911
      C    9   -0.06725      0.99939     2.05625    0.01162     3.06725
      C   10    0.04114      0.99952     1.94463    0.01472     2.95886
      N   11   -0.21187      0.99968     2.70154    0.01065     3.71187
      C   12    0.11942      0.99949     1.86854    0.01256     2.88058
      C   13   -0.11962      0.99954     2.11200    0.00809     3.11962
      C   14   -0.07872      0.99950     2.06871    0.01050     3.07872
      C   15    0.17346      0.99962     1.80855    0.01837     2.82654
      N   16   -0.07439      0.99962     2.55900    0.01576     3.57439
      O   17   -0.31341      0.99990     3.30623    0.00728     4.31341
      N   18   -0.41119      0.99971     2.90236    0.00912     3.91119
      C   19   -0.30077      0.99964     2.29633    0.00480     3.30077
      H   20    0.09266      0.00000     0.40653    0.00082     0.40734
      H   21    0.10932      0.00000     0.38975    0.00093     0.39068
      H   22    0.11193      0.00000     0.38711    0.00096     0.38807
      H   23    0.09662      0.00000     0.40228    0.00109     0.40338
      H   24    0.08900      0.00000     0.40960    0.00140     0.41100
      H   25    0.09972      0.00000     0.39891    0.00138     0.40028
      H   26    0.09745      0.00000     0.40127    0.00128     0.40255
      H   27    0.23133      0.00000     0.26540    0.00327     0.26867
      H   28    0.18447      0.00000     0.31386    0.00167     0.31553
      H   29    0.19320      0.00000     0.30517    0.00163     0.30680
      H   30    0.10714      0.00000     0.39191    0.00096     0.39286
      H   31    0.09371      0.00000     0.40549    0.00079     0.40629
      H   32    0.10744      0.00000     0.39161    0.00095     0.39256
 =======================================================================
   * Total *    0.00000     22.99209    48.76223    0.24568    72.00000

 Normal termination of Gaussian 16 at Mon Dec 14 18:29:33 2020.
