 Gaussian 16, Revision A.03,

 -----------------------------------------------------------
 # opt freq B3LYP/6-31G(d) empiricaldispersion=gd3bj scf=xqc
 -----------------------------------------------------------

 ------------------------------
 CID_89286504_JID_3973_neutraal
 ------------------------------
 Symbolic Z-matrix:
 Charge =  0 Multiplicity = 1

 SCF Done:  E(RB3LYP) =  -561.853613148     A.U. after   15 cycles
 SCF Done:  E(RB3LYP) =  -561.856356851     A.U. after   11 cycles
 SCF Done:  E(RB3LYP) =  -561.856469675     A.U. after   12 cycles
 SCF Done:  E(RB3LYP) =  -561.856592071     A.U. after   12 cycles
 SCF Done:  E(RB3LYP) =  -561.856636657     A.U. after   11 cycles
 SCF Done:  E(RB3LYP) =  -561.856644220     A.U. after   10 cycles
 SCF Done:  E(RB3LYP) =  -561.856648711     A.U. after   10 cycles
 SCF Done:  E(RB3LYP) =  -561.856650049     A.U. after    9 cycles
 SCF Done:  E(RB3LYP) =  -561.856650501     A.U. after    8 cycles
 SCF Done:  E(RB3LYP) =  -561.856650631     A.U. after    7 cycles
 SCF Done:  E(RB3LYP) =  -561.856650790     A.U. after    7 cycles
 SCF Done:  E(RB3LYP) =  -561.856650875     A.U. after    7 cycles
 Optimization completed.
    -- Stationary point found.
 Normal termination of Gaussian 16 at Sun Dec 13 15:58:51 2020.

 --------------------------------------------------------------------
 #N Geom=AllCheck Guess=TCheck SCRF=Check GenChk RB3LYP/6-31G(d) Freq
 --------------------------------------------------------------------

 Structure from the checkpoint file:  "JID_3973.chk"
 ------------------------------
 CID_89286504_JID_3973_neutraal
 ------------------------------
 Charge =  0 Multiplicity = 1

 SCF Done:  E(RB3LYP) =  -561.856650875     A.U. after    1 cycles

  Exact polarizability: 181.023   1.523 117.057   9.819   6.195 101.796
 Approx polarizability: 229.117  10.413 165.536  23.514  15.556 149.193

                      1                      2                      3
                      A                      A                      A
 Frequencies --     19.1134                32.8702                46.6084
 Red. masses --      3.5513                 3.5029                 3.4278
 Frc consts  --      0.0008                 0.0022                 0.0044
 IR Inten    --      0.0477                 0.2285                 0.7426

                      4                      5                      6
                      A                      A                      A
 Frequencies --     67.3662                82.1218                98.3285
 Red. masses --      2.9780                 2.3492                 3.7134
 Frc consts  --      0.0080                 0.0093                 0.0212
 IR Inten    --      0.1439                 0.2263                 0.7433

                      7                      8                      9
                      A                      A                      A
 Frequencies --    114.9108               169.7272               207.6464
 Red. masses --      2.8705                 2.3277                 2.0176
 Frc consts  --      0.0223                 0.0395                 0.0513
 IR Inten    --      1.0639                 0.9708                 0.0887

                     10                     11                     12
                      A                      A                      A
 Frequencies --    216.7111               222.1112               235.4957
 Red. masses --      1.0387                 1.3129                 2.2678
 Frc consts  --      0.0287                 0.0382                 0.0741
 IR Inten    --      0.0330                 0.7534                 1.2918

                     13                     14                     15
                      A                      A                      A
 Frequencies --    247.8480               276.2567               312.1856
 Red. masses --      1.5490                 2.2446                 2.6213
 Frc consts  --      0.0561                 0.1009                 0.1505
 IR Inten    --      0.0734                 0.5593                 1.0049

                     16                     17                     18
                      A                      A                      A
 Frequencies --    322.7197               362.8094               406.5102
 Red. masses --      2.3429                 2.6109                 2.2985
 Frc consts  --      0.1438                 0.2025                 0.2238
 IR Inten    --      0.4478                 6.6525                 3.4677

                     19                     20                     21
                      A                      A                      A
 Frequencies --    431.7931               450.3414               521.5542
 Red. masses --      2.5672                 2.4979                 2.9363
 Frc consts  --      0.2820                 0.2985                 0.4706
 IR Inten    --      2.9070                 1.3153                 3.5526

                     22                     23                     24
                      A                      A                      A
 Frequencies --    557.0377               582.2993               646.8665
 Red. masses --      2.6371                 3.4881                 1.3513
 Frc consts  --      0.4821                 0.6968                 0.3331
 IR Inten    --      1.7919                22.3005                46.0565

                     25                     26                     27
                      A                      A                      A
 Frequencies --    734.9416               754.9994               792.1527
 Red. masses --      3.2135                 2.0130                 1.2035
 Frc consts  --      1.0227                 0.6761                 0.4449
 IR Inten    --     34.4599                 3.9803                 1.8659

                     28                     29                     30
                      A                      A                      A
 Frequencies --    813.9749               819.4355               828.3370
 Red. masses --      2.3889                 1.3572                 1.8282
 Frc consts  --      0.9326                 0.5369                 0.7391
 IR Inten    --      6.9109                 3.9185                 1.9429

                     31                     32                     33
                      A                      A                      A
 Frequencies --    855.8704               895.1533               972.3476
 Red. masses --      1.5647                 2.0881                 1.3401
 Frc consts  --      0.6753                 0.9858                 0.7465
 IR Inten    --      4.7145                 1.7220                21.2030

                     34                     35                     36
                      A                      A                      A
 Frequencies --    979.1705               996.4021               998.3866
 Red. masses --      1.2581                 1.8666                 1.3585
 Frc consts  --      0.7107                 1.0919                 0.7978
 IR Inten    --     21.2850                 5.4809                 2.3237

                     37                     38                     39
                      A                      A                      A
 Frequencies --   1003.4358              1017.9499              1060.0500
 Red. masses --      1.7619                 1.7784                 2.8101
 Frc consts  --      1.0452                 1.0857                 1.8605
 IR Inten    --      2.6291                 7.7642                 0.1095

                     40                     41                     42
                      A                      A                      A
 Frequencies --   1088.8687              1095.6214              1109.5754
 Red. masses --      1.9962                 1.8160                 1.6522
 Frc consts  --      1.3945                 1.2843                 1.1985
 IR Inten    --     36.6973                 4.3678                31.4781

                     43                     44                     45
                      A                      A                      A
 Frequencies --   1147.8209              1160.8214              1187.9705
 Red. masses --      1.8201                 2.0136                 1.7826
 Frc consts  --      1.4128                 1.5987                 1.4822
 IR Inten    --      0.5689                 5.0112                 6.5656

                     46                     47                     48
                      A                      A                      A
 Frequencies --   1222.6926              1253.7488              1272.6822
 Red. masses --      1.9139                 1.6714                 1.4971
 Frc consts  --      1.6858                 1.5480                 1.4287
 IR Inten    --      9.5177                20.0192               145.2908

                     49                     50                     51
                      A                      A                      A
 Frequencies --   1277.0221              1313.9371              1322.6525
 Red. masses --      1.4192                 1.2804                 1.2450
 Frc consts  --      1.3636                 1.3024                 1.2833
 IR Inten    --      5.7079                 1.3619                 3.4948

                     52                     53                     54
                      A                      A                      A
 Frequencies --   1343.3005              1353.8238              1362.5557
 Red. masses --      1.4104                 1.2541                 1.2647
 Frc consts  --      1.4994                 1.3543                 1.3834
 IR Inten    --     58.6234                 8.3525                 4.0710

                     55                     56                     57
                      A                      A                      A
 Frequencies --   1369.6311              1383.9292              1393.1335
 Red. masses --      1.2149                 1.6042                 1.8346
 Frc consts  --      1.3428                 1.8102                 2.0979
 IR Inten    --      1.1405               128.8634                93.8497

                     58                     59                     60
                      A                      A                      A
 Frequencies --   1410.8237              1415.8808              1439.0844
 Red. masses --      1.4827                 1.4774                 1.2784
 Frc consts  --      1.7388                 1.7451                 1.5599
 IR Inten    --      1.4594                 4.5947                 4.7463

                     61                     62                     63
                      A                      A                      A
 Frequencies --   1440.7487              1443.7512              1493.9605
 Red. masses --      1.2309                 1.2196                 1.7404
 Frc consts  --      1.5054                 1.4978                 2.2886
 IR Inten    --     12.9270                 2.2172                62.4152

                     64                     65                     66
                      A                      A                      A
 Frequencies --   1511.1742              1514.5249              1521.3093
 Red. masses --      1.0853                 1.0828                 1.0719
 Frc consts  --      1.4603                 1.4634                 1.4616
 IR Inten    --      1.9380                 0.6614                 9.6638

                     67                     68                     69
                      A                      A                      A
 Frequencies --   1523.9802              1528.0054              1530.2652
 Red. masses --      1.1191                 1.0581                 1.0472
 Frc consts  --      1.5314                 1.4556                 1.4448
 IR Inten    --      8.5405                 4.2732                 3.2509

                     70                     71                     72
                      A                      A                      A
 Frequencies --   1531.1986              1536.2757              1540.3095
 Red. masses --      1.0589                 1.0636                 1.0799
 Frc consts  --      1.4628                 1.4791                 1.5095
 IR Inten    --      2.4849                 7.7014                15.6606

                     73                     74                     75
                      A                      A                      A
 Frequencies --   1545.1434              1756.2179              1793.1321
 Red. masses --      1.0496                 5.4454                 7.8899
 Frc consts  --      1.4764                 9.8954                14.9467
 IR Inten    --      1.6059                92.0952               524.6619

                     76                     77                     78
                      A                      A                      A
 Frequencies --   3009.7354              3019.4239              3026.0775
 Red. masses --      1.0794                 1.0624                 1.0641
 Frc consts  --      5.7608                 5.7068                 5.7412
 IR Inten    --      3.3939                23.6530                20.9251

                     79                     80                     81
                      A                      A                      A
 Frequencies --   3034.0149              3041.9898              3046.3778
 Red. masses --      1.0633                 1.0402                 1.0387
 Frc consts  --      5.7667                 5.6715                 5.6794
 IR Inten    --     38.4973                44.0404                32.7725

                     82                     83                     84
                      A                      A                      A
 Frequencies --   3059.1871              3059.4736              3067.9195
 Red. masses --      1.0358                 1.0965                 1.0888
 Frc consts  --      5.7113                 6.0474                 6.0377
 IR Inten    --     20.3323                27.8522                33.7314

                     85                     86                     87
                      A                      A                      A
 Frequencies --   3067.9762              3075.5399              3103.7597
 Red. masses --      1.0746                 1.1016                 1.1000
 Frc consts  --      5.9591                 6.1391                 6.2435
 IR Inten    --     25.7345                45.3698                38.0332

                     88                     89                     90
                      A                      A                      A
 Frequencies --   3108.5081              3118.5475              3120.3876
 Red. masses --      1.1009                 1.1019                 1.1007
 Frc consts  --      6.2677                 6.3139                 6.3143
 IR Inten    --     56.0159                44.6605                 5.6807

                     91                     92                     93
                      A                      A                      A
 Frequencies --   3127.9177              3132.4530              3141.5489
 Red. masses --      1.0999                 1.1018                 1.1017
 Frc consts  --      6.3403                 6.3698                 6.4060
 IR Inten    --     40.7442                25.0899                35.4519

                     94                     95                     96
                      A                      A                      A
 Frequencies --   3152.3741              3227.0092              3576.5553
 Red. masses --      1.0887                 1.0891                 1.0754
 Frc consts  --      6.3741                 6.6822                 8.1052
 IR Inten    --     20.3949                 8.7189                15.1673

 - Thermochemistry -
 -------------------
 Temperature   298.150 Kelvin.  Pressure   1.00000 Atm.
 Atom     1 has atomic number  6 and mass  12.00000

 Molecular mass:   183.16231 amu.
 Principal axes and moments of inertia in atomic units:
                           1         2         3
     Eigenvalues --  1238.891537101.894857493.53568
           X            0.99982  -0.01837  -0.00520
           Y            0.01824   0.99955  -0.02379
           Z            0.00563   0.02369   0.99970
 This molecule is an asymmetric top.
 Rotational symmetry number  1.
 Warning -- assumption of classical behavior for rotation
           may cause significant error
 Rotational temperatures (Kelvin)      0.06991     0.01220     0.01156
 Rotational constants (GHZ):           1.45674     0.25412     0.24084
 Zero-point vibrational energy     811105.1 (Joules/Mol)
                                  193.85878 (Kcal/Mol)
 Warning -- explicit consideration of  23 degrees of freedom as
           vibrations may cause significant error
 Vibrational temperatures:     27.50    47.29    67.06    96.92   118.16
          (Kelvin)            141.47   165.33   244.20   298.76   311.80
                              319.57   338.83   356.60   397.47   449.17
                              464.32   522.00   584.88   621.25   647.94
                              750.40   801.45   837.80   930.70  1057.42
                             1086.28  1139.73  1171.13  1178.98  1191.79
                             1231.41  1287.93  1398.99  1408.81  1433.60
                             1436.46  1443.72  1464.60  1525.18  1566.64
                             1576.35  1596.43  1651.46  1670.16  1709.22
                             1759.18  1803.86  1831.11  1837.35  1890.46
                             1903.00  1932.71  1947.85  1960.41  1970.59
                             1991.17  2004.41  2029.86  2037.14  2070.52
                             2072.92  2077.24  2149.48  2174.24  2179.06
                             2188.82  2192.67  2198.46  2201.71  2203.05
                             2210.36  2216.16  2223.12  2526.81  2579.92
                             4330.34  4344.28  4353.85  4365.27  4376.74
                             4383.06  4401.49  4401.90  4414.05  4414.13
                             4425.02  4465.62  4472.45  4486.89  4489.54
                             4500.38  4506.90  4519.99  4535.56  4642.95
                             5145.87

 Zero-point correction=                           0.308934 (Hartree/Particle)
 Thermal correction to Energy=                    0.324960
 Thermal correction to Enthalpy=                  0.325905
 Thermal correction to Gibbs Free Energy=         0.263590
 Sum of electronic and zero-point Energies=           -561.547717
 Sum of electronic and thermal Energies=              -561.531691
 Sum of electronic and thermal Enthalpies=            -561.530746
 Sum of electronic and thermal Free Energies=         -561.593061

                     E (Thermal)             CV                S
                      KCal/Mol        Cal/Mol-Kelvin    Cal/Mol-Kelvin
 Total                  203.916             57.897            131.152
 Electronic               0.000              0.000              0.000
 Translational            0.889              2.981             41.522
 Rotational               0.889              2.981             32.555
 Vibrational            202.138             51.935             57.075
 Vibration     1          0.593              1.986              6.724
 Vibration     2          0.594              1.983              5.648
 Vibration     3          0.595              1.979              4.956
 Vibration     4          0.598              1.970              4.229
 Vibration     5          0.600              1.961              3.840
 Vibration     6          0.604              1.950              3.487
 Vibration     7          0.608              1.937              3.184
 Vibration     8          0.625              1.880              2.439
 Vibration     9          0.641              1.829              2.064
 Vibration    10          0.646              1.816              1.986
 Vibration    11          0.648              1.807              1.942
 Vibration    12          0.655              1.786              1.837
 Vibration    13          0.661              1.766              1.746
 Vibration    14          0.678              1.717              1.557
 Vibration    15          0.701              1.650              1.351
 Vibration    16          0.708              1.630              1.296
 Vibration    17          0.737              1.549              1.110
 Vibration    18          0.771              1.456              0.939
 Vibration    19          0.793              1.401              0.853
 Vibration    20          0.809              1.360              0.795
 Vibration    21          0.877              1.202              0.606
 Vibration    22          0.913              1.124              0.530
 Vibration    23          0.939              1.070              0.481

                           ! Non-Optimized Parameters !
 Normal termination of Gaussian 16 at Sun Dec 13 16:06:21 2020.

 ----------------------------------------------------------------------
 # B3LYP/6-311++G(d,p) empiricaldispersion=gd3bj scf=xqc pop=npa geom=c
 heck
 ----------------------------------------------------------------------

 --------------------------------------
 CID_89286504_JID_3973_Energie_neutraal
 --------------------------------------
 Structure from the checkpoint file:  "JID_3973.chk"
 Charge =  0 Multiplicity = 1

 SCF Done:  E(RB3LYP) =  -562.022371209     A.U. after   14 cycles
 Normal termination of Gaussian 16 at Sun Dec 13 16:10:23 2020.

 ----------------------------------------------------------------------
 # B3LYP/6-311++G(d,p) empiricaldispersion=gd3bj scf=xqc pop=npa geom=c
 heck
 ----------------------------------------------------------------------

 ------------------------------------
 CID_89286504_JID_3973_Energie_kation
 ------------------------------------
 Structure from the checkpoint file:  "JID_3973.chk"
 Charge =  1 Multiplicity = 2

 SCF Done:  E(UB3LYP) =  -561.724481811     A.U. after   21 cycles
 Normal termination of Gaussian 16 at Sun Dec 13 16:19:00 2020.
 Gaussian 16:  ES64L-G16RevA.03 25-Dec-2016

 ----------------------------------------------------------------------
 # B3LYP/6-311++G(d,p) empiricaldispersion=gd3bj scf=xqc pop=npa geom=c
 heck
 ----------------------------------------------------------------------

 -----------------------------------
 CID_89286504_JID_3973_Energie_anion
 -----------------------------------
 Structure from the checkpoint file:  "JID_3973.chk"
 Charge = -1 Multiplicity = 2

                         Standard orientation:
 ---------------------------------------------------------------------
 Center     Atomic      Atomic             Coordinates (Angstroms)
 Number     Number       Type             X           Y           Z
 ---------------------------------------------------------------------
      1          6           0       -4.503552    1.611073    0.392454
      2          6           0       -3.694139    0.604816   -0.431293
      3          6           0       -2.833679   -0.358856    0.405244
      4          6           0       -3.682695   -1.195769    1.371458
      5          6           0       -1.989740   -1.294460   -0.479925
      6          6           0       -1.018795   -0.606034   -1.462762
      7          6           0       -0.062628    0.347325   -0.803502
      8          6           0        1.247117    0.105554   -0.670727
      9          7           0        2.154204    0.964412   -0.047813
     10          6           0        3.506951    0.795699    0.176970
     11          8           0        4.142615    1.663260    0.759780
     12          6           0        4.140328   -0.510788   -0.275892
     13          6           0        3.867577   -1.647156    0.724289
     14          1           0       -5.266121    1.119908    1.005378
     15          1           0       -5.016257    2.327860   -0.258482
     16          1           0       -3.851949    2.181021    1.066708
     17          1           0       -4.373253    0.015030   -1.064802
     18          1           0       -3.046180    1.162249   -1.119232
     19          1           0       -2.142162    0.248316    1.008888
     20          1           0       -4.430950   -1.783077    0.823081
     21          1           0       -3.056165   -1.897777    1.933637
     22          1           0       -4.213644   -0.572389    2.097549
     23          1           0       -1.402595   -1.952110    0.174799
     24          1           0       -2.665554   -1.946059   -1.053211
     25          1           0       -0.451380   -1.384399   -1.988886
     26          1           0       -1.594019   -0.077313   -2.234609
     27          1           0       -0.474079    1.272144   -0.399270
     28          1           0        1.682924   -0.806724   -1.062457
     29          1           0        1.797943    1.838515    0.323655
     30          1           0        3.798531   -0.792066   -1.278605
     31          1           0        5.213558   -0.315778   -0.335648
     32          1           0        2.799087   -1.875428    0.798654
     33          1           0        4.389481   -2.560076    0.420088
     34          1           0        4.221976   -1.367230    1.721336
 ---------------------------------------------------------------------

 SCF Done:  E(UB3LYP) =  -562.010983421     A.U. after   33 cycles
 SCF Done:  E(UB3LYP) =  -562.010983421     a.u. after    1 cycles

 The electronic state is 2-A.
 Alpha  occ. eigenvalues --  -18.99683 -14.25873 -10.17987 -10.11626 -10.08616
 Alpha  occ. eigenvalues --  -10.07875 -10.07680 -10.07479 -10.07366 -10.07306
 Alpha  occ. eigenvalues --  -10.06957 -10.06921 -10.06516  -0.94979  -0.84527
 Alpha  occ. eigenvalues --   -0.73044  -0.69607  -0.68505  -0.64707  -0.62007
 Alpha  occ. eigenvalues --   -0.56519  -0.55618  -0.53384  -0.49777  -0.48774
 Alpha  occ. eigenvalues --   -0.45534  -0.42018  -0.39449  -0.37761  -0.35727
 Alpha  occ. eigenvalues --   -0.35301  -0.35041  -0.34315  -0.33616  -0.32594
 Alpha  occ. eigenvalues --   -0.31756  -0.30910  -0.29419  -0.28520  -0.27955
 Alpha  occ. eigenvalues --   -0.27436  -0.27079  -0.26631  -0.26334  -0.25425
 Alpha  occ. eigenvalues --   -0.23704  -0.22796  -0.22216  -0.22040  -0.16747
 Alpha  occ. eigenvalues --   -0.12772   0.04102
 Alpha virt. eigenvalues --    0.05571   0.06988   0.07120   0.07816   0.08009
 Alpha virt. eigenvalues --    0.08499   0.08721   0.09791   0.10142   0.10237
 Alpha virt. eigenvalues --    0.10555   0.10946   0.11829   0.12141   0.12570

  Beta  occ. eigenvalues --  -18.99623 -14.25885 -10.17930 -10.11591 -10.08603
  Beta  occ. eigenvalues --  -10.07868 -10.07668 -10.07440 -10.07343 -10.07290
  Beta  occ. eigenvalues --  -10.06932 -10.06903 -10.06493  -0.94875  -0.84494
  Beta  occ. eigenvalues --   -0.73014  -0.69549  -0.68452  -0.64667  -0.61960
  Beta  occ. eigenvalues --   -0.56430  -0.55557  -0.53317  -0.49723  -0.48715
  Beta  occ. eigenvalues --   -0.45480  -0.41970  -0.39370  -0.37726  -0.35684
  Beta  occ. eigenvalues --   -0.35200  -0.35010  -0.34231  -0.33556  -0.32523
  Beta  occ. eigenvalues --   -0.31717  -0.30859  -0.29388  -0.28453  -0.27909
  Beta  occ. eigenvalues --   -0.27391  -0.27033  -0.26588  -0.26286  -0.25392
  Beta  occ. eigenvalues --   -0.23553  -0.22727  -0.22159  -0.22009  -0.16689
  Beta  occ. eigenvalues --   -0.12644
  Beta virt. eigenvalues --    0.06013   0.06700   0.07369   0.07509   0.08114
  Beta virt. eigenvalues --    0.08436   0.08939   0.09200   0.10048   0.10428
  Beta virt. eigenvalues --    0.10484   0.10773   0.11207   0.12033   0.12423

 Mulliken charges and spin densities:
               1          2
     1  C    0.935456  -1.627081
     2  C   -0.895295   0.741090
     3  C   -0.199030   0.556493
     4  C    0.458661  -1.156243
     5  C    0.396271  -0.752745
     6  C   -0.739535   0.397682
     7  C    0.257455   0.131365
     8  C    0.325073  -1.125661
     9  N   -0.099369   0.036310
    10  C    0.248882  -0.205704
    11  O   -0.368026   0.019842
    12  C   -0.280047   0.136742
    13  C    0.586860  -1.008177
    14  H   -0.058596   0.194627
    15  H   -0.221158   0.360188
    16  H   -0.081257   0.217181
    17  H   -0.294786   0.455180
    18  H    0.153435  -0.011420
    19  H    0.138314  -0.003781
    20  H   -0.067811   0.209724
    21  H   -0.078492   0.216901
    22  H   -0.071585   0.201048
    23  H   -0.037137   0.148951
    24  H    0.081543   0.047190
    25  H   -0.763144   0.968710
    26  H   -0.010817   0.146717
    27  H   -0.011343   0.170556
    28  H    0.420461  -0.266481
    29  H    0.293970  -0.010724
    30  H   -0.393623   0.545266
    31  H   -0.039846   0.255466
    32  H   -0.171800   0.310511
    33  H   -0.455218   0.605831
    34  H    0.041535   0.094446
 Sum of Mulliken charges =  -1.00000   1.00000

 Dipole moment (field-independent basis, Debye):
    X=             -1.6181    Y=              2.7176    Z=              0.9164  Tot=              3.2930
 Quadrupole moment (field-independent basis, Debye-Ang):
   XX=           -193.5267   YY=           -129.7094   ZZ=           -118.1042
   XY=              6.7774   XZ=              0.2750   YZ=             -5.8730

 Summary of Natural Population Analysis:

                                       Natural Population
                Natural  -----------------------------------------------
    Atom  No    Charge         Core      Valence    Rydberg      Total
 -----------------------------------------------------------------------
      C    1   -0.28346      0.99967     2.27950    0.00429     3.28346
      C    2   -0.19070      0.99962     2.18211    0.00897     3.19070
      C    3   -0.11388      0.99960     2.10538    0.00890     3.11388
      C    4   -0.28340      0.99965     2.27869    0.00506     3.28340
      C    5   -0.18195      0.99961     2.17270    0.00965     3.18195
      C    6   -0.20216      0.99962     2.19265    0.00989     3.20216
      C    7   -0.11653      0.99954     2.10803    0.00896     3.11653
      C    8    0.00455      0.99947     1.98462    0.01136     2.99545
      N    9   -0.30853      0.99965     2.80042    0.00846     3.80853
      C   10    0.35143      0.99968     1.62589    0.02300     2.64857
      O   11   -0.31700      0.99988     3.31145    0.00567     4.31700
      C   12   -0.23625      0.99960     2.22796    0.00868     3.23625
      C   13   -0.28308      0.99966     2.27796    0.00546     3.28308
      H   14    0.09638      0.00000     0.40236    0.00126     0.40362
      H   15    0.09839      0.00000     0.40052    0.00110     0.40161
      H   16    0.09439      0.00000     0.40445    0.00115     0.40561
      H   17    0.09401      0.00000     0.40480    0.00119     0.40599
      H   18    0.09526      0.00000     0.40334    0.00140     0.40474
      H   19    0.09224      0.00000     0.40592    0.00185     0.40776
      H   20    0.09609      0.00000     0.40279    0.00112     0.40391
      H   21    0.09978      0.00000     0.39916    0.00106     0.40022
      H   22    0.09834      0.00000     0.40064    0.00102     0.40166
      H   23    0.09764      0.00000     0.40106    0.00130     0.40236
      H   24    0.09549      0.00000     0.40319    0.00133     0.40451
      H   25    0.10324      0.00000     0.39535    0.00141     0.39676
      H   26    0.09827      0.00000     0.40031    0.00142     0.40173
      H   27    0.09047      0.00000     0.40816    0.00138     0.40953
      H   28    0.09877      0.00000     0.39946    0.00177     0.40123
      H   29    0.19341      0.00000     0.30382    0.00277     0.30659
      H   30    0.10578      0.00000     0.39211    0.00211     0.39422
      H   31    0.11019      0.00000     0.38875    0.00105     0.38981
      H   32    0.09977      0.00000     0.39893    0.00130     0.40023
      H   33    0.10403      0.00000     0.39401    0.00196     0.39597
      H   34    0.09901      0.00000     0.40002    0.00096     0.40099
 =======================================================================
   * Total *    0.00000     12.99524    37.85653    0.14823    51.00000

 Normal termination of Gaussian 16 at Sun Dec 13 16:32:23 2020.
