 Gaussian 16, Revision A.03,

 -----------------------------------------------------------
 # opt freq B3LYP/6-31G(d) empiricaldispersion=gd3bj scf=xqc
 -----------------------------------------------------------

 ------------------------------
 CID_130482156_JID_265_neutraal
 ------------------------------
 Symbolic Z-matrix:
 Charge =  0 Multiplicity = 1

 SCF Done:  E(RB3LYP) =  -474.708059701     A.U. after   14 cycles
 SCF Done:  E(RB3LYP) =  -474.710383111     A.U. after   12 cycles
 SCF Done:  E(RB3LYP) =  -474.710788863     A.U. after   11 cycles
 SCF Done:  E(RB3LYP) =  -474.710825077     A.U. after   10 cycles
 SCF Done:  E(RB3LYP) =  -474.710847649     A.U. after    9 cycles
 SCF Done:  E(RB3LYP) =  -474.710853879     A.U. after    8 cycles
 SCF Done:  E(RB3LYP) =  -474.710858553     A.U. after    9 cycles
 SCF Done:  E(RB3LYP) =  -474.710860652     A.U. after    9 cycles
 SCF Done:  E(RB3LYP) =  -474.710864672     A.U. after    9 cycles
 SCF Done:  E(RB3LYP) =  -474.710866924     A.U. after    9 cycles
 SCF Done:  E(RB3LYP) =  -474.710867094     A.U. after    7 cycles
 Optimization completed.
    -- Stationary point found.
 Normal termination of Gaussian 16 at Tue Dec  8 10:21:08 2020.

 --------------------------------------------------------------------
 #N Geom=AllCheck Guess=TCheck SCRF=Check GenChk RB3LYP/6-31G(d) Freq
 --------------------------------------------------------------------

 Structure from the checkpoint file:  "JID_265.chk"
 ------------------------------
 CID_130482156_JID_265_neutraal
 ------------------------------
 Charge =  0 Multiplicity = 1

 SCF Done:  E(RB3LYP) =  -474.710867094     A.U. after    1 cycles

  Exact polarizability: 108.844  -0.721  80.362   2.072   0.358  59.357
 Approx polarizability: 145.727  -4.027 130.671   2.322  -0.528  82.573

                      1                      2                      3
                      A                      A                      A
 Frequencies --     42.5780                72.1623                96.8596
 Red. masses --      4.1639                 3.4485                 3.3938
 Frc consts  --      0.0044                 0.0106                 0.0188
 IR Inten    --      2.7163                 0.2328                 1.0724

                      4                      5                      6
                      A                      A                      A
 Frequencies --    162.2846               203.2154               245.8088
 Red. masses --      3.3245                 3.1688                 1.0439
 Frc consts  --      0.0516                 0.0771                 0.0372
 IR Inten    --      1.0749                 1.4615                 0.2933

                      7                      8                      9
                      A                      A                      A
 Frequencies --    258.7318               299.3557               348.4810
 Red. masses --      1.1555                 2.6276                 2.5770
 Frc consts  --      0.0456                 0.1387                 0.1844
 IR Inten    --      0.4635                 1.0826                 0.6326

                     10                     11                     12
                      A                      A                      A
 Frequencies --    425.7624               442.2975               473.9879
 Red. masses --      1.8320                 1.6627                 3.7014
 Frc consts  --      0.1957                 0.1916                 0.4900
 IR Inten    --     64.2787                88.9682                 5.3937

                     13                     14                     15
                      A                      A                      A
 Frequencies --    489.4364               622.2310               653.7220
 Red. masses --      3.5862                 4.0686                 3.7145
 Frc consts  --      0.5062                 0.9281                 0.9353
 IR Inten    --      4.4237                10.8536                17.8567

                     16                     17                     18
                      A                      A                      A
 Frequencies --    689.9552               709.7958               761.5587
 Red. masses --      2.9646                 1.4856                 4.6687
 Frc consts  --      0.8315                 0.4410                 1.5953
 IR Inten    --      3.7867                17.2537                 4.1999

                     19                     20                     21
                      A                      A                      A
 Frequencies --    822.2054               944.1442               984.9377
 Red. masses --      1.3503                 3.4080                 4.1021
 Frc consts  --      0.5378                 1.7899                 2.3446
 IR Inten    --     13.3018                21.3228                46.0009

                     22                     23                     24
                      A                      A                      A
 Frequencies --   1025.5512              1048.3998              1058.3638
 Red. masses --      1.7629                 1.6939                 4.5402
 Frc consts  --      1.0924                 1.0970                 2.9964
 IR Inten    --      1.3073                13.0208                41.3530

                     25                     26                     27
                      A                      A                      A
 Frequencies --   1078.1689              1130.7705              1147.3938
 Red. masses --      4.5483                 1.2309                 1.5666
 Frc consts  --      3.1151                 0.9273                 1.2152
 IR Inten    --     84.2074                 5.3639                14.8468

                     28                     29                     30
                      A                      A                      A
 Frequencies --   1197.6053              1216.7369              1244.9576
 Red. masses --      1.4834                 1.2829                 1.3457
 Frc consts  --      1.2536                 1.1190                 1.2289
 IR Inten    --      3.8694                10.0234                15.5002

                     31                     32                     33
                      A                      A                      A
 Frequencies --   1260.9940              1272.4813              1316.7639
 Red. masses --      3.2787                 2.0363                 3.7331
 Frc consts  --      3.0717                 1.9427                 3.8136
 IR Inten    --      5.9092                 7.6844                10.0620

                     34                     35                     36
                      A                      A                      A
 Frequencies --   1351.3959              1389.0920              1426.6777
 Red. masses --      1.9955                 2.2859                 3.9952
 Frc consts  --      2.1472                 2.5988                 4.7911
 IR Inten    --      0.9099                 3.8217                20.8060

                     37                     38                     39
                      A                      A                      A
 Frequencies --   1462.0959              1468.0049              1489.2755
 Red. masses --      1.1557                 1.3952                 1.2037
 Frc consts  --      1.4556                 1.7715                 1.5730
 IR Inten    --      0.0092               148.9876                 3.5629

                     40                     41                     42
                      A                      A                      A
 Frequencies --   1508.6755              1523.5220              1525.9552
 Red. masses --      1.0498                 1.0471                 1.0935
 Frc consts  --      1.4078                 1.4320                 1.5002
 IR Inten    --     10.2869                 3.3507                24.2902

                     43                     44                     45
                      A                      A                      A
 Frequencies --   1530.7965              1538.3224              1541.4071
 Red. masses --      3.8765                 1.0615                 1.0983
 Frc consts  --      5.3521                 1.4800                 1.5374
 IR Inten    --     38.5515                 3.5025                 1.5185

                     46                     47                     48
                      A                      A                      A
 Frequencies --   1614.1356              2970.3279              2992.6500
 Red. masses --      6.1330                 1.0737                 1.0544
 Frc consts  --      9.4147                 5.5814                 5.5638
 IR Inten    --      4.1866                81.0597                27.6624

                     49                     50                     51
                      A                      A                      A
 Frequencies --   2998.3134              3085.9390              3107.1419
 Red. masses --      1.0554                 1.0894                 1.0801
 Frc consts  --      5.5903                 6.1126                 6.1438
 IR Inten    --     74.1038                37.6387                 8.4646

                     52                     53                     54
                      A                      A                      A
 Frequencies --   3110.5684              3157.2433              3159.7714
 Red. masses --      1.0783                 1.1040                 1.1049
 Frc consts  --      6.1472                 6.4840                 6.4994
 IR Inten    --     44.4638                10.2604                23.5378

                     55                     56                     57
                      A                      A                      A
 Frequencies --   3280.4035              3295.2439              3686.7424
 Red. masses --      1.0972                 1.0982                 1.0655
 Frc consts  --      6.9567                 7.0259                 8.5327
 IR Inten    --      0.5581                 0.0758                38.8207

 - Thermochemistry -
 -------------------
 Temperature   298.150 Kelvin.  Pressure   1.00000 Atm.
 Atom     1 has atomic number  6 and mass  12.00000

 Molecular mass:   141.09021 amu.
 Principal axes and moments of inertia in atomic units:
                           1         2         3
     Eigenvalues --   507.413072621.272012706.73410
           X            0.99997  -0.00500   0.00570
           Y            0.00474   0.99900   0.04440
           Z           -0.00592  -0.04438   0.99900
 This molecule is an asymmetric top.
 Rotational symmetry number  1.
 Warning -- assumption of classical behavior for rotation
           may cause significant error
 Rotational temperatures (Kelvin)      0.17070     0.03304     0.03200
 Rotational constants (GHZ):           3.55675     0.68850     0.66676
 Zero-point vibrational energy     466312.7 (Joules/Mol)
                                  111.45142 (Kcal/Mol)
 Warning -- explicit consideration of  13 degrees of freedom as
           vibrations may cause significant error
 Vibrational temperatures:     61.26   103.83   139.36   233.49   292.38
          (Kelvin)            353.66   372.26   430.71   501.39   612.58
                              636.37   681.96   704.19   895.25   940.56
                              992.69  1021.24  1095.71  1182.97  1358.41
                             1417.11  1475.54  1508.41  1522.75  1551.24
                             1626.93  1650.84  1723.09  1750.61  1791.22
                             1814.29  1830.82  1894.53  1944.36  1998.59
                             2052.67  2103.63  2112.13  2142.74  2170.65
                             2192.01  2195.51  2202.47  2213.30  2217.74
                             2322.38  4273.64  4305.76  4313.90  4439.98
                             4470.48  4475.41  4542.57  4546.21  4719.77
                             4741.12  5304.40

 Zero-point correction=                           0.177609 (Hartree/Particle)
 Thermal correction to Energy=                    0.187851
 Thermal correction to Enthalpy=                  0.188795
 Thermal correction to Gibbs Free Energy=         0.141411
 Sum of electronic and zero-point Energies=           -474.533258
 Sum of electronic and thermal Energies=              -474.523016
 Sum of electronic and thermal Enthalpies=            -474.522072
 Sum of electronic and thermal Free Energies=         -474.569456

                     E (Thermal)             CV                S
                      KCal/Mol        Cal/Mol-Kelvin    Cal/Mol-Kelvin
 Total                  117.878             37.337             99.729
 Electronic               0.000              0.000              0.000
 Translational            0.889              2.981             40.744
 Rotational               0.889              2.981             29.666
 Vibrational            116.101             31.375             29.318
 Vibration     1          0.595              1.980              5.135
 Vibration     2          0.598              1.967              4.093
 Vibration     3          0.603              1.951              3.517
 Vibration     4          0.622              1.889              2.523
 Vibration     5          0.639              1.835              2.104
 Vibration     6          0.660              1.770              1.760
 Vibration     7          0.668              1.748              1.670
 Vibration     8          0.692              1.675              1.421
 Vibration     9          0.726              1.578              1.173
 Vibration    10          0.788              1.414              0.873
 Vibration    11          0.802              1.378              0.819
 Vibration    12          0.831              1.308              0.726
 Vibration    13          0.845              1.273              0.685

 Optimization completed.
    -- Stationary point found.
 Normal termination of Gaussian 16 at Tue Dec  8 10:24:40 2020.

 ----------------------------------------------------------------------
 # B3LYP/6-311++G(d,p) empiricaldispersion=gd3bj scf=xqc pop=npa geom=c
 heck
 ----------------------------------------------------------------------

 --------------------------------------
 CID_130482156_JID_265_Energie_neutraal
 --------------------------------------
 Structure from the checkpoint file:  "JID_265.chk"
 Charge =  0 Multiplicity = 1

 SCF Done:  E(RB3LYP) =  -474.854404272     A.U. after   14 cycles
 Normal termination of Gaussian 16 at Tue Dec  8 10:25:53 2020.

 ----------------------------------------------------------------------
 # B3LYP/6-311++G(d,p) empiricaldispersion=gd3bj scf=xqc pop=npa geom=c
 heck
 ----------------------------------------------------------------------

 ------------------------------------
 CID_130482156_JID_265_Energie_kation
 ------------------------------------
 Structure from the checkpoint file:  "JID_265.chk"
 Charge =  1 Multiplicity = 2

 SCF Done:  E(UB3LYP) =  -474.539356733     A.U. after   25 cycles
 Normal termination of Gaussian 16 at Tue Dec  8 10:29:38 2020.
 Gaussian 16:  ES64L-G16RevA.03 25-Dec-2016

 ----------------------------------------------------------------------
 # B3LYP/6-311++G(d,p) empiricaldispersion=gd3bj scf=xqc pop=npa geom=c
 heck
 ----------------------------------------------------------------------

 -----------------------------------
 CID_130482156_JID_265_Energie_anion
 -----------------------------------
 Structure from the checkpoint file:  "JID_265.chk"
 Charge = -1 Multiplicity = 2

                         Standard orientation:
 ---------------------------------------------------------------------
 Center     Atomic      Atomic             Coordinates (Angstroms)
 Number     Number       Type             X           Y           Z
 ---------------------------------------------------------------------
      1          6           0        2.802714   -0.401433   -1.094639
      2          7           0        2.193866    0.259851    0.059358
      3          6           0        2.613446   -0.316009    1.337319
      4          7           0        0.794868    0.277793   -0.050505
      5          6           0       -0.092986   -0.792643   -0.076428
      6          6           0       -1.335321   -0.221270   -0.178781
      7          7           0       -1.229494    1.158062   -0.209244
      8          6           0        0.057300    1.422010   -0.127050
      9          6           0       -2.705334   -0.829824   -0.267030
     10          8           0       -3.642025   -0.086549    0.495854
     11          1           0        3.886975   -0.272611   -1.029628
     12          1           0        2.444044    0.077534   -2.008340
     13          1           0        2.580287   -1.480470   -1.144753
     14          1           0        2.118330    0.222060    2.148567
     15          1           0        2.381851   -1.390461    1.426669
     16          1           0        3.695051   -0.183875    1.432957
     17          1           0        0.238393   -1.817445   -0.017154
     18          1           0        0.528482    2.394523   -0.114152
     19          1           0       -3.019663   -0.879002   -1.324248
     20          1           0       -2.698878   -1.855831    0.116813
     21          1           0       -3.372256    0.843033    0.388829
 ---------------------------------------------------------------------

 SCF Done:  E(UB3LYP) =  -474.843109767     A.U. after   28 cycles

 The electronic state is 2-A.
 Alpha  occ. eigenvalues --  -19.02324 -14.29556 -14.25616 -14.20374 -10.12957
 Alpha  occ. eigenvalues --  -10.12550 -10.10035 -10.09639 -10.08974 -10.08825
 Alpha  occ. eigenvalues --   -0.95178  -0.92734  -0.85338  -0.73513  -0.66797
 Alpha  occ. eigenvalues --   -0.61634  -0.59827  -0.55611  -0.49072  -0.47717
 Alpha  occ. eigenvalues --   -0.44289  -0.39950  -0.38581  -0.37154  -0.35756
 Alpha  occ. eigenvalues --   -0.34629  -0.34079  -0.31646  -0.31288  -0.29895
 Alpha  occ. eigenvalues --   -0.29277  -0.27585  -0.25308  -0.19495  -0.18252
 Alpha  occ. eigenvalues --   -0.18064  -0.14838  -0.13655   0.04588
 Alpha virt. eigenvalues --    0.07650   0.08079   0.08315   0.09421   0.10068
 Alpha virt. eigenvalues --    0.10522   0.10650   0.11262   0.12128   0.13181
 Alpha virt. eigenvalues --    0.13441   0.14117   0.14954   0.15454   0.16832

  Beta  occ. eigenvalues --  -19.02323 -14.29557 -14.25604 -14.20371 -10.12953
  Beta  occ. eigenvalues --  -10.12541 -10.10004 -10.09640 -10.08912 -10.08759
  Beta  occ. eigenvalues --   -0.95166  -0.92730  -0.85320  -0.73490  -0.66777
  Beta  occ. eigenvalues --   -0.61541  -0.59793  -0.55544  -0.49041  -0.47676
  Beta  occ. eigenvalues --   -0.44227  -0.39927  -0.38513  -0.37126  -0.35707
  Beta  occ. eigenvalues --   -0.34600  -0.34030  -0.31615  -0.31261  -0.29831
  Beta  occ. eigenvalues --   -0.29220  -0.27520  -0.25300  -0.19489  -0.18244
  Beta  occ. eigenvalues --   -0.18056  -0.14771  -0.13641
  Beta virt. eigenvalues --    0.07320   0.08316   0.08876   0.08935   0.10116
  Beta virt. eigenvalues --    0.10453   0.10903   0.11182   0.11752   0.12833
  Beta virt. eigenvalues --    0.13724   0.14250   0.14445   0.15020   0.15659

 Mulliken charges and spin densities:
               1          2
     1  C    1.456305  -1.829104
     2  N   -0.867239   0.753205
     3  C    1.156684  -1.526740
     4  N    0.469706  -0.369959
     5  C   -1.686410   1.397533
     6  C    1.385819  -1.153903
     7  N   -0.189779   0.058056
     8  C   -0.148947   0.150804
     9  C    0.975133  -1.627196
    10  O   -0.302347   0.014671
    11  H   -0.570034   0.739361
    12  H   -0.364866   0.527554
    13  H   -0.555326   0.708234
    14  H   -0.217763   0.377679
    15  H   -0.451866   0.603727
    16  H   -0.607285   0.775664
    17  H   -0.691541   0.860800
    18  H   -0.105541   0.274740
    19  H    0.016468   0.120317
    20  H    0.040694   0.136846
    21  H    0.258136   0.007712
 Sum of Mulliken charges =  -1.00000   1.00000

 Dipole moment (field-independent basis, Debye):
    X=             -6.8278    Y=              3.5391    Z=             -0.4101  Tot=              7.7014
 Quadrupole moment (field-independent basis, Debye-Ang):
   XX=           -141.6198   YY=            -94.4253   ZZ=            -92.5981
   XY=              8.8847   XZ=              2.1514   YZ=              0.7709

 Summary of Natural Population Analysis:

                                       Natural Population
                Natural  -----------------------------------------------
    Atom  No    Charge         Core      Valence    Rydberg      Total
 -----------------------------------------------------------------------
      C    1   -0.17912      0.99964     2.17079    0.00869     3.17912
      N    2   -0.17326      0.99973     2.65728    0.01625     3.67326
      C    3   -0.17884      0.99964     2.17062    0.00858     3.17884
      N    4   -0.11718      0.99963     2.60417    0.01338     3.61718
      C    5   -0.03522      0.99947     2.02380    0.01195     3.03522
      C    6    0.03306      0.99957     1.95242    0.01495     2.96694
      N    7   -0.27977      0.99969     2.76965    0.01042     3.77977
      C    8    0.11854      0.99962     1.86575    0.01609     2.88146
      C    9   -0.01829      0.99956     2.00556    0.01316     3.01829
      O   10   -0.37201      0.99990     3.36564    0.00647     4.37201
      H   11    0.10463      0.00000     0.39227    0.00309     0.39537
      H   12    0.09973      0.00000     0.39851    0.00176     0.40027
      H   13    0.08957      0.00000     0.40653    0.00391     0.41043
      H   14    0.09897      0.00000     0.39957    0.00146     0.40103
      H   15    0.08912      0.00000     0.40786    0.00303     0.41088
      H   16    0.10461      0.00000     0.39268    0.00271     0.39539
      H   17    0.11356      0.00000     0.38434    0.00210     0.38644
      H   18    0.09713      0.00000     0.40138    0.00149     0.40287
      H   19    0.07880      0.00000     0.41983    0.00137     0.42120
      H   20    0.08987      0.00000     0.40870    0.00143     0.41013
      H   21    0.23609      0.00000     0.26057    0.00333     0.26391
 =======================================================================
   * Total *   -0.00000      9.99644    27.85792    0.14564    38.00000

 Normal termination of Gaussian 16 at Tue Dec  8 10:34:46 2020.
