 Gaussian 16, Revision A.03,

 -----------------------------------------------------------
 # opt freq B3LYP/6-31G(d) empiricaldispersion=gd3bj scf=xqc
 -----------------------------------------------------------

 ------------------------------
 CID_13114303_JID_1757_neutraal
 ------------------------------
 Symbolic Z-matrix:
 Charge =  0 Multiplicity = 1

 SCF Done:  E(RB3LYP) =  -509.229934468     A.U. after   18 cycles
 SCF Done:  E(RB3LYP) =  -509.237132512     A.U. after   13 cycles
 SCF Done:  E(RB3LYP) =  -509.237837460     A.U. after   12 cycles
 SCF Done:  E(RB3LYP) =  -509.237909540     A.U. after   10 cycles
 SCF Done:  E(RB3LYP) =  -509.237919680     A.U. after   10 cycles
 SCF Done:  E(RB3LYP) =  -509.237924049     A.U. after    9 cycles
 Optimization completed.
    -- Stationary point found.
 Normal termination of Gaussian 16 at Tue Dec  8 20:10:06 2020.

 --------------------------------------------------------------------
 #N Geom=AllCheck Guess=TCheck SCRF=Check GenChk RB3LYP/6-31G(d) Freq
 --------------------------------------------------------------------

 Structure from the checkpoint file:  "JID_1757.chk"
 ------------------------------
 CID_13114303_JID_1757_neutraal
 ------------------------------
 Charge =  0 Multiplicity = 1

 SCF Done:  E(RB3LYP) =  -509.237924049     A.U. after    1 cycles

  Exact polarizability: 155.885   0.759  90.266   0.006   0.002  33.696
 Approx polarizability: 285.851  17.995 160.956  -0.002   0.008  53.200

                      1                      2                      3
                      A                      A                      A
 Frequencies --     62.9130               169.8740               214.7412
 Red. masses --      6.3685                 4.7292                 6.8311
 Frc consts  --      0.0149                 0.0804                 0.1856
 IR Inten    --      0.3071                 1.0520                 0.8486

                      4                      5                      6
                      A                      A                      A
 Frequencies --    342.7647               382.9028               442.0668
 Red. masses --      7.6747                 3.8831                 3.5472
 Frc consts  --      0.5313                 0.3354                 0.4084
 IR Inten    --      0.2642                 0.1361                 0.3337

                      7                      8                      9
                      A                      A                      A
 Frequencies --    469.3565               528.8088               531.0243
 Red. masses --      9.8187                 7.0135                 2.9149
 Frc consts  --      1.2744                 1.1555                 0.4843
 IR Inten    --      6.0906                 5.6862                 2.5376

                     10                     11                     12
                      A                      A                      A
 Frequencies --    554.4881               629.3836               715.2111
 Red. masses --      6.1210                 8.1021                 2.9345
 Frc consts  --      1.1088                 1.8909                 0.8844
 IR Inten    --      3.7628                 1.3403                 0.5792

                     13                     14                     15
                      A                      A                      A
 Frequencies --    728.4518               770.9906               777.8513
 Red. masses --      8.3009                 2.4997                 6.4323
 Frc consts  --      2.5953                 0.8755                 2.2930
 IR Inten    --     11.7339                42.3417                 4.0471

                     16                     17                     18
                      A                      A                      A
 Frequencies --    783.9201               837.5599               930.2065
 Red. masses --      2.1315                 1.9200                 5.2086
 Frc consts  --      0.7717                 0.7936                 2.6554
 IR Inten    --      0.9917                44.0873                 1.1935

                     19                     20                     21
                      A                      A                      A
 Frequencies --    952.4575               960.3900               968.0653
 Red. masses --      1.2963                 6.6601                 1.2674
 Frc consts  --      0.6929                 3.6193                 0.6998
 IR Inten    --      0.8742                 1.3672                 0.0174

                     22                     23                     24
                      A                      A                      A
 Frequencies --    986.8965              1040.4202              1124.1202
 Red. masses --      1.4224                 2.9686                 1.9850
 Frc consts  --      0.8163                 1.8933                 1.4779
 IR Inten    --      0.1479                 4.4661                31.0238

                     25                     26                     27
                      A                      A                      A
 Frequencies --   1179.0179              1182.5480              1236.0276
 Red. masses --      1.8325                 1.7783                 3.0092
 Frc consts  --      1.5009                 1.4652                 2.7087
 IR Inten    --     10.2961                11.8957                23.5693

                     28                     29                     30
                      A                      A                      A
 Frequencies --   1289.5941              1332.0689              1434.8679
 Red. masses --      1.8712                 2.6921                 1.5736
 Frc consts  --      1.8335                 2.8145                 1.9088
 IR Inten    --     73.5926                15.2804                11.7634

                     31                     32                     33
                      A                      A                      A
 Frequencies --   1441.7834              1487.0985              1555.7449
 Red. masses --      1.8418                 2.4251                 7.1481
 Frc consts  --      2.2558                 3.1598                10.1934
 IR Inten    --     23.0907                10.6763               271.0262

                     34                     35                     36
                      A                      A                      A
 Frequencies --   1622.9108              1703.8246              1714.2405
 Red. masses --      9.2206                 6.5280                 6.3731
 Frc consts  --     14.3087                11.1656                11.0343
 IR Inten    --    173.6758               502.2483                30.5474

                     37                     38                     39
                      A                      A                      A
 Frequencies --   1779.8303              3168.1098              3211.9170
 Red. masses --     11.3393                 1.0909                 1.0906
 Frc consts  --     21.1639                 6.4509                 6.6291
 IR Inten    --    359.6143                25.7436                 2.6351

                     40                     41                     42
                      A                      A                      A
 Frequencies --   3220.2434              3244.6389              3253.6252
 Red. masses --      1.0913                 1.0972                 1.0969
 Frc consts  --      6.6676                 6.8054                 6.8418
 IR Inten    --      5.8333                 2.2667                 1.1939

 - Thermochemistry -
 -------------------
 Temperature   298.150 Kelvin.  Pressure   1.00000 Atm.
 Atom     1 has atomic number  6 and mass  12.00000

 Molecular mass:   147.04326 amu.
 Principal axes and moments of inertia in atomic units:
                           1         2         3
     Eigenvalues --   616.154941978.977262595.13161
           X            0.99993  -0.01180   0.00002
           Y            0.01180   0.99993  -0.00000
           Z           -0.00002   0.00000   1.00000
 This molecule is an asymmetric top.
 Rotational symmetry number  1.
 Warning -- assumption of classical behavior for rotation
           may cause significant error
 Rotational temperatures (Kelvin)      0.14057     0.04377     0.03338
 Rotational constants (GHZ):           2.92904     0.91196     0.69543
 Zero-point vibrational energy     304826.2 (Joules/Mol)
                                   72.85520 (Kcal/Mol)
 Warning -- explicit consideration of  10 degrees of freedom as
           vibrations may cause significant error
 Vibrational temperatures:     90.52   244.41   308.96   493.16   550.91
          (Kelvin)            636.04   675.30   760.84   764.03   797.78
                              905.54  1029.03  1048.08  1109.28  1119.15
                             1127.89  1205.06  1338.36  1370.37  1381.79
                             1392.83  1419.92  1496.93  1617.36  1696.34
                             1701.42  1778.37  1855.44  1916.55  2064.45
                             2074.40  2139.60  2238.37  2335.01  2451.42
                             2466.41  2560.78  4558.20  4621.23  4633.21
                             4668.31  4681.24

 Zero-point correction=                           0.116102 (Hartree/Particle)
 Thermal correction to Energy=                    0.123746
 Thermal correction to Enthalpy=                  0.124690
 Thermal correction to Gibbs Free Energy=         0.083133
 Sum of electronic and zero-point Energies=           -509.121822
 Sum of electronic and thermal Energies=              -509.114178
 Sum of electronic and thermal Enthalpies=            -509.113234
 Sum of electronic and thermal Free Energies=         -509.154791

                     E (Thermal)             CV                S
                      KCal/Mol        Cal/Mol-Kelvin    Cal/Mol-Kelvin
 Total                   77.652             30.217             87.465
 Electronic               0.000              0.000              0.000
 Translational            0.889              2.981             40.867
 Rotational               0.889              2.981             29.538
 Vibrational             75.874             24.255             17.060
 Vibration     1          0.597              1.972              4.364
 Vibration     2          0.625              1.880              2.437
 Vibration     3          0.645              1.819              2.003
 Vibration     4          0.722              1.590              1.199
 Vibration     5          0.752              1.507              1.028
 Vibration     6          0.802              1.378              0.820
 Vibration     7          0.826              1.318              0.739
 Vibration     8          0.884              1.186              0.590
 Vibration     9          0.886              1.181              0.585
 Vibration    10          0.910              1.130              0.535

                           ! Non-Optimized Parameters !
 Normal termination of Gaussian 16 at Tue Dec  8 20:13:03 2020.

 ----------------------------------------------------------------------
 # B3LYP/6-311++G(d,p) empiricaldispersion=gd3bj scf=xqc pop=npa geom=c
 heck
 ----------------------------------------------------------------------

 --------------------------------------
 CID_13114303_JID_1757_Energie_neutraal
 --------------------------------------
 Structure from the checkpoint file:  "JID_1757.chk"
 Charge =  0 Multiplicity = 1

 SCF Done:  E(RB3LYP) =  -509.374351440     A.U. after   18 cycles
 Normal termination of Gaussian 16 at Tue Dec  8 20:14:16 2020.

 ----------------------------------------------------------------------
 # B3LYP/6-311++G(d,p) empiricaldispersion=gd3bj scf=xqc pop=npa geom=c
 heck
 ----------------------------------------------------------------------

 ------------------------------------
 CID_13114303_JID_1757_Energie_kation
 ------------------------------------
 Structure from the checkpoint file:  "JID_1757.chk"
 Charge =  1 Multiplicity = 2

 SCF Done:  E(UB3LYP) =  -509.055916935     A.U. after   29 cycles
 Normal termination of Gaussian 16 at Tue Dec  8 20:17:23 2020.
 Gaussian 16:  ES64L-G16RevA.03 25-Dec-2016

 ----------------------------------------------------------------------
 # B3LYP/6-311++G(d,p) empiricaldispersion=gd3bj scf=xqc pop=npa geom=c
 heck
 ----------------------------------------------------------------------

 -----------------------------------
 CID_13114303_JID_1757_Energie_anion
 -----------------------------------
 Structure from the checkpoint file:  "JID_1757.chk"
 Charge = -1 Multiplicity = 2

                         Standard orientation:
 ---------------------------------------------------------------------
 Center     Atomic      Atomic             Coordinates (Angstroms)
 Number     Number       Type             X           Y           Z
 ---------------------------------------------------------------------
      1          6           0        2.794019    0.355956    0.000861
      2          6           0        1.745190    1.217200    0.000759
      3          7           0        0.459111    0.742511   -0.000074
      4          6           0       -0.628378    1.616364   -0.000679
      5          6           0       -1.881253    1.137304   -0.000844
      6          6           0       -2.137720   -0.317514    0.000128
      7          8           0       -3.274755   -0.765209    0.001386
      8          7           0       -1.011726   -1.147568   -0.000418
      9          6           0        0.188875   -0.662020   -0.000378
     10          7           0        1.267045   -1.518187   -0.000806
     11          6           0        2.478170   -1.037009   -0.000163
     12          1           0        3.815455    0.713848    0.001554
     13          1           0        1.844767    2.297616    0.001254
     14          1           0       -0.371393    2.670520   -0.001024
     15          1           0       -2.732148    1.808188   -0.001387
     16          1           0        3.286930   -1.767478   -0.000504
 ---------------------------------------------------------------------

 SCF Done:  E(UB3LYP) =  -509.409786808     A.U. after   21 cycles

 The electronic state is 2-A.
 Alpha  occ. eigenvalues --  -18.92921 -14.24623 -14.13432 -14.13423 -10.12777
 Alpha  occ. eigenvalues --  -10.11294 -10.09287 -10.06369 -10.04607 -10.03500
 Alpha  occ. eigenvalues --  -10.03359  -0.88695  -0.86792  -0.77354  -0.74869
 Alpha  occ. eigenvalues --   -0.65586  -0.62843  -0.52608  -0.51980  -0.50030
 Alpha  occ. eigenvalues --   -0.41355  -0.40237  -0.37843  -0.33720  -0.32627
 Alpha  occ. eigenvalues --   -0.32289  -0.30775  -0.28066  -0.27094  -0.25037
 Alpha  occ. eigenvalues --   -0.24635  -0.22044  -0.17442  -0.13812  -0.12474
 Alpha  occ. eigenvalues --   -0.10729  -0.09619  -0.08394   0.03027
 Alpha virt. eigenvalues --    0.08244   0.09562   0.10486   0.10900   0.12146
 Alpha virt. eigenvalues --    0.12417   0.13887   0.15408   0.15592   0.17684
 Alpha virt. eigenvalues --    0.18318   0.18566   0.19322   0.19550   0.20314

  Beta  occ. eigenvalues --  -18.92922 -14.24488 -14.13308 -14.13060 -10.12787
  Beta  occ. eigenvalues --  -10.11319 -10.09280 -10.05782 -10.04200 -10.03471
  Beta  occ. eigenvalues --  -10.03298  -0.88465  -0.86611  -0.76753  -0.74455
  Beta  occ. eigenvalues --   -0.65128  -0.62381  -0.52201  -0.51157  -0.49939
  Beta  occ. eigenvalues --   -0.40967  -0.40057  -0.37464  -0.33592  -0.32157
  Beta  occ. eigenvalues --   -0.31662  -0.30481  -0.27829  -0.26996  -0.24464
  Beta  occ. eigenvalues --   -0.24422  -0.20408  -0.16213  -0.12310  -0.12128
  Beta  occ. eigenvalues --   -0.10316  -0.09515  -0.07358
  Beta virt. eigenvalues --    0.08199   0.09508   0.09748   0.10883   0.11088
  Beta virt. eigenvalues --    0.12088   0.13218   0.13862   0.15569   0.15719
  Beta virt. eigenvalues --    0.17669   0.18551   0.18566   0.19555   0.19638

 Mulliken charges and spin densities:
               1          2
     1  C   -0.580186   0.004454
     2  C    0.268741   0.396970
     3  N    0.078847   0.024989
     4  C    0.183010  -0.044881
     5  C   -0.290483   0.185925
     6  C   -0.145891  -0.021802
     7  O   -0.385960  -0.000004
     8  N   -0.234213   0.057785
     9  C   -0.293083   0.016083
    10  N   -0.129858   0.154731
    11  C   -0.073183   0.295972
    12  H    0.115208   0.007698
    13  H    0.086345  -0.038880
    14  H    0.102624   0.000611
    15  H    0.159864  -0.010958
    16  H    0.138217  -0.028694
 Sum of Mulliken charges =  -1.00000   1.00000

 Dipole moment (field-independent basis, Debye):
    X=              3.9064    Y=              6.5905    Z=             -0.0014  Tot=              7.6613
 Quadrupole moment (field-independent basis, Debye-Ang):
   XX=            -99.0305   YY=            -77.0832   ZZ=            -69.8933
   XY=             -5.2797   XZ=              0.0133   YZ=             -0.0012

 Summary of Natural Population Analysis:

                                       Natural Population
                Natural  -----------------------------------------------
    Atom  No    Charge         Core      Valence    Rydberg      Total
 -----------------------------------------------------------------------
      C    1   -0.19001      0.99957     2.18136    0.00908     3.19001
      C    2    0.14182      0.99957     1.84841    0.01020     2.85818
      N    3   -0.19674      0.99960     2.68813    0.00901     3.69674
      C    4    0.01405      0.99955     1.97637    0.01002     2.98595
      C    5   -0.11842      0.99952     2.10942    0.00948     3.11842
      C    6    0.29753      0.99964     1.67917    0.02366     2.70247
      O    7   -0.33311      0.99988     3.32539    0.00785     4.33311
      N    8   -0.26943      0.99962     2.75544    0.01437     3.76943
      C    9    0.29879      0.99958     1.68097    0.02065     2.70121
      N   10   -0.20465      0.99967     2.69407    0.01091     3.70465
      C   11    0.12336      0.99963     1.86110    0.01591     2.87664
      H   12    0.09702      0.00000     0.40178    0.00119     0.40298
      H   13    0.07984      0.00000     0.41876    0.00140     0.42016
      H   14    0.08888      0.00000     0.40957    0.00155     0.41112
      H   15    0.09861      0.00000     0.40010    0.00129     0.40139
      H   16    0.07247      0.00000     0.42600    0.00153     0.42753
 =======================================================================
   * Total *    0.00000     10.99583    26.85606    0.14811    38.00000

 Normal termination of Gaussian 16 at Tue Dec  8 20:19:56 2020.
