 Gaussian 16, Revision A.03,

 -----------------------------------------------------------
 # opt freq B3LYP/6-31G(d) empiricaldispersion=gd3bj scf=xqc
 -----------------------------------------------------------

 ------------------------------
 CID_95439581_JID_5966_neutraal
 ------------------------------
 Symbolic Z-matrix:
 Charge =  0 Multiplicity = 1

 SCF Done:  E(RB3LYP) =  -672.742589778     A.U. after   14 cycles
 SCF Done:  E(RB3LYP) =  -672.747721815     A.U. after   12 cycles
 SCF Done:  E(RB3LYP) =  -672.749676361     A.U. after   12 cycles
 SCF Done:  E(RB3LYP) =  -672.752587361     A.U. after   15 cycles
 SCF Done:  E(RB3LYP) =  -672.753670525     A.U. after   12 cycles
 SCF Done:  E(RB3LYP) =  -672.754686426     A.U. after   13 cycles
 SCF Done:  E(RB3LYP) =  -672.754942566     A.U. after   12 cycles
 SCF Done:  E(RB3LYP) =  -672.755290532     A.U. after   12 cycles
 SCF Done:  E(RB3LYP) =  -672.751156135     A.U. after   14 cycles
 SCF Done:  E(RB3LYP) =  -672.755203840     A.U. after   12 cycles
 SCF Done:  E(RB3LYP) =  -672.756742813     A.U. after   10 cycles
 SCF Done:  E(RB3LYP) =  -672.756748341     A.U. after   10 cycles
 SCF Done:  E(RB3LYP) =  -672.756749520     A.U. after    9 cycles
 SCF Done:  E(RB3LYP) =  -672.756749721     A.U. after    8 cycles
 SCF Done:  E(RB3LYP) =  -672.756749814     A.U. after    7 cycles
 Optimization completed.
    -- Stationary point found.
 Normal termination of Gaussian 16 at Thu Dec 10 17:47:46 2020.

 --------------------------------------------------------------------
 #N Geom=AllCheck Guess=TCheck SCRF=Check GenChk RB3LYP/6-31G(d) Freq
 --------------------------------------------------------------------

 Structure from the checkpoint file:  "JID_5966.chk"
 ------------------------------
 CID_95439581_JID_5966_neutraal
 ------------------------------
 Charge =  0 Multiplicity = 1

 SCF Done:  E(RB3LYP) =  -672.756749814     A.U. after    1 cycles

  Exact polarizability: 144.190   7.502 144.641  25.202  -8.209 109.137
 Approx polarizability: 202.652  14.998 226.694  54.531 -12.015 170.020

                      1                      2                      3
                      A                      A                      A
 Frequencies --     21.6549                40.2946                51.6581
 Red. masses --      4.1573                 3.9612                 4.2010
 Frc consts  --      0.0011                 0.0038                 0.0066
 IR Inten    --      0.0842                 0.2048                 0.0544

                      4                      5                      6
                      A                      A                      A
 Frequencies --     56.4332                99.1648               114.4074
 Red. masses --      4.3735                 2.9748                 3.9403
 Frc consts  --      0.0082                 0.0172                 0.0304
 IR Inten    --      1.3981                 0.1972                 0.5812

                      7                      8                      9
                      A                      A                      A
 Frequencies --    135.9265               178.3060               190.9271
 Red. masses --      2.7033                 1.4457                 2.3564
 Frc consts  --      0.0294                 0.0271                 0.0506
 IR Inten    --      2.3784                 0.0789                 2.2808

                     10                     11                     12
                      A                      A                      A
 Frequencies --    202.0748               256.5091               281.8815
 Red. masses --      1.1921                 3.3743                 2.6546
 Frc consts  --      0.0287                 0.1308                 0.1243
 IR Inten    --      1.4332                 4.4899                 0.8552

                     13                     14                     15
                      A                      A                      A
 Frequencies --    312.6009               328.9403               368.2312
 Red. masses --      2.8534                 2.8021                 3.4915
 Frc consts  --      0.1643                 0.1786                 0.2789
 IR Inten    --     10.3081                 5.2810                 5.2487

                     16                     17                     18
                      A                      A                      A
 Frequencies --    411.5855               430.5385               475.3685
 Red. masses --      2.7665                 2.4177                 3.6841
 Frc consts  --      0.2761                 0.2640                 0.4905
 IR Inten    --      5.6808                 3.1217                 5.2121

                     19                     20                     21
                      A                      A                      A
 Frequencies --    514.2594               538.6619               571.3421
 Red. masses --      3.7629                 3.4257                 4.1027
 Frc consts  --      0.5863                 0.5856                 0.7891
 IR Inten    --      2.1020                 1.7927                 1.3324

                     22                     23                     24
                      A                      A                      A
 Frequencies --    600.9661               610.4630               712.9805
 Red. masses --      4.1849                 4.1787                 3.4134
 Frc consts  --      0.8905                 0.9175                 1.0223
 IR Inten    --      4.0394                 4.3377                 3.3149

                     25                     26                     27
                      A                      A                      A
 Frequencies --    745.9161               755.5865               761.9706
 Red. masses --      3.3292                 3.0109                 1.4084
 Frc consts  --      1.0914                 1.0128                 0.4818
 IR Inten    --      2.4507                 6.0149                54.1144

                     28                     29                     30
                      A                      A                      A
 Frequencies --    812.8545               831.2979               851.5432
 Red. masses --      2.5429                 1.3879                 1.5194
 Frc consts  --      0.9899                 0.5651                 0.6491
 IR Inten    --      2.8411                 0.8012                16.8895

                     31                     32                     33
                      A                      A                      A
 Frequencies --    855.5857               864.3559               917.9697
 Red. masses --      1.2180                 2.3618                 1.7213
 Frc consts  --      0.5253                 1.0396                 0.8546
 IR Inten    --     27.9075                 4.6644                 2.8719

                     34                     35                     36
                      A                      A                      A
 Frequencies --    922.6876               942.2018               965.5115
 Red. masses --      2.3826                 1.9536                 1.2557
 Frc consts  --      1.1951                 1.0218                 0.6897
 IR Inten    --      8.9922                 6.3384                 0.2880

                     37                     38                     39
                      A                      A                      A
 Frequencies --    971.5839              1020.9137              1062.4026
 Red. masses --      2.6558                 2.1759                 2.7512
 Frc consts  --      1.4771                 1.3362                 1.8296
 IR Inten    --     13.8696                11.6686                23.5998

                     40                     41                     42
                      A                      A                      A
 Frequencies --   1073.3381              1088.3683              1126.0731
 Red. masses --      3.7540                 2.2596                 1.9169
 Frc consts  --      2.5481                 1.5770                 1.4321
 IR Inten    --     54.6799                 9.6544                16.6134

                     43                     44                     45
                      A                      A                      A
 Frequencies --   1134.6390              1146.9414              1187.5520
 Red. masses --      2.0626                 1.9059                 1.2682
 Frc consts  --      1.5645                 1.4772                 1.0538
 IR Inten    --    117.1443                70.0020                 2.2219

                     46                     47                     48
                      A                      A                      A
 Frequencies --   1190.1280              1198.8962              1203.7848
 Red. masses --      1.2329                 1.1056                 1.6692
 Frc consts  --      1.0289                 0.9363                 1.4252
 IR Inten    --     17.9236                 6.4679                12.4598

                     49                     50                     51
                      A                      A                      A
 Frequencies --   1226.2458              1230.1270              1236.4739
 Red. masses --      2.2695                 1.5419                 1.2559
 Frc consts  --      2.0106                 1.3747                 1.1313
 IR Inten    --     24.2468                26.1425                15.0499

                     52                     53                     54
                      A                      A                      A
 Frequencies --   1282.1327              1323.7024              1334.8470
 Red. masses --      2.8709                 1.4430                 1.4160
 Frc consts  --      2.7806                 1.4897                 1.4866
 IR Inten    --    182.9743                 1.7761                 9.8124

                     55                     56                     57
                      A                      A                      A
 Frequencies --   1346.2189              1377.7231              1384.4071
 Red. masses --      1.4060                 2.1702                 1.7430
 Frc consts  --      1.5013                 2.4270                 1.9683
 IR Inten    --     52.7389                 8.8174                34.2014

                     58                     59                     60
                      A                      A                      A
 Frequencies --   1419.8282              1424.7158              1443.4174
 Red. masses --      1.3625                 1.6625                 1.2971
 Frc consts  --      1.6184                 1.9883                 1.5922
 IR Inten    --     26.1045                67.9672                23.4765

                     61                     62                     63
                      A                      A                      A
 Frequencies --   1497.4626              1502.7293              1506.7726
 Red. masses --      1.3437                 1.8753                 1.0547
 Frc consts  --      1.7753                 2.4951                 1.4109
 IR Inten    --     11.5015                29.9353                 5.1491

                     64                     65                     66
                      A                      A                      A
 Frequencies --   1511.8901              1516.5665              1522.3152
 Red. masses --      1.1551                 1.0584                 1.0806
 Frc consts  --      1.5556                 1.4342                 1.4755
 IR Inten    --      6.8993                 4.5272                15.1662

                     67                     68                     69
                      A                      A                      A
 Frequencies --   1524.4487              1532.0545              1546.1652
 Red. masses --      1.1823                 1.0623                 1.6487
 Frc consts  --      1.6189                 1.4691                 2.3222
 IR Inten    --     11.4946                 3.7628                43.3374

                     70                     71                     72
                      A                      A                      A
 Frequencies --   1550.0823              1649.6197              1662.9095
 Red. masses --      1.4031                 6.3091                 5.8949
 Frc consts  --      1.9863                10.1154                 9.6043
 IR Inten    --     43.7772                 9.4150                31.6237

                     73                     74                     75
                      A                      A                      A
 Frequencies --   1729.8730              3050.9173              3059.8722
 Red. masses --      8.0943                 1.0666                 1.0613
 Frc consts  --     14.2712                 5.8493                 5.8544
 IR Inten    --    152.9050                38.3942                21.1066

                     76                     77                     78
                      A                      A                      A
 Frequencies --   3061.5068              3068.0966              3072.6742
 Red. masses --      1.0365                 1.0289                 1.0650
 Frc consts  --      5.7237                 5.7065                 5.9241
 IR Inten    --     17.7914                31.3750                36.3366

                     79                     80                     81
                      A                      A                      A
 Frequencies --   3107.1573              3111.1798              3130.3737
 Red. masses --      1.1030                 1.0991                 1.1014
 Frc consts  --      6.2739                 6.2683                 6.3588
 IR Inten    --     14.7862                15.1821                28.9534

                     82                     83                     84
                      A                      A                      A
 Frequencies --   3141.0084              3143.9286              3146.3816
 Red. masses --      1.1068                 1.0994                 1.1032
 Frc consts  --      6.4337                 6.4026                 6.4344
 IR Inten    --     24.5432                12.0150                35.8179

                     85                     86                     87
                      A                      A                      A
 Frequencies --   3170.0584              3184.0401              3191.6797
 Red. masses --      1.1072                 1.0855                 1.0901
 Frc consts  --      6.5554                 6.4838                 6.5427
 IR Inten    --     19.9892                 0.8173                18.7200

                     88                     89                     90
                      A                      A                      A
 Frequencies --   3209.9054              3228.0130              3475.6842
 Red. masses --      1.0954                 1.0919                 1.0753
 Frc consts  --      6.6498                 6.7036                 7.6533
 IR Inten    --     27.7648                13.7280                 1.5424

 - Thermochemistry -
 -------------------
 Temperature   298.150 Kelvin.  Pressure   1.00000 Atm.
 Atom     1 has atomic number  6 and mass  12.00000

 Molecular mass:   207.12593 amu.
 Principal axes and moments of inertia in atomic units:
                           1         2         3
     Eigenvalues --  2058.488434186.101744925.29131
           X            0.99979   0.01936   0.00678
           Y           -0.01913   0.99927  -0.03317
           Z           -0.00742   0.03303   0.99943
 This molecule is an asymmetric top.
 Rotational symmetry number  1.
 Warning -- assumption of classical behavior for rotation
           may cause significant error
 Rotational temperatures (Kelvin)      0.04208     0.02069     0.01759
 Rotational constants (GHZ):           0.87673     0.43113     0.36642
 Zero-point vibrational energy     723576.1 (Joules/Mol)
                                  172.93885 (Kcal/Mol)
 Warning -- explicit consideration of  23 degrees of freedom as
           vibrations may cause significant error
 Vibrational temperatures:     31.16    57.97    74.32    81.19   142.68
          (Kelvin)            164.61   195.57   256.54   274.70   290.74
                              369.06   405.56   449.76   473.27   529.80
                              592.18   619.45   683.95   739.90   775.01
                              822.03   864.66   878.32  1025.82  1073.21
                             1087.12  1096.31  1169.52  1196.05  1225.18
                             1231.00  1243.62  1320.75  1327.54  1355.62
                             1389.16  1397.89  1468.87  1528.56  1544.29
                             1565.92  1620.17  1632.49  1650.19  1708.62
                             1712.33  1724.94  1731.98  1764.29  1769.88
                             1779.01  1844.70  1904.51  1920.55  1936.91
                             1982.24  1991.85  2042.82  2049.85  2076.76
                             2154.51  2162.09  2167.91  2175.27  2182.00
                             2190.27  2193.34  2204.28  2224.59  2230.22
                             2373.43  2392.56  2488.90  4389.59  4402.47
                             4404.83  4414.31  4420.89  4470.51  4476.29
                             4503.91  4519.21  4523.41  4526.94  4561.01
                             4581.12  4592.12  4618.34  4644.39  5000.73

 Zero-point correction=                           0.275596 (Hartree/Particle)
 Thermal correction to Energy=                    0.290820
 Thermal correction to Enthalpy=                  0.291764
 Thermal correction to Gibbs Free Energy=         0.231524
 Sum of electronic and zero-point Energies=           -672.481154
 Sum of electronic and thermal Energies=              -672.465930
 Sum of electronic and thermal Enthalpies=            -672.464986
 Sum of electronic and thermal Free Energies=         -672.525226

                     E (Thermal)             CV                S
                      KCal/Mol        Cal/Mol-Kelvin    Cal/Mol-Kelvin
 Total                  182.492             56.584            126.787
 Electronic               0.000              0.000              0.000
 Translational            0.889              2.981             41.888
 Rotational               0.889              2.981             32.118
 Vibrational            180.715             50.622             52.781
 Vibration     1          0.593              1.985              6.476
 Vibration     2          0.594              1.981              5.245
 Vibration     3          0.596              1.977              4.753
 Vibration     4          0.596              1.975              4.578
 Vibration     5          0.604              1.950              3.471
 Vibration     6          0.607              1.937              3.193
 Vibration     7          0.614              1.917              2.860
 Vibration     8          0.629              1.869              2.346
 Vibration     9          0.634              1.852              2.219
 Vibration    10          0.639              1.837              2.114
 Vibration    11          0.666              1.752              1.685
 Vibration    12          0.681              1.707              1.522
 Vibration    13          0.701              1.650              1.349
 Vibration    14          0.712              1.618              1.265
 Vibration    15          0.741              1.538              1.087
 Vibration    16          0.776              1.445              0.921
 Vibration    17          0.792              1.404              0.857
 Vibration    18          0.832              1.305              0.723
 Vibration    19          0.869              1.218              0.623
 Vibration    20          0.894              1.165              0.568
 Vibration    21          0.927              1.093              0.502
 Vibration    22          0.959              1.030              0.448
 Vibration    23          0.970              1.010              0.432

 Optimization completed.
    -- Stationary point found.
 Normal termination of Gaussian 16 at Thu Dec 10 17:59:14 2020.

 ----------------------------------------------------------------------
 # B3LYP/6-311++G(d,p) empiricaldispersion=gd3bj scf=xqc pop=npa geom=c
 heck
 ----------------------------------------------------------------------

 --------------------------------------
 CID_95439581_JID_5966_Energie_neutraal
 --------------------------------------
 Structure from the checkpoint file:  "JID_5966.chk"
 Charge =  0 Multiplicity = 1

 SCF Done:  E(RB3LYP) =  -672.947301600     A.U. after   15 cycles
 Normal termination of Gaussian 16 at Thu Dec 10 18:04:52 2020.

 ----------------------------------------------------------------------
 # B3LYP/6-311++G(d,p) empiricaldispersion=gd3bj scf=xqc pop=npa geom=c
 heck
 ----------------------------------------------------------------------

 ------------------------------------
 CID_95439581_JID_5966_Energie_kation
 ------------------------------------
 Structure from the checkpoint file:  "JID_5966.chk"
 Charge =  1 Multiplicity = 2

 SCF Done:  E(UB3LYP) =  -672.658686311     A.U. after   24 cycles
 Normal termination of Gaussian 16 at Thu Dec 10 18:17:01 2020.
 Gaussian 16:  ES64L-G16RevA.03 25-Dec-2016

 ----------------------------------------------------------------------
 # B3LYP/6-311++G(d,p) empiricaldispersion=gd3bj scf=xqc pop=npa geom=c
 heck
 ----------------------------------------------------------------------

 -----------------------------------
 CID_95439581_JID_5966_Energie_anion
 -----------------------------------
 Structure from the checkpoint file:  "JID_5966.chk"
 Charge = -1 Multiplicity = 2

                         Standard orientation:
 ---------------------------------------------------------------------
 Center     Atomic      Atomic             Coordinates (Angstroms)
 Number     Number       Type             X           Y           Z
 ---------------------------------------------------------------------
      1          6           0       -4.156572   -0.901338   -0.119057
      2          6           0       -2.892464   -1.231109   -0.903909
      3          8           0       -1.710597   -1.083997   -0.117054
      4          6           0       -1.208332    0.167161    0.126286
      5          6           0       -1.715242    1.346620   -0.425922
      6          6           0       -1.099837    2.567868   -0.138983
      7          6           0        0.009828    2.620332    0.698486
      8          6           0        0.501928    1.435634    1.251698
      9          6           0       -0.090915    0.202808    0.983380
     10          6           0        0.489532   -1.078509    1.528129
     11          6           0        1.326056   -1.842327    0.470179
     12          6           0        2.398722   -0.941215   -0.096129
     13          7           0        3.506368   -0.603777    0.439349
     14          8           0        2.005633   -0.415299   -1.275969
     15          6           0        2.841348    0.612307   -1.814131
     16          1           0       -4.221574   -1.534447    0.771371
     17          1           0       -5.042810   -1.080706   -0.738273
     18          1           0       -4.168270    0.143346    0.204406
     19          1           0       -2.890812   -2.283926   -1.199305
     20          1           0       -2.813745   -0.632075   -1.819901
     21          1           0       -2.577964    1.328517   -1.080802
     22          1           0       -1.501052    3.477932   -0.576391
     23          1           0        0.487764    3.568809    0.923771
     24          1           0        1.376766    1.460799    1.895947
     25          1           0        1.129676   -0.845826    2.386663
     26          1           0       -0.308020   -1.741018    1.879225
     27          1           0        1.788964   -2.720714    0.933840
     28          1           0        0.670621   -2.179704   -0.335387
     29          1           0        3.625466   -1.097602    1.325662
     30          1           0        2.894999    1.456143   -1.120152
     31          1           0        3.853310    0.238187   -1.992466
     32          1           0        2.367499    0.913696   -2.749618
 ---------------------------------------------------------------------

 SCF Done:  E(UB3LYP) =  -672.932999747     A.U. after   33 cycles
 SCF Done:  E(UB3LYP) =  -672.932999747     a.u. after    1 cycles

 The electronic state is 2-A.
 Alpha  occ. eigenvalues --  -19.06448 -19.05251 -14.18941 -10.16875 -10.13566
 Alpha  occ. eigenvalues --  -10.12766 -10.12458 -10.08223 -10.08093 -10.07965
 Alpha  occ. eigenvalues --  -10.07780 -10.07499 -10.07371 -10.07153 -10.06506
 Alpha  occ. eigenvalues --   -0.98730  -0.96811  -0.79701  -0.76098  -0.70176
 Alpha  occ. eigenvalues --   -0.67427  -0.65070  -0.63547  -0.61651  -0.55433
 Alpha  occ. eigenvalues --   -0.54860  -0.49923  -0.48559  -0.47338  -0.43321
 Alpha  occ. eigenvalues --   -0.41212  -0.40158  -0.38569  -0.38315  -0.37614
 Alpha  occ. eigenvalues --   -0.36314  -0.35451  -0.34006  -0.33624  -0.32892
 Alpha  occ. eigenvalues --   -0.31301  -0.29737  -0.29228  -0.28547  -0.27215
 Alpha  occ. eigenvalues --   -0.27055  -0.26117  -0.25557  -0.24976  -0.24529
 Alpha  occ. eigenvalues --   -0.22473  -0.22212  -0.18245  -0.17716  -0.15431
 Alpha  occ. eigenvalues --   -0.12516   0.04308
 Alpha virt. eigenvalues --    0.06068   0.06507   0.07576   0.08192   0.08408
 Alpha virt. eigenvalues --    0.08501   0.08825   0.09468   0.09697   0.10288
 Alpha virt. eigenvalues --    0.10712   0.11110   0.11405   0.11704   0.12256

  Beta  occ. eigenvalues --  -19.06444 -19.05244 -14.18924 -10.16871 -10.13567
  Beta  occ. eigenvalues --  -10.12743 -10.12451 -10.08205 -10.08079 -10.07961
  Beta  occ. eigenvalues --  -10.07761 -10.07480 -10.07348 -10.07151 -10.06463
  Beta  occ. eigenvalues --   -0.98721  -0.96797  -0.79674  -0.76071  -0.70141
  Beta  occ. eigenvalues --   -0.67388  -0.65035  -0.63512  -0.61621  -0.55379
  Beta  occ. eigenvalues --   -0.54807  -0.49872  -0.48521  -0.47307  -0.43283
  Beta  occ. eigenvalues --   -0.41175  -0.40131  -0.38540  -0.38285  -0.37591
  Beta  occ. eigenvalues --   -0.36278  -0.35404  -0.33984  -0.33580  -0.32862
  Beta  occ. eigenvalues --   -0.31272  -0.29698  -0.29192  -0.28506  -0.27169
  Beta  occ. eigenvalues --   -0.27026  -0.26093  -0.25542  -0.24948  -0.24502
  Beta  occ. eigenvalues --   -0.22426  -0.22181  -0.18226  -0.17692  -0.15347
  Beta  occ. eigenvalues --   -0.12486
  Beta virt. eigenvalues --    0.06412   0.07061   0.07331   0.07743   0.08530
  Beta virt. eigenvalues --    0.08644   0.09081   0.09255   0.09747   0.09919
  Beta virt. eigenvalues --    0.10712   0.11026   0.11314   0.11720   0.11978

 Mulliken charges and spin densities:
               1          2
     1  C    1.256006  -1.710547
     2  C   -0.337635   0.208299
     3  O   -0.086560   0.021495
     4  C   -1.718074   0.696761
     5  C    1.579697  -1.872125
     6  C    1.483865  -1.666167
     7  C    0.247706  -0.763324
     8  C   -1.140115   1.332795
     9  C   -1.088881   2.395268
    10  C    1.432390  -2.036580
    11  C   -0.063810  -0.268753
    12  C    0.053202  -0.397987
    13  N   -0.338940   0.075120
    14  O    0.067180   0.015418
    15  C   -0.040418  -0.193536
    16  H   -0.120743   0.277449
    17  H   -0.504862   0.647927
    18  H   -0.130869   0.261737
    19  H   -0.612793   0.787806
    20  H   -0.064147   0.202011
    21  H   -0.182721   0.366365
    22  H   -0.389930   0.554281
    23  H   -0.103893   0.256547
    24  H    0.064995   0.104044
    25  H   -0.249696   0.446833
    26  H   -0.060469   0.246491
    27  H   -0.501014   0.691933
    28  H    0.261917  -0.062814
    29  H    0.073084   0.150167
    30  H    0.074383   0.080191
    31  H    0.125079   0.030736
    32  H    0.016066   0.122158
 Sum of Mulliken charges =  -1.00000   1.00000

 Dipole moment (field-independent basis, Debye):
    X=              4.4845    Y=              2.3237    Z=             -0.3903  Tot=              5.0659
 Quadrupole moment (field-independent basis, Debye-Ang):
   XX=           -171.8132   YY=           -140.2106   ZZ=           -124.5535
   XY=             -1.8613   XZ=            -12.8702   YZ=              3.7378

 Summary of Natural Population Analysis:

                                       Natural Population
                Natural  -----------------------------------------------
    Atom  No    Charge         Core      Valence    Rydberg      Total
 -----------------------------------------------------------------------
      C    1   -0.29988      0.99966     2.29545    0.00477     3.29988
      C    2   -0.01006      0.99958     1.99850    0.01198     3.01006
      O    3   -0.27966      0.99986     3.26962    0.01018     4.27966
      C    4    0.16834      0.99932     1.81882    0.01351     2.83166
      C    5   -0.13940      0.99952     2.13075    0.00914     3.13940
      C    6   -0.09276      0.99957     2.08311    0.01008     3.09276
      C    7   -0.11995      0.99956     2.10958    0.01080     3.11995
      C    8   -0.09072      0.99952     2.08229    0.00891     3.09072
      C    9   -0.03826      0.99947     2.02711    0.01167     3.03826
      C   10   -0.19069      0.99959     2.18053    0.01057     3.19069
      C   11   -0.22190      0.99956     2.21297    0.00936     3.22190
      C   12    0.30235      0.99960     1.67693    0.02111     2.69765
      N   13   -0.37344      0.99969     2.86587    0.00789     3.87344
      O   14   -0.27470      0.99985     3.26538    0.00946     4.27470
      C   15   -0.10348      0.99959     2.09579    0.00809     3.10348
      H   16    0.10162      0.00000     0.39715    0.00122     0.39838
      H   17    0.10457      0.00000     0.39310    0.00232     0.39543
      H   18    0.10112      0.00000     0.39747    0.00141     0.39888
      H   19    0.09331      0.00000     0.40511    0.00159     0.40669
      H   20    0.08310      0.00000     0.41505    0.00185     0.41690
      H   21    0.10547      0.00000     0.39265    0.00188     0.39453
      H   22    0.10012      0.00000     0.39880    0.00108     0.39988
      H   23    0.09927      0.00000     0.39992    0.00082     0.40073
      H   24    0.10107      0.00000     0.39753    0.00140     0.39893
      H   25    0.09945      0.00000     0.39904    0.00150     0.40055
      H   26    0.11188      0.00000     0.38651    0.00162     0.38812
      H   27    0.10627      0.00000     0.39194    0.00180     0.39373
      H   28    0.11457      0.00000     0.38319    0.00224     0.38543
      H   29    0.17081      0.00000     0.32719    0.00200     0.32919
      H   30    0.09336      0.00000     0.40545    0.00119     0.40664
      H   31    0.08921      0.00000     0.40964    0.00115     0.41079
      H   32    0.08900      0.00000     0.41004    0.00096     0.41100
 =======================================================================
   * Total *    0.00000     14.99396    40.82249    0.18355    56.00000

 Normal termination of Gaussian 16 at Thu Dec 10 18:33:20 2020.
