 Gaussian 16, Revision A.03,

 -----------------------------------------------------------
 # opt freq B3LYP/6-31G(d) empiricaldispersion=gd3bj scf=xqc
 -----------------------------------------------------------

 -------------------------------
 CID_148947420_JID_5660_neutraal
 -------------------------------
 Symbolic Z-matrix:
 Charge =  0 Multiplicity = 1

 SCF Done:  E(RB3LYP) =  -582.828633806     A.U. after   20 cycles
 SCF Done:  E(RB3LYP) =  -582.917708924     A.U. after   17 cycles
 SCF Done:  E(RB3LYP) =  -582.999827996     A.U. after   18 cycles
 SCF Done:  E(RB3LYP) =  -583.073022237     A.U. after   17 cycles
 SCF Done:  E(RB3LYP) =  -583.128936670     A.U. after   17 cycles
 SCF Done:  E(RB3LYP) =  -583.190673492     A.U. after   16 cycles
 SCF Done:  E(RB3LYP) =  -583.299598644     A.U. after   16 cycles
 SCF Done:  E(RB3LYP) =  -583.343228895     A.U. after   15 cycles
 SCF Done:  E(RB3LYP) =  -583.369293956     A.U. after   15 cycles
 SCF Done:  E(RB3LYP) =  -583.392443895     A.U. after   14 cycles
 SCF Done:  E(RB3LYP) =  -583.480102896     A.U. after    7 cycles
 SCF Done:  E(RB3LYP) =  -583.480109312     A.U. after    8 cycles
 SCF Done:  E(RB3LYP) =  -583.480111179     A.U. after    7 cycles
 SCF Done:  E(RB3LYP) =  -583.480111943     A.U. after    7 cycles
 SCF Done:  E(RB3LYP) =  -583.480112031     A.U. after    6 cycles
 Optimization completed.
    -- Stationary point found.
 Normal termination of Gaussian 16 at Thu Dec 10 17:23:23 2020.

 --------------------------------------------------------------------
 #N Geom=AllCheck Guess=TCheck SCRF=Check GenChk RB3LYP/6-31G(d) Freq
 --------------------------------------------------------------------

 Structure from the checkpoint file:  "JID_5660.chk"
 -------------------------------
 CID_148947420_JID_5660_neutraal
 -------------------------------
 Charge =  0 Multiplicity = 1

 SCF Done:  E(RB3LYP) =  -583.480112031     A.U. after    1 cycles

  Exact polarizability: 158.383   5.173 142.483   1.547   0.799 124.902
 Approx polarizability: 215.534   8.409 214.158   5.865   0.026 201.278

                      1                      2                      3
                      A                      A                      A
 Frequencies --    102.0231               141.7611               170.3192
 Red. masses --      2.6461                 2.4835                 2.9021
 Frc consts  --      0.0162                 0.0294                 0.0496
 IR Inten    --      0.0374                 0.0315                 0.4435

                      4                      5                      6
                      A                      A                      A
 Frequencies --    185.9970               204.4127               250.5579
 Red. masses --      2.1315                 1.2947                 1.2695
 Frc consts  --      0.0434                 0.0319                 0.0470
 IR Inten    --      0.0989                 0.0449                 0.5642

                      7                      8                      9
                      A                      A                      A
 Frequencies --    279.2308               293.9236               311.7616
 Red. masses --      2.2716                 2.3520                 2.8619
 Frc consts  --      0.1044                 0.1197                 0.1639
 IR Inten    --      0.0314                 0.5399                 0.5374

                     10                     11                     12
                      A                      A                      A
 Frequencies --    356.7480               391.1837               405.2132
 Red. masses --      2.6480                 2.9713                 2.6792
 Frc consts  --      0.1986                 0.2679                 0.2592
 IR Inten    --      0.4007                 0.4607                 0.9350

                     13                     14                     15
                      A                      A                      A
 Frequencies --    426.5988               444.2445               458.6309
 Red. masses --      2.2815                 2.8269                 2.9454
 Frc consts  --      0.2446                 0.3287                 0.3650
 IR Inten    --      1.8522                 1.2970                 2.4970

                     16                     17                     18
                      A                      A                      A
 Frequencies --    489.4253               545.1248               566.1896
 Red. masses --      3.4477                 2.9819                 3.1376
 Frc consts  --      0.4866                 0.5221                 0.5926
 IR Inten    --      0.6744                 1.8828                 0.2621

                     19                     20                     21
                      A                      A                      A
 Frequencies --    575.1313               630.3750               682.0849
 Red. masses --      3.6450                 3.5503                 3.2019
 Frc consts  --      0.7104                 0.8312                 0.8777
 IR Inten    --      1.3168                 1.2318                 3.4204

                     22                     23                     24
                      A                      A                      A
 Frequencies --    705.5830               737.0284               747.1730
 Red. masses --      3.4689                 3.2960                 3.0651
 Frc consts  --      1.0175                 1.0549                 1.0082
 IR Inten    --      0.5165                 0.7272                 0.8219

                     25                     26                     27
                      A                      A                      A
 Frequencies --    788.6591               812.4064               849.8386
 Red. masses --      3.1821                 2.4217                 2.3590
 Frc consts  --      1.1661                 0.9417                 1.0038
 IR Inten    --      1.4185                 1.1519                 1.5265

                     28                     29                     30
                      A                      A                      A
 Frequencies --    858.1449               871.6661               887.6702
 Red. masses --      2.4919                 2.2172                 1.9919
 Frc consts  --      1.0812                 0.9926                 0.9247
 IR Inten    --      4.0644                 0.6020                 0.9137

                     31                     32                     33
                      A                      A                      A
 Frequencies --    906.2830               924.4809               935.6829
 Red. masses --      2.7043                 2.1210                 1.5399
 Frc consts  --      1.3087                 1.0680                 0.7943
 IR Inten    --      2.2684                 0.2596                 0.2344

                     34                     35                     36
                      A                      A                      A
 Frequencies --    944.1198               966.9051               998.4424
 Red. masses --      1.5535                 2.1903                 1.6601
 Frc consts  --      0.8159                 1.2065                 0.9750
 IR Inten    --      0.3875                 3.1528                 0.2462

                     37                     38                     39
                      A                      A                      A
 Frequencies --   1014.9492              1026.6416              1037.0013
 Red. masses --      1.7001                 1.5468                 1.6637
 Frc consts  --      1.0318                 0.9605                 1.0541
 IR Inten    --      7.2425                 1.1873                 2.7001

                     40                     41                     42
                      A                      A                      A
 Frequencies --   1047.9962              1071.3301              1087.7936
 Red. masses --      1.5718                 2.1121                 1.5207
 Frc consts  --      1.0171                 1.4283                 1.0602
 IR Inten    --      2.3169                 9.3649                 2.0424

                     43                     44                     45
                      A                      A                      A
 Frequencies --   1093.2404              1094.7867              1114.6001
 Red. masses --      1.3909                 1.8965                 2.1463
 Frc consts  --      0.9794                 1.3392                 1.5710
 IR Inten    --      2.4617                 1.0418                 1.0979

                     46                     47                     48
                      A                      A                      A
 Frequencies --   1119.2986              1127.7559              1132.8701
 Red. masses --      2.1815                 1.9072                 1.9038
 Frc consts  --      1.6102                 1.4292                 1.4395
 IR Inten    --      1.2460                 2.7729                 0.4366

                     49                     50                     51
                      A                      A                      A
 Frequencies --   1148.7385              1159.9342              1163.9626
 Red. masses --      2.1010                 2.9263                 1.6979
 Frc consts  --      1.6335                 2.3197                 1.3553
 IR Inten    --      4.6499                 1.8666                 1.9238

                     52                     53                     54
                      A                      A                      A
 Frequencies --   1194.5083              1213.0171              1229.0442
 Red. masses --      2.8692                 1.6047                 1.4788
 Frc consts  --      2.4121                 1.3911                 1.3161
 IR Inten    --      0.7807                 0.0379                 3.2894

                     55                     56                     57
                      A                      A                      A
 Frequencies --   1237.1279              1242.1632              1246.4292
 Red. masses --      1.5260                 1.9645                 1.5052
 Frc consts  --      1.3761                 1.7859                 1.3777
 IR Inten    --      0.7556                 1.6887                 3.1981

                     58                     59                     60
                      A                      A                      A
 Frequencies --   1268.0739              1272.4729              1281.6469
 Red. masses --      1.4767                 1.4694                 1.5323
 Frc consts  --      1.3990                 1.4018                 1.4829
 IR Inten    --      4.1454                 1.9240                 2.0756

                     61                     62                     63
                      A                      A                      A
 Frequencies --   1292.6323              1305.6820              1335.5655
 Red. masses --      1.5361                 1.3684                 1.3770
 Frc consts  --      1.5122                 1.3745                 1.4471
 IR Inten    --      1.3351                 1.1288                 3.1204

                     64                     65                     66
                      A                      A                      A
 Frequencies --   1364.6914              1375.5071              1390.6299
 Red. masses --      1.7879                 1.4395                 1.8677
 Frc consts  --      1.9618                 1.6047                 2.1280
 IR Inten    --      5.4263                 8.4892                 1.0443

                     67                     68                     69
                      A                      A                      A
 Frequencies --   1413.7558              1435.6030              1436.2281
 Red. masses --      1.3735                 1.2518                 1.2628
 Frc consts  --      1.6175                 1.5200                 1.5348
 IR Inten    --      5.5396                 1.7235                 3.8493

                     70                     71                     72
                      A                      A                      A
 Frequencies --   1462.1565              1480.2043              1503.4353
 Red. masses --      1.1582                 2.7228                 1.1992
 Frc consts  --      1.4588                 3.5149                 1.5971
 IR Inten    --      1.6820                 2.1481                 0.7580

                     73                     74                     75
                      A                      A                      A
 Frequencies --   1520.2642              1521.5751              1521.9037
 Red. masses --      1.1025                 1.0780                 1.1154
 Frc consts  --      1.5013                 1.4705                 1.5221
 IR Inten    --      4.1331                 1.7982                 0.6303

                     76                     77                     78
                      A                      A                      A
 Frequencies --   1526.3784              1526.9816              1529.9965
 Red. masses --      1.0672                 1.0670                 1.0470
 Frc consts  --      1.4649                 1.4658                 1.4440
 IR Inten    --      0.7344                 3.2080                 5.2329

                     79                     80                     81
                      A                      A                      A
 Frequencies --   1549.6079              3037.9855              3039.5131
 Red. masses --      1.0762                 1.0669                 1.0511
 Frc consts  --      1.5225                 5.8014                 5.7215
 IR Inten    --      5.9756                27.5355                23.6140

                     82                     83                     84
                      A                      A                      A
 Frequencies --   3047.3438              3049.6211              3054.0802
 Red. masses --      1.0424                 1.0562                 1.0799
 Frc consts  --      5.7036                 5.7876                 5.9347
 IR Inten    --     33.2505                73.1700                15.3619

                     85                     86                     87
                      A                      A                      A
 Frequencies --   3058.9049              3067.6380              3083.5702
 Red. masses --      1.0810                 1.0672                 1.0848
 Frc consts  --      5.9596                 5.9170                 6.0774
 IR Inten    --      2.9449                44.2924                76.9504

                     88                     89                     90
                      A                      A                      A
 Frequencies --   3092.5326              3100.5702              3104.2928
 Red. masses --      1.0596                 1.1083                 1.1016
 Frc consts  --      5.9706                 6.2777                 6.2546
 IR Inten    --     32.4043                27.9397                33.0985

                     91                     92                     93
                      A                      A                      A
 Frequencies --   3108.0984              3109.0788              3120.9186
 Red. masses --      1.1023                 1.1019                 1.1047
 Frc consts  --      6.2737                 6.2754                 6.3395
 IR Inten    --     30.4856                23.7284                40.8851

                     94                     95                     96
                      A                      A                      A
 Frequencies --   3124.2851              3126.7589              3138.0191
 Red. masses --      1.0553                 1.1029                 1.1015
 Frc consts  --      6.0691                 6.3529                 6.3908
 IR Inten    --     28.4292                40.5940                26.1505

                     97                     98                     99
                      A                      A                      A
 Frequencies --   3152.9268              3183.8112              3198.0778
 Red. masses --      1.0907                 1.0811                 1.1161
 Frc consts  --      6.3880                 6.4565                 6.7254
 IR Inten    --     62.5892                13.7769                14.2577

 - Thermochemistry -
 -------------------
 Temperature   298.150 Kelvin.  Pressure   1.00000 Atm.
 Atom     1 has atomic number  6 and mass  12.00000

 Molecular mass:   200.15650 amu.
 Principal axes and moments of inertia in atomic units:
                           1         2         3
     Eigenvalues --  1791.533692831.819293509.04399
           X            0.99985  -0.01716  -0.00373
           Y            0.01720   0.99978   0.01200
           Z            0.00353  -0.01206   0.99992
 This molecule is an asymmetric top.
 Rotational symmetry number  1.
 Warning -- assumption of classical behavior for rotation
           may cause significant error
 Rotational temperatures (Kelvin)      0.04835     0.03059     0.02468
 Rotational constants (GHZ):           1.00737     0.63731     0.51431
 Zero-point vibrational energy     825191.4 (Joules/Mol)
                                  197.22548 (Kcal/Mol)
 Warning -- explicit consideration of  19 degrees of freedom as
           vibrations may cause significant error
 Vibrational temperatures:    146.79   203.96   245.05   267.61   294.10
          (Kelvin)            360.50   401.75   422.89   448.56   513.28
                              562.83   583.01   613.78   639.17   659.87
                              704.17   784.31   814.62   827.49   906.97
                              981.37  1015.18  1060.42  1075.02  1134.70
                             1168.87  1222.73  1234.68  1254.13  1277.16
                             1303.94  1330.12  1346.24  1358.38  1391.16
                             1436.54  1460.29  1477.11  1492.01  1507.83
                             1541.41  1565.09  1572.93  1575.15  1603.66
                             1610.42  1622.59  1629.95  1652.78  1668.89
                             1674.68  1718.63  1745.26  1768.32  1779.95
                             1787.20  1793.33  1824.48  1830.80  1844.00
                             1859.81  1878.59  1921.58  1963.49  1979.05
                             2000.81  2034.08  2065.51  2066.41  2103.72
                             2129.68  2163.11  2187.32  2189.21  2189.68
                             2196.12  2196.99  2201.32  2229.54  4370.98
                             4373.18  4384.45  4387.72  4394.14  4401.08
                             4413.65  4436.57  4449.46  4461.03  4466.38
                             4471.86  4473.27  4490.31  4495.15  4498.71
                             4514.91  4536.36  4580.79  4601.32

 Zero-point correction=                           0.314299 (Hartree/Particle)
 Thermal correction to Energy=                    0.326476
 Thermal correction to Enthalpy=                  0.327421
 Thermal correction to Gibbs Free Energy=         0.277649
 Sum of electronic and zero-point Energies=           -583.165813
 Sum of electronic and thermal Energies=              -583.153636
 Sum of electronic and thermal Enthalpies=            -583.152691
 Sum of electronic and thermal Free Energies=         -583.202463

                     E (Thermal)             CV                S
                      KCal/Mol        Cal/Mol-Kelvin    Cal/Mol-Kelvin
 Total                  204.867             53.420            104.753
 Electronic               0.000              0.000              0.000
 Translational            0.889              2.981             41.786
 Rotational               0.889              2.981             31.254
 Vibrational            203.090             47.458             31.712
 Vibration     1          0.604              1.948              3.415
 Vibration     2          0.615              1.911              2.780
 Vibration     3          0.625              1.879              2.432
 Vibration     4          0.632              1.859              2.267
 Vibration     5          0.640              1.834              2.093
 Vibration     6          0.663              1.762              1.727
 Vibration     7          0.680              1.712              1.538
 Vibration     8          0.689              1.685              1.451
 Vibration     9          0.700              1.651              1.353
 Vibration    10          0.732              1.561              1.136
 Vibration    11          0.759              1.489              0.996
 Vibration    12          0.770              1.459              0.944
 Vibration    13          0.788              1.412              0.870
 Vibration    14          0.804              1.374              0.813
 Vibration    15          0.817              1.342              0.770
 Vibration    16          0.845              1.273              0.685
 Vibration    17          0.900              1.150              0.554
 Vibration    18          0.922              1.104              0.512
 Vibration    19          0.931              1.085              0.494

 Optimization completed.
    -- Stationary point found.
 Normal termination of Gaussian 16 at Thu Dec 10 17:39:42 2020.

 ----------------------------------------------------------------------
 # B3LYP/6-311++G(d,p) empiricaldispersion=gd3bj scf=xqc pop=npa geom=c
 heck
 ----------------------------------------------------------------------

 ---------------------------------------
 CID_148947420_JID_5660_Energie_neutraal
 ---------------------------------------
 Structure from the checkpoint file:  "JID_5660.chk"
 Charge =  0 Multiplicity = 1

 SCF Done:  E(RB3LYP) =  -583.622671689     A.U. after   14 cycles
 Normal termination of Gaussian 16 at Thu Dec 10 17:47:19 2020.

 ----------------------------------------------------------------------
 # B3LYP/6-311++G(d,p) empiricaldispersion=gd3bj scf=xqc pop=npa geom=c
 heck
 ----------------------------------------------------------------------

 -------------------------------------
 CID_148947420_JID_5660_Energie_kation
 -------------------------------------
 Structure from the checkpoint file:  "JID_5660.chk"
 Charge =  1 Multiplicity = 2

 SCF Done:  E(UB3LYP) =  -583.329262026     A.U. after   23 cycles
 Normal termination of Gaussian 16 at Thu Dec 10 18:04:53 2020.
 Gaussian 16:  ES64L-G16RevA.03 25-Dec-2016

 ----------------------------------------------------------------------
 # B3LYP/6-311++G(d,p) empiricaldispersion=gd3bj scf=xqc pop=npa geom=c
 heck
 ----------------------------------------------------------------------

 ------------------------------------
 CID_148947420_JID_5660_Energie_anion
 ------------------------------------
 Structure from the checkpoint file:  "JID_5660.chk"
 Charge = -1 Multiplicity = 2

                         Standard orientation:
 ---------------------------------------------------------------------
 Center     Atomic      Atomic             Coordinates (Angstroms)
 Number     Number       Type             X           Y           Z
 ---------------------------------------------------------------------
      1          6           0       -3.588004   -0.294445    0.393190
      2          6           0       -2.172404    0.263921    0.506902
      3          6           0       -1.925930    1.558723   -0.320885
      4          6           0       -0.867017    0.843578   -1.203768
      5          6           0       -1.101167   -0.468665   -0.340254
      6          6           0       -1.093843   -1.987254   -0.405438
      7          6           0        0.076848   -1.284358    0.223275
      8          6           0        0.643882    1.240957   -1.235912
      9          6           0        1.926734    1.756963   -0.393102
     10          6           0        1.422733    0.340666   -0.381271
     11          6           0        1.348206   -1.136225   -0.665250
     12          6           0        2.522213   -2.043468   -0.297561
     13          6           0        0.905024    0.607892    1.068660
     14          6           0        1.901688    1.792866    1.156327
     15          6           0        0.542684   -0.799994    1.619448
     16          1           0       -3.686117   -1.261948    0.899290
     17          1           0       -3.869781   -0.437379   -0.656894
     18          1           0       -4.311787    0.392835    0.847767
     19          1           0       -1.921889    0.369838    1.570168
     20          1           0       -2.809586    1.893277   -0.875048
     21          1           0       -1.538210    2.410152    0.244492
     22          1           0       -1.186556    0.773000   -2.248374
     23          1           0       -0.888677   -2.524339   -1.329560
     24          1           0       -1.851405   -2.469283    0.209632
     25          1           0        1.008835    1.245759   -2.267350
     26          1           0        2.700772    2.221035   -1.003167
     27          1           0        1.094067   -1.309273   -1.717481
     28          1           0        2.227699   -3.099438   -0.333364
     29          1           0        3.343289   -1.896178   -1.008110
     30          1           0        2.917039   -1.835562    0.700802
     31          1           0       -0.052735    1.117713    1.038421
     32          1           0        2.901880    1.522916    1.514261
     33          1           0        1.559114    2.697262    1.673119
     34          1           0       -0.256287   -0.774413    2.364665
     35          1           0        1.370460   -1.382927    2.030568
 ---------------------------------------------------------------------

 SCF Done:  E(UB3LYP) =  -583.605183282     A.U. after   33 cycles
 SCF Done:  E(UB3LYP) =  -583.605183282     a.u. after    1 cycles

 The electronic state is 2-A.
 Alpha  occ. eigenvalues --  -10.09756 -10.08553 -10.08340 -10.07830 -10.07686
 Alpha  occ. eigenvalues --  -10.07620 -10.07531 -10.07530 -10.07188 -10.07172
 Alpha  occ. eigenvalues --  -10.06501 -10.06430 -10.06223 -10.05812 -10.05771
 Alpha  occ. eigenvalues --   -0.81989  -0.76561  -0.72016  -0.66325  -0.65921
 Alpha  occ. eigenvalues --   -0.62916  -0.60462  -0.54782  -0.53535  -0.51685
 Alpha  occ. eigenvalues --   -0.50132  -0.46032  -0.45237  -0.41458  -0.40424
 Alpha  occ. eigenvalues --   -0.38776  -0.37921  -0.36858  -0.35836  -0.33851
 Alpha  occ. eigenvalues --   -0.32850  -0.31380  -0.31293  -0.29377  -0.29269
 Alpha  occ. eigenvalues --   -0.28335  -0.28113  -0.27401  -0.26178  -0.24870
 Alpha  occ. eigenvalues --   -0.24331  -0.23012  -0.22796  -0.21650  -0.19516
 Alpha  occ. eigenvalues --   -0.18823  -0.17586  -0.16052  -0.14802  -0.13266
 Alpha  occ. eigenvalues --    0.04573
 Alpha virt. eigenvalues --    0.06530   0.07022   0.07242   0.08523   0.08717
 Alpha virt. eigenvalues --    0.08946   0.09367   0.09643   0.10807   0.11254
 Alpha virt. eigenvalues --    0.11449   0.11635   0.11981   0.12772   0.13370

  Beta  occ. eigenvalues --  -10.09741 -10.08550 -10.08331 -10.07820 -10.07668
  Beta  occ. eigenvalues --  -10.07596 -10.07531 -10.07515 -10.07180 -10.07163
  Beta  occ. eigenvalues --  -10.06495 -10.06431 -10.06210 -10.05783 -10.05740
  Beta  occ. eigenvalues --   -0.81973  -0.76545  -0.71997  -0.66301  -0.65895
  Beta  occ. eigenvalues --   -0.62883  -0.60425  -0.54733  -0.53490  -0.51644
  Beta  occ. eigenvalues --   -0.50088  -0.45989  -0.45202  -0.41422  -0.40391
  Beta  occ. eigenvalues --   -0.38745  -0.37888  -0.36828  -0.35812  -0.33823
  Beta  occ. eigenvalues --   -0.32827  -0.31347  -0.31261  -0.29347  -0.29242
  Beta  occ. eigenvalues --   -0.28299  -0.28079  -0.27372  -0.26150  -0.24841
  Beta  occ. eigenvalues --   -0.24298  -0.22988  -0.22774  -0.21625  -0.19494
  Beta  occ. eigenvalues --   -0.18803  -0.17554  -0.16033  -0.14785  -0.13249
  Beta virt. eigenvalues --    0.06613   0.07340   0.07730   0.07745   0.09086
  Beta virt. eigenvalues --    0.09151   0.09486   0.09773   0.09991   0.11333
  Beta virt. eigenvalues --    0.11599   0.11825   0.11980   0.12331   0.13091

 Mulliken charges and spin densities:
               1          2
     1  C    1.000200  -1.696617
     2  C   -1.448928   1.643646
     3  C   -0.149989  -0.520130
     4  C   -0.704964   0.600758
     5  C   -0.669186   0.330847
     6  C    2.939093  -3.259260
     7  C    0.429395   0.621946
     8  C    0.710904  -1.130289
     9  C   -0.452472  -0.211265
    10  C    1.032050   0.068197
    11  C   -2.827267   2.548326
    12  C    1.450433  -2.034867
    13  C    0.037742   0.314777
    14  C    0.498221  -0.769802
    15  C   -0.854710  -0.616341
    16  H   -0.164129   0.283399
    17  H   -0.122964   0.282905
    18  H   -0.235942   0.381488
    19  H   -0.271023   0.466596
    20  H   -0.165342   0.312880
    21  H   -0.172984   0.349893
    22  H   -0.156752   0.392449
    23  H   -0.229842   0.401829
    24  H    0.177079  -0.020544
    25  H    0.106842   0.038035
    26  H   -0.378507   0.540297
    27  H   -0.305886   0.540797
    28  H   -0.219619   0.371213
    29  H   -0.184822   0.338400
    30  H   -0.068884   0.196724
    31  H    0.854554  -0.819650
    32  H   -0.032612   0.175208
    33  H   -0.281886   0.433492
    34  H   -0.229997   0.395132
    35  H    0.092193   0.049529
 Sum of Mulliken charges =  -1.00000   1.00000

 Dipole moment (field-independent basis, Debye):
    X=              0.6086    Y=              1.1432    Z=              0.7690  Tot=              1.5062
 Quadrupole moment (field-independent basis, Debye-Ang):
   XX=           -159.2391   YY=           -142.3927   ZZ=           -133.4142
   XY=              0.3570   XZ=              4.4714   YZ=             -4.3958

 Summary of Natural Population Analysis:

                                       Natural Population
                Natural  -----------------------------------------------
    Atom  No    Charge         Core      Valence    Rydberg      Total
 -----------------------------------------------------------------------
      C    1   -0.28184      0.99964     2.27637    0.00582     3.28184
      C    2   -0.11323      0.99956     2.10309    0.01058     3.11323
      C    3   -0.18480      0.99961     2.17707    0.00812     3.18480
      C    4   -0.10117      0.99954     2.08991    0.01171     3.10117
      C    5   -0.03012      0.99948     2.01626    0.01438     3.03012
      C    6   -0.18184      0.99949     2.17146    0.01089     3.18184
      C    7   -0.02796      0.99942     2.01361    0.01493     3.02796
      C    8   -0.10937      0.99940     2.09881    0.01116     3.10937
      C    9   -0.07445      0.99954     2.06337    0.01153     3.07445
      C   10   -0.03561      0.99939     2.01892    0.01730     3.03561
      C   11   -0.10607      0.99949     2.09318    0.01340     3.10607
      C   12   -0.28083      0.99964     2.27551    0.00568     3.28083
      C   13   -0.11433      0.99952     2.10297    0.01184     3.11433
      C   14   -0.17677      0.99959     2.16824    0.00894     3.17677
      C   15   -0.18342      0.99956     2.17503    0.00882     3.18342
      H   16    0.09875      0.00000     0.40008    0.00117     0.40125
      H   17    0.09753      0.00000     0.40110    0.00137     0.40247
      H   18    0.09936      0.00000     0.39962    0.00103     0.40064
      H   19    0.09686      0.00000     0.40097    0.00217     0.40314
      H   20    0.09771      0.00000     0.40113    0.00116     0.40229
      H   21    0.10017      0.00000     0.39856    0.00128     0.39983
      H   22    0.10492      0.00000     0.39398    0.00110     0.39508
      H   23    0.10796      0.00000     0.39064    0.00140     0.39204
      H   24    0.10690      0.00000     0.39181    0.00129     0.39310
      H   25    0.09496      0.00000     0.40318    0.00186     0.40504
      H   26    0.10172      0.00000     0.39712    0.00116     0.39828
      H   27    0.10191      0.00000     0.39581    0.00228     0.39809
      H   28    0.09965      0.00000     0.39921    0.00114     0.40035
      H   29    0.10158      0.00000     0.39731    0.00111     0.39842
      H   30    0.09705      0.00000     0.40169    0.00126     0.40295
      H   31    0.09697      0.00000     0.39839    0.00465     0.40303
      H   32    0.09916      0.00000     0.39925    0.00159     0.40084
      H   33    0.09192      0.00000     0.40701    0.00108     0.40808
      H   34    0.10465      0.00000     0.39418    0.00117     0.39535
      H   35    0.10208      0.00000     0.39683    0.00109     0.39792
 =======================================================================
   * Total *    0.00000     14.99287    39.81168    0.19545    55.00000

 Normal termination of Gaussian 16 at Thu Dec 10 18:29:01 2020.
