 Gaussian 16, Revision A.03,

 -----------------------------------------------------------
 # opt freq B3LYP/6-31G(d) empiricaldispersion=gd3bj scf=xqc
 -----------------------------------------------------------

 ------------------------------
 CID_80341291_JID_6098_neutraal
 ------------------------------
 Symbolic Z-matrix:
 Charge =  0 Multiplicity = 1

 SCF Done:  E(RB3LYP) =  -692.212089043     A.U. after   15 cycles
 SCF Done:  E(RB3LYP) =  -692.216208392     A.U. after   13 cycles
 SCF Done:  E(RB3LYP) =  -692.216664012     A.U. after   14 cycles
 SCF Done:  E(RB3LYP) =  -692.218075918     A.U. after   13 cycles
 SCF Done:  E(RB3LYP) =  -692.219942785     A.U. after   14 cycles
 SCF Done:  E(RB3LYP) =  -692.221260585     A.U. after   13 cycles
 SCF Done:  E(RB3LYP) =  -692.223144878     A.U. after   13 cycles
 SCF Done:  E(RB3LYP) =  -692.224887122     A.U. after   13 cycles
 SCF Done:  E(RB3LYP) =  -692.227717410     A.U. after   13 cycles
 SCF Done:  E(RB3LYP) =  -692.230024916     A.U. after   12 cycles
 SCF Done:  E(RB3LYP) =  -692.233622637     A.U. after    9 cycles
 SCF Done:  E(RB3LYP) =  -692.233626181     A.U. after    9 cycles
 SCF Done:  E(RB3LYP) =  -692.233626615     A.U. after    8 cycles
 SCF Done:  E(RB3LYP) =  -692.233626720     A.U. after    8 cycles
 SCF Done:  E(RB3LYP) =  -692.233626737     A.U. after    7 cycles
 SCF Done:  E(RB3LYP) =  -692.233626720     A.U. after    7 cycles
 Optimization completed.
    -- Stationary point found.
 Normal termination of Gaussian 16 at Thu Dec 10 21:27:08 2020.

 --------------------------------------------------------------------
 #N Geom=AllCheck Guess=TCheck SCRF=Check GenChk RB3LYP/6-31G(d) Freq
 --------------------------------------------------------------------

 Structure from the checkpoint file:  "JID_6098.chk"
 ------------------------------
 CID_80341291_JID_6098_neutraal
 ------------------------------
 Charge =  0 Multiplicity = 1

 SCF Done:  E(RB3LYP) =  -692.233626720     A.U. after    1 cycles

  Exact polarizability: 196.805 -16.289 155.277  15.763  12.023 110.803
 Approx polarizability: 260.102 -25.030 260.170  34.312  33.796 168.481

                      1                      2                      3
                      A                      A                      A
 Frequencies --     22.2263                28.5725                50.6096
 Red. masses --      4.7280                 3.4001                 3.8164
 Frc consts  --      0.0014                 0.0016                 0.0058
 IR Inten    --      0.0603                 0.4964                 3.8369

                      4                      5                      6
                      A                      A                      A
 Frequencies --     83.9870                90.8410               131.7521
 Red. masses --      3.0567                 2.8098                 3.8906
 Frc consts  --      0.0127                 0.0137                 0.0398
 IR Inten    --      0.0586                 0.5701                 3.0849

                      7                      8                      9
                      A                      A                      A
 Frequencies --    144.6695               161.5532               172.8352
 Red. masses --      2.9664                 2.4739                 1.0901
 Frc consts  --      0.0366                 0.0380                 0.0192
 IR Inten    --      0.1280                 6.2962                 0.0261

                     10                     11                     12
                      A                      A                      A
 Frequencies --    186.3239               201.9678               235.4345
 Red. masses --      2.5348                 2.4809                 1.4847
 Frc consts  --      0.0518                 0.0596                 0.0485
 IR Inten    --      0.5247                 2.1753                 1.3665

                     13                     14                     15
                      A                      A                      A
 Frequencies --    240.7959               262.3418               298.8807
 Red. masses --      1.2335                 1.5041                 2.2330
 Frc consts  --      0.0421                 0.0610                 0.1175
 IR Inten    --      0.0914                 2.1451                 1.1525

                     16                     17                     18
                      A                      A                      A
 Frequencies --    317.8286               348.1151               389.8363
 Red. masses --      2.6642                 2.6460                 2.1892
 Frc consts  --      0.1586                 0.1889                 0.1960
 IR Inten    --      0.7331                 1.7977                 1.4219

                     19                     20                     21
                      A                      A                      A
 Frequencies --    408.9182               426.1552               436.3940
 Red. masses --      3.1377                 2.0105                 3.5768
 Frc consts  --      0.3091                 0.2151                 0.4013
 IR Inten    --      0.2798                 1.6209                 2.0809

                     22                     23                     24
                      A                      A                      A
 Frequencies --    464.8170               505.0128               524.5179
 Red. masses --      4.0573                 2.8687                 3.3670
 Frc consts  --      0.5165                 0.4311                 0.5458
 IR Inten    --      1.3616                 4.9344                 3.4999

                     25                     26                     27
                      A                      A                      A
 Frequencies --    537.7459               591.6558               599.6601
 Red. masses --      3.0284                 3.7616                 4.1430
 Frc consts  --      0.5160                 0.7758                 0.8778
 IR Inten    --      1.4527                13.8926                30.0774

                     28                     29                     30
                      A                      A                      A
 Frequencies --    670.4156               737.0279               753.1012
 Red. masses --      3.5163                 5.7525                 3.3899
 Frc consts  --      0.9312                 1.8411                 1.1328
 IR Inten    --      8.2491                 1.9584                 0.9964

                     31                     32                     33
                      A                      A                      A
 Frequencies --    771.4237               806.4032               810.9920
 Red. masses --      2.3129                 3.5605                 1.2976
 Frc consts  --      0.8110                 1.3642                 0.5028
 IR Inten    --      2.2314                 1.3299                18.2955

                     34                     35                     36
                      A                      A                      A
 Frequencies --    891.8054               895.4914               922.2154
 Red. masses --      1.5238                 1.9267                 2.0978
 Frc consts  --      0.7140                 0.9103                 1.0512
 IR Inten    --     18.9417                 2.5022                 1.6859

                     37                     38                     39
                      A                      A                      A
 Frequencies --    946.6070               968.5170               969.5829
 Red. masses --      1.1950                 2.0328                 1.3435
 Frc consts  --      0.6309                 1.1235                 0.7442
 IR Inten    --      2.2547                62.5863                 0.6696

                     40                     41                     42
                      A                      A                      A
 Frequencies --    981.6091               996.3869              1009.6127
 Red. masses --      1.4693                 3.5828                 1.7344
 Frc consts  --      0.8342                 2.0957                 1.0416
 IR Inten    --      2.5860                 7.3926                 5.9631

                     43                     44                     45
                      A                      A                      A
 Frequencies --   1017.1989              1056.5389              1059.5146
 Red. masses --      2.4531                 1.8826                 2.1925
 Frc consts  --      1.4955                 1.2382                 1.4501
 IR Inten    --     10.2214                 1.4872                19.2676

                     46                     47                     48
                      A                      A                      A
 Frequencies --   1120.5242              1127.8402              1146.1601
 Red. masses --      2.0112                 1.8027                 1.5927
 Frc consts  --      1.4878                 1.3511                 1.2328
 IR Inten    --     16.2021                 4.5042                 0.1335

                     49                     50                     51
                      A                      A                      A
 Frequencies --   1154.3768              1162.3764              1194.4621
 Red. masses --      1.3494                 1.7799                 2.0102
 Frc consts  --      1.0594                 1.4169                 1.6898
 IR Inten    --      3.8186                 5.1530                 2.2770

                     52                     53                     54
                      A                      A                      A
 Frequencies --   1208.7388              1244.0093              1281.0090
 Red. masses --      1.7050                 1.9061                 2.9164
 Frc consts  --      1.4677                 1.7380                 2.8197
 IR Inten    --      9.1501                41.4865                29.5993

                     55                     56                     57
                      A                      A                      A
 Frequencies --   1282.5591              1302.3403              1339.7646
 Red. masses --      1.5883                 1.5694                 3.9348
 Frc consts  --      1.5393                 1.5683                 4.1613
 IR Inten    --     81.7547                86.5241                 5.7387

                     58                     59                     60
                      A                      A                      A
 Frequencies --   1349.4470              1357.9245              1384.4928
 Red. masses --      1.8536                 1.2689                 1.3734
 Frc consts  --      1.9887                 1.3785                 1.5510
 IR Inten    --     44.2677                 6.3599                 3.6353

                     61                     62                     63
                      A                      A                      A
 Frequencies --   1403.6918              1411.1634              1414.8899
 Red. masses --      1.7276                 1.3277                 1.4317
 Frc consts  --      2.0055                 1.5578                 1.6887
 IR Inten    --      2.3220                38.8111                20.7676

                     64                     65                     66
                      A                      A                      A
 Frequencies --   1426.4404              1430.3316              1450.4641
 Red. masses --      1.6585                 1.2715                 1.2323
 Frc consts  --      1.9882                 1.5326                 1.5275
 IR Inten    --     22.3964                 6.9316                10.2677

                     67                     68                     69
                      A                      A                      A
 Frequencies --   1470.2154              1498.6011              1505.0290
 Red. masses --      1.6981                 1.0597                 1.0956
 Frc consts  --      2.1626                 1.4022                 1.4621
 IR Inten    --    231.2351                 6.8141                11.9733

                     70                     71                     72
                      A                      A                      A
 Frequencies --   1505.0575              1507.2658              1515.0288
 Red. masses --      1.0555                 1.4996                 1.2328
 Frc consts  --      1.4087                 2.0073                 1.6671
 IR Inten    --     15.6524                36.2529                22.6485

                     73                     74                     75
                      A                      A                      A
 Frequencies --   1520.3908              1524.2686              1527.2641
 Red. masses --      1.0900                 1.0615                 1.0672
 Frc consts  --      1.4845                 1.4531                 1.4666
 IR Inten    --      9.5776                 5.3070                12.3150

                     76                     77                     78
                      A                      A                      A
 Frequencies --   1535.1876              1544.1406              1551.9697
 Red. masses --      1.0926                 1.4661                 1.0747
 Frc consts  --      1.5171                 2.0596                 1.5251
 IR Inten    --      4.2230                 9.8367                44.6937

                     79                     80                     81
                      A                      A                      A
 Frequencies --   1560.0428              1610.7695              1657.3834
 Red. masses --      1.4357                 6.4027                 5.8937
 Frc consts  --      2.0586                 9.7877                 9.5387
 IR Inten    --    153.4485                56.4300               246.7753

                     82                     83                     84
                      A                      A                      A
 Frequencies --   1788.5615              3015.6471              3018.8094
 Red. masses --     10.8480                 1.0487                 1.0650
 Frc consts  --     20.4460                 5.6189                 5.7185
 IR Inten    --    126.2138                34.4552                14.7056

                     85                     86                     87
                      A                      A                      A
 Frequencies --   3023.8357              3034.5432              3039.5380
 Red. masses --      1.0759                 1.0373                 1.0508
 Frc consts  --      5.7963                 5.6276                 5.7198
 IR Inten    --     21.1087                24.1965                57.6491

                     88                     89                     90
                      A                      A                      A
 Frequencies --   3043.2195              3055.8663              3056.8042
 Red. masses --      1.0630                 1.0380                 1.1018
 Frc consts  --      5.8003                 5.7111                 6.0657
 IR Inten    --     86.6698                 2.0680                45.9275

                     91                     92                     93
                      A                      A                      A
 Frequencies --   3083.0900              3096.1177              3101.9272
 Red. masses --      1.0924                 1.1005                 1.1009
 Frc consts  --      6.1178                 6.2157                 6.2414
 IR Inten    --     32.9751                 7.7379                64.2074

                     94                     95                     96
                      A                      A                      A
 Frequencies --   3109.5315              3115.4760              3139.9346
 Red. masses --      1.1019                 1.0997                 1.0990
 Frc consts  --      6.2772                 6.2889                 6.3837
 IR Inten    --     45.1068                 8.2333                11.3158

                     97                     98                     99
                      A                      A                      A
 Frequencies --   3145.1245              3166.8505              3173.0508
 Red. masses --      1.0988                 1.0899                 1.1017
 Frc consts  --      6.4039                 6.4398                 6.5353
 IR Inten    --     19.8173                35.2129                11.4944

                    100                    101                    102
                      A                      A                      A
 Frequencies --   3176.0692              3232.3280              3257.0050
 Red. masses --      1.0901                 1.0922                 1.0894
 Frc consts  --      6.4791                 6.7233                 6.8086
 IR Inten    --      4.1177                 8.2099                 5.1942

 - Thermochemistry -
 -------------------
 Temperature   298.150 Kelvin.  Pressure   1.00000 Atm.
 Atom     1 has atomic number  6 and mass  12.00000

 Molecular mass:   220.15756 amu.
 Principal axes and moments of inertia in atomic units:
                           1         2         3
     Eigenvalues --  1986.002626567.584347007.04423
           X            0.99992  -0.00959  -0.00854
           Y            0.00923   0.99909  -0.04175
           Z            0.00893   0.04167   0.99909
 This molecule is an asymmetric top.
 Rotational symmetry number  1.
 Warning -- assumption of classical behavior for rotation
           may cause significant error
 Rotational temperatures (Kelvin)      0.04361     0.01319     0.01236
 Rotational constants (GHZ):           0.90873     0.27480     0.25756
 Zero-point vibrational energy     826780.1 (Joules/Mol)
                                  197.60519 (Kcal/Mol)
 Warning -- explicit consideration of  27 degrees of freedom as
           vibrations may cause significant error
 Vibrational temperatures:     31.98    41.11    72.82   120.84   130.70
          (Kelvin)            189.56   208.15   232.44   248.67   268.08
                              290.59   338.74   346.45   377.45   430.02
                              457.28   500.86   560.89   588.34   613.14
                              627.87   668.77   726.60   754.66   773.70
                              851.26   862.78   964.58  1060.42  1083.54
                             1109.91  1160.23  1166.84  1283.11  1288.41
                             1326.86  1361.96  1393.48  1395.01  1412.32
                             1433.58  1452.61  1463.52  1520.12  1524.41
                             1612.18  1622.71  1649.07  1660.89  1672.40
                             1718.56  1739.11  1789.85  1843.09  1845.32
                             1873.78  1927.62  1941.55  1953.75  1991.98
                             2019.60  2030.35  2035.71  2052.33  2057.93
                             2086.89  2115.31  2156.15  2165.40  2165.44
                             2168.62  2179.79  2187.50  2193.08  2197.39
                             2208.79  2221.67  2232.94  2244.55  2317.54
                             2384.61  2573.34  4338.84  4343.39  4350.63
                             4366.03  4373.22  4378.51  4396.71  4398.06
                             4435.88  4454.62  4462.98  4473.92  4482.48
                             4517.67  4525.13  4556.39  4565.31  4569.66
                             4650.60  4686.10

 Zero-point correction=                           0.314904 (Hartree/Particle)
 Thermal correction to Energy=                    0.331981
 Thermal correction to Enthalpy=                  0.332925
 Thermal correction to Gibbs Free Energy=         0.269072
 Sum of electronic and zero-point Energies=           -691.918723
 Sum of electronic and thermal Energies=              -691.901646
 Sum of electronic and thermal Enthalpies=            -691.900702
 Sum of electronic and thermal Free Energies=         -691.964555

                     E (Thermal)             CV                S
                      KCal/Mol        Cal/Mol-Kelvin    Cal/Mol-Kelvin
 Total                  208.321             63.703            134.391
 Electronic               0.000              0.000              0.000
 Translational            0.889              2.981             42.070
 Rotational               0.889              2.981             32.880
 Vibrational            206.544             57.741             59.440
 Vibration     1          0.593              1.985              6.425
 Vibration     2          0.593              1.984              5.926
 Vibration     3          0.595              1.977              4.793
 Vibration     4          0.601              1.960              3.795
 Vibration     5          0.602              1.956              3.642
 Vibration     6          0.612              1.922              2.920
 Vibration     7          0.616              1.908              2.741
 Vibration     8          0.622              1.890              2.532
 Vibration     9          0.626              1.876              2.404
 Vibration    10          0.632              1.859              2.264
 Vibration    11          0.639              1.837              2.115
 Vibration    12          0.655              1.787              1.837
 Vibration    13          0.658              1.778              1.797
 Vibration    14          0.670              1.742              1.646
 Vibration    15          0.692              1.676              1.423
 Vibration    16          0.704              1.640              1.321
 Vibration    17          0.726              1.579              1.175
 Vibration    18          0.758              1.492              1.001
 Vibration    19          0.773              1.451              0.930
 Vibration    20          0.788              1.413              0.871
 Vibration    21          0.797              1.391              0.838
 Vibration    22          0.822              1.328              0.752
 Vibration    23          0.860              1.239              0.646
 Vibration    24          0.879              1.196              0.600
 Vibration    25          0.893              1.167              0.570
 Vibration    26          0.949              1.050              0.464
 Vibration    27          0.958              1.033              0.450

 Optimization completed.
    -- Stationary point found.
 Normal termination of Gaussian 16 at Thu Dec 10 21:38:50 2020.

 ----------------------------------------------------------------------
 # B3LYP/6-311++G(d,p) empiricaldispersion=gd3bj scf=xqc pop=npa geom=c
 heck
 ----------------------------------------------------------------------

 --------------------------------------
 CID_80341291_JID_6098_Energie_neutraal
 --------------------------------------
 Structure from the checkpoint file:  "JID_6098.chk"
 Charge =  0 Multiplicity = 1

 SCF Done:  E(RB3LYP) =  -692.421480439     A.U. after   16 cycles
 Normal termination of Gaussian 16 at Thu Dec 10 21:44:37 2020.

 ----------------------------------------------------------------------
 # B3LYP/6-311++G(d,p) empiricaldispersion=gd3bj scf=xqc pop=npa geom=c
 heck
 ----------------------------------------------------------------------

 ------------------------------------
 CID_80341291_JID_6098_Energie_kation
 ------------------------------------
 Structure from the checkpoint file:  "JID_6098.chk"
 Charge =  1 Multiplicity = 2

 SCF Done:  E(UB3LYP) =  -692.148437097     A.U. after   23 cycles
 Normal termination of Gaussian 16 at Thu Dec 10 21:57:41 2020.
 Gaussian 16:  ES64L-G16RevA.03 25-Dec-2016

 ----------------------------------------------------------------------
 # B3LYP/6-311++G(d,p) empiricaldispersion=gd3bj scf=xqc pop=npa geom=c
 heck
 ----------------------------------------------------------------------

 -----------------------------------
 CID_80341291_JID_6098_Energie_anion
 -----------------------------------
 Structure from the checkpoint file:  "JID_6098.chk"
 Charge = -1 Multiplicity = 2

                         Standard orientation:
 ---------------------------------------------------------------------
 Center     Atomic      Atomic             Coordinates (Angstroms)
 Number     Number       Type             X           Y           Z
 ---------------------------------------------------------------------
      1          6           0        2.887577    1.918688   -0.364699
      2          6           0        2.919166    0.479805   -0.894806
      3          6           0        3.879472    0.358775   -2.084762
      4          6           0        3.300967   -0.530902    0.199307
      5          6           0        2.280254   -0.683787    1.337555
      6          7           0        0.973779   -1.158450    0.885562
      7          6           0        0.898990   -2.503394    0.347916
      8          6           0       -0.096544   -0.307217    0.752019
      9          7           0        0.026578    0.936649    1.263807
     10          6           0       -1.009671    1.770540    1.170987
     11          6           0       -2.226651    1.451314    0.576808
     12          6           0       -2.357593    0.165695    0.031039
     13          6           0       -1.289370   -0.719769    0.112762
     14          6           0       -3.609451   -0.304935   -0.656970
     15          8           0       -3.677024   -1.429715   -1.125080
     16          6           0       -4.780837    0.653131   -0.752812
     17          1           0        3.873181    2.208908    0.023380
     18          1           0        2.150066    2.035093    0.433979
     19          1           0        2.627312    2.620493   -1.165834
     20          1           0        1.909456    0.225696   -1.248625
     21          1           0        4.908138    0.593222   -1.781215
     22          1           0        3.877793   -0.655836   -2.500906
     23          1           0        3.604433    1.052872   -2.887208
     24          1           0        3.467762   -1.513538   -0.264023
     25          1           0        4.263539   -0.238979    0.644341
     26          1           0        2.665389   -1.402445    2.073073
     27          1           0        2.120776    0.261997    1.852425
     28          1           0        0.011806   -3.026429    0.722135
     29          1           0        0.870546   -2.522973   -0.751598
     30          1           0        1.780086   -3.059059    0.675795
     31          1           0       -0.852989    2.759435    1.599132
     32          1           0       -3.026057    2.181286    0.538239
     33          1           0       -1.404813   -1.699790   -0.329331
     34          1           0       -5.112486    0.962799    0.245183
     35          1           0       -4.496175    1.561592   -1.296474
     36          1           0       -5.601914    0.158323   -1.273472
 ---------------------------------------------------------------------

 SCF Done:  E(UB3LYP) =  -692.436721889     A.U. after   28 cycles

 The electronic state is 2-A.
 Alpha  occ. eigenvalues --  -18.91578 -14.19904 -14.13320 -10.08673 -10.08549
 Alpha  occ. eigenvalues --  -10.08386 -10.07159 -10.06857 -10.06469 -10.06044
 Alpha  occ. eigenvalues --  -10.04992 -10.04566 -10.02409 -10.01040 -10.00768
 Alpha  occ. eigenvalues --   -9.99970  -0.85756  -0.83459  -0.76605  -0.70916
 Alpha  occ. eigenvalues --   -0.64602  -0.63516  -0.60688  -0.58686  -0.58518
 Alpha  occ. eigenvalues --   -0.56555  -0.52249  -0.47848  -0.46242  -0.44812
 Alpha  occ. eigenvalues --   -0.40924  -0.37160  -0.36637  -0.35391  -0.34242
 Alpha  occ. eigenvalues --   -0.33572  -0.33257  -0.31997  -0.30333  -0.30093
 Alpha  occ. eigenvalues --   -0.29192  -0.29129  -0.28573  -0.27568  -0.27255
 Alpha  occ. eigenvalues --   -0.26450  -0.25837  -0.25210  -0.25054  -0.22834
 Alpha  occ. eigenvalues --   -0.22790  -0.22463  -0.21743  -0.20793  -0.20399
 Alpha  occ. eigenvalues --   -0.15540  -0.12469  -0.10828  -0.07936  -0.06553
 Alpha  occ. eigenvalues --    0.04549
 Alpha virt. eigenvalues --    0.06731   0.08131   0.08770   0.09249   0.09957
 Alpha virt. eigenvalues --    0.10828   0.10976   0.11396   0.11518   0.12258
 Alpha virt. eigenvalues --    0.12964   0.13163   0.13618   0.14097   0.14360

  Beta  occ. eigenvalues --  -18.91028 -14.19913 -14.12938 -10.08703 -10.08543
  Beta  occ. eigenvalues --  -10.08387 -10.07159 -10.06856 -10.06465 -10.05719
  Beta  occ. eigenvalues --  -10.04989 -10.04538 -10.02440 -10.01002 -10.00528
  Beta  occ. eigenvalues --   -9.99783  -0.84753  -0.83358  -0.76204  -0.70909
  Beta  occ. eigenvalues --   -0.64074  -0.63401  -0.60512  -0.58515  -0.58447
  Beta  occ. eigenvalues --   -0.56429  -0.52094  -0.47321  -0.46161  -0.44518
  Beta  occ. eigenvalues --   -0.40715  -0.37126  -0.36502  -0.35262  -0.33954
  Beta  occ. eigenvalues --   -0.33516  -0.33108  -0.31943  -0.30205  -0.29977
  Beta  occ. eigenvalues --   -0.29165  -0.28482  -0.28391  -0.27531  -0.27182
  Beta  occ. eigenvalues --   -0.26383  -0.25779  -0.24725  -0.24430  -0.22792
  Beta  occ. eigenvalues --   -0.22546  -0.22338  -0.21643  -0.20572  -0.18096
  Beta  occ. eigenvalues --   -0.15014  -0.10415  -0.10349  -0.07408  -0.05737
  Beta virt. eigenvalues --    0.06669   0.08064   0.08699   0.09186   0.09880
  Beta virt. eigenvalues --    0.10757   0.10821   0.10981   0.11413   0.11525
  Beta virt. eigenvalues --    0.12203   0.13082   0.13195   0.13566   0.14082

 Mulliken charges and spin densities:
               1          2
     1  C   -0.728119  -0.010570
     2  C    0.408541   0.026017
     3  C   -0.486249  -0.016044
     4  C   -0.189346  -0.058297
     5  C   -0.467255   0.023662
     6  N    0.209535   0.000563
     7  C   -0.331942  -0.025152
     8  C   -0.913755  -0.053484
     9  N   -0.132891   0.173768
    10  C   -0.348751   0.053495
    11  C   -0.903827   0.076964
    12  C    1.671920   0.138613
    13  C   -0.323477   0.204630
    14  C   -0.213910   0.176679
    15  O   -0.390172   0.202474
    16  C   -0.501062  -0.015932
    17  H    0.096020   0.010746
    18  H    0.168562  -0.001857
    19  H    0.114955  -0.000140
    20  H    0.169722   0.001781
    21  H    0.113036   0.004755
    22  H    0.122991   0.001862
    23  H    0.131485   0.001632
    24  H    0.112417   0.003445
    25  H    0.102753   0.013404
    26  H    0.134931   0.020362
    27  H    0.210216  -0.007243
    28  H    0.142979   0.018629
    29  H    0.160646   0.004091
    30  H    0.098179   0.006482
    31  H    0.117139  -0.005379
    32  H    0.098953  -0.000301
    33  H    0.194590  -0.013077
    34  H    0.103082   0.021856
    35  H    0.103642   0.023571
    36  H    0.144461  -0.002005
 Sum of Mulliken charges =  -1.00000   1.00000

 Dipole moment (field-independent basis, Debye):
    X=              8.4006    Y=              0.7312    Z=              0.4006  Tot=              8.4419
 Quadrupole moment (field-independent basis, Debye-Ang):
   XX=           -150.7731   YY=           -114.5111   ZZ=           -115.5335
   XY=            -12.4520   XZ=             -7.1032   YZ=             -5.5501

 Summary of Natural Population Analysis:

                                       Natural Population
                Natural  -----------------------------------------------
    Atom  No    Charge         Core      Valence    Rydberg      Total
 -----------------------------------------------------------------------
      C    1   -0.29019      0.99965     2.28532    0.00521     3.29019
      C    2   -0.12078      0.99962     2.11422    0.00695     3.12078
      C    3   -0.28047      0.99966     2.27627    0.00455     3.28047
      C    4   -0.19005      0.99961     2.18345    0.00699     3.19005
      C    5   -0.08250      0.99961     2.07341    0.00948     3.08250
      N    6   -0.26231      0.99964     2.75096    0.01172     3.76231
      C    7   -0.17482      0.99966     2.16849    0.00667     3.17482
      C    8    0.19464      0.99952     1.78999    0.01585     2.80536
      N    9   -0.23378      0.99966     2.72124    0.01288     3.73378
      C   10    0.02763      0.99961     1.95837    0.01439     2.97237
      C   11   -0.13578      0.99953     2.12830    0.00796     3.13578
      C   12   -0.00167      0.99948     1.98965    0.01254     3.00167
      C   13   -0.09915      0.99949     2.09239    0.00727     3.09915
      C   14    0.30834      0.99966     1.67191    0.02009     2.69166
      O   15   -0.25111      0.99988     3.24421    0.00702     4.25111
      C   16   -0.33111      0.99964     2.32739    0.00407     3.33111
      H   17    0.08615      0.00000     0.41297    0.00088     0.41385
      H   18    0.11936      0.00000     0.37947    0.00117     0.38064
      H   19    0.09454      0.00000     0.40470    0.00076     0.40546
      H   20    0.10361      0.00000     0.39464    0.00175     0.39639
      H   21    0.09070      0.00000     0.40837    0.00093     0.40930
      H   22    0.09522      0.00000     0.40399    0.00079     0.40478
      H   23    0.09609      0.00000     0.40310    0.00081     0.40391
      H   24    0.09140      0.00000     0.40752    0.00107     0.40860
      H   25    0.08888      0.00000     0.40875    0.00237     0.41112
      H   26    0.08403      0.00000     0.41491    0.00106     0.41597
      H   27    0.11800      0.00000     0.38079    0.00121     0.38200
      H   28    0.09846      0.00000     0.40008    0.00146     0.40154
      H   29    0.08793      0.00000     0.41042    0.00165     0.41207
      H   30    0.08936      0.00000     0.40975    0.00089     0.41064
      H   31    0.07623      0.00000     0.42245    0.00132     0.42377
      H   32    0.09445      0.00000     0.40459    0.00096     0.40555
      H   33    0.10800      0.00000     0.39069    0.00131     0.39200
      H   34    0.10037      0.00000     0.39859    0.00104     0.39963
      H   35    0.10043      0.00000     0.39854    0.00104     0.39957
      H   36    0.09989      0.00000     0.39860    0.00151     0.40011
 =======================================================================
   * Total *   -0.00000     15.99392    43.82847    0.17760    60.00000

 Normal termination of Gaussian 16 at Thu Dec 10 22:15:13 2020.
