 Gaussian 16, Revision A.03,

 -----------------------------------------------------------
 # opt freq B3LYP/6-31G(d) empiricaldispersion=gd3bj scf=xqc
 -----------------------------------------------------------

 ------------------------------
 CID_79397877_JID_7111_neutraal
 ------------------------------
 Symbolic Z-matrix:
 Charge =  0 Multiplicity = 1

 SCF Done:  E(RB3LYP) =  -711.653953365     A.U. after   14 cycles
 SCF Done:  E(RB3LYP) =  -711.654220200     A.U. after   13 cycles
 SCF Done:  E(RB3LYP) =  -711.657188631     A.U. after   12 cycles
 SCF Done:  E(RB3LYP) =  -711.657647100     A.U. after   11 cycles
 SCF Done:  E(RB3LYP) =  -711.658325879     A.U. after   11 cycles
 SCF Done:  E(RB3LYP) =  -711.658504186     A.U. after   11 cycles
 SCF Done:  E(RB3LYP) =  -711.658570849     A.U. after   11 cycles
 SCF Done:  E(RB3LYP) =  -711.658600758     A.U. after   11 cycles
 SCF Done:  E(RB3LYP) =  -711.658628821     A.U. after   11 cycles
 SCF Done:  E(RB3LYP) =  -711.658631885     A.U. after   12 cycles
 SCF Done:  E(RB3LYP) =  -711.660825743     A.U. after   10 cycles
 SCF Done:  E(RB3LYP) =  -711.660842765     A.U. after   10 cycles
 SCF Done:  E(RB3LYP) =  -711.660843485     A.U. after    8 cycles
 SCF Done:  E(RB3LYP) =  -711.660844351     A.U. after    8 cycles
 SCF Done:  E(RB3LYP) =  -711.660844449     A.U. after    7 cycles
 Optimization completed.
    -- Stationary point found.
 Normal termination of Gaussian 16 at Mon Dec 14 13:48:02 2020.

 --------------------------------------------------------------------
 #N Geom=AllCheck Guess=TCheck SCRF=Check GenChk RB3LYP/6-31G(d) Freq
 --------------------------------------------------------------------

 Structure from the checkpoint file:  "JID_7111.chk"
 ------------------------------
 CID_79397877_JID_7111_neutraal
 ------------------------------
 Charge =  0 Multiplicity = 1

 SCF Done:  E(RB3LYP) =  -711.660844449     A.U. after    1 cycles

  Exact polarizability: 173.603  11.851 157.690 -15.467   6.285 141.860
 Approx polarizability: 219.203  22.573 253.068 -31.428  16.184 232.066

                      1                      2                      3
                      A                      A                      A
 Frequencies --     35.0971                59.3544                72.1596
 Red. masses --      3.8075                 4.6147                 3.6769
 Frc consts  --      0.0028                 0.0096                 0.0113
 IR Inten    --      0.9169                 0.5512                 0.3823

                      4                      5                      6
                      A                      A                      A
 Frequencies --     79.3991               124.2201               144.9546
 Red. masses --      4.3743                 3.0048                 3.0508
 Frc consts  --      0.0162                 0.0273                 0.0378
 IR Inten    --      0.3876                 0.1939                 0.4564

                      7                      8                      9
                      A                      A                      A
 Frequencies --    160.4819               183.9228               216.7256
 Red. masses --      2.3124                 4.1627                 1.2391
 Frc consts  --      0.0351                 0.0830                 0.0343
 IR Inten    --      3.7539                 3.5489                 6.9738

                     10                     11                     12
                      A                      A                      A
 Frequencies --    239.2905               254.6588               269.2493
 Red. masses --      2.6246                 1.1540                 1.5887
 Frc consts  --      0.0885                 0.0441                 0.0679
 IR Inten    --      0.3877                 3.3966                24.9277

                     13                     14                     15
                      A                      A                      A
 Frequencies --    298.0973               307.8631               313.6099
 Red. masses --      1.9261                 1.8147                 1.8955
 Frc consts  --      0.1008                 0.1013                 0.1098
 IR Inten    --      2.9496                 7.4788                 8.2903

                     16                     17                     18
                      A                      A                      A
 Frequencies --    342.7322               371.1509               381.1119
 Red. masses --      3.4299                 2.2746                 2.6884
 Frc consts  --      0.2374                 0.1846                 0.2301
 IR Inten    --      6.0208                 6.0736                 0.3688

                     19                     20                     21
                      A                      A                      A
 Frequencies --    417.0984               428.5732               462.5169
 Red. masses --      3.5097                 2.4471                 3.7665
 Frc consts  --      0.3597                 0.2648                 0.4747
 IR Inten    --      6.4962                 2.8720                 3.3246

                     22                     23                     24
                      A                      A                      A
 Frequencies --    490.1243               518.0232               545.1312
 Red. masses --      2.4752                 3.7853                 3.0811
 Frc consts  --      0.3503                 0.5985                 0.5395
 IR Inten    --      8.0397                 3.5489                 4.7886

                     25                     26                     27
                      A                      A                      A
 Frequencies --    585.7569               590.1810               640.7228
 Red. masses --      2.5414                 2.7865                 6.0128
 Frc consts  --      0.5138                 0.5718                 1.4543
 IR Inten    --      0.2411                 6.8429                 2.3845

                     28                     29                     30
                      A                      A                      A
 Frequencies --    659.5747               714.6922               762.7227
 Red. masses --      2.5688                 2.7977                 2.2612
 Frc consts  --      0.6584                 0.8420                 0.7750
 IR Inten    --      0.0319                 1.5282                 4.6303

                     31                     32                     33
                      A                      A                      A
 Frequencies --    778.5621               793.8055               806.3659
 Red. masses --      1.7362                 2.9812                 2.2603
 Frc consts  --      0.6201                 1.1068                 0.8659
 IR Inten    --     24.8531                 2.7271                 0.2301

                     34                     35                     36
                      A                      A                      A
 Frequencies --    855.7159               882.0884               902.8038
 Red. masses --      2.1089                 1.7481                 1.3279
 Frc consts  --      0.9098                 0.8014                 0.6377
 IR Inten    --     10.6825                21.7305                 0.9916

                     37                     38                     39
                      A                      A                      A
 Frequencies --    919.9729               931.1686               959.3093
 Red. masses --      2.0457                 1.4744                 2.1737
 Frc consts  --      1.0201                 0.7532                 1.1786
 IR Inten    --      6.4410               122.9915                 5.0805

                     40                     41                     42
                      A                      A                      A
 Frequencies --    971.0886               976.9414               991.2566
 Red. masses --      1.9428                 1.4924                 2.1117
 Frc consts  --      1.0794                 0.8392                 1.2225
 IR Inten    --     39.8940                 0.5539                 4.3329

                     43                     44                     45
                      A                      A                      A
 Frequencies --   1002.2757              1013.1421              1015.2038
 Red. masses --      1.2857                 2.6719                 3.3926
 Frc consts  --      0.7610                 1.6159                 2.0601
 IR Inten    --      0.0821                 8.5960                 1.6761

                     46                     47                     48
                      A                      A                      A
 Frequencies --   1041.4022              1044.1992              1047.8925
 Red. masses --      1.3856                 1.8721                 1.9490
 Frc consts  --      0.8854                 1.2027                 1.2609
 IR Inten    --      2.3503                17.3198                 2.5803

                     49                     50                     51
                      A                      A                      A
 Frequencies --   1066.0780              1080.6394              1110.5506
 Red. masses --      1.8232                 2.2599                 1.8139
 Frc consts  --      1.2208                 1.5549                 1.3181
 IR Inten    --      0.1260                 3.2975                 0.9051

                     52                     53                     54
                      A                      A                      A
 Frequencies --   1128.1735              1130.8216              1135.1558
 Red. masses --      2.0117                 1.7031                 2.5739
 Frc consts  --      1.5086                 1.2831                 1.9542
 IR Inten    --     37.9862                 1.6247                26.0205

                     55                     56                     57
                      A                      A                      A
 Frequencies --   1166.7910              1183.9790              1187.8482
 Red. masses --      1.5490                 1.3778                 1.2831
 Frc consts  --      1.2425                 1.1380                 1.0667
 IR Inten    --     23.5510                27.1642                22.8986

                     58                     59                     60
                      A                      A                      A
 Frequencies --   1201.3826              1220.9735              1263.4275
 Red. masses --      2.1085                 1.5385                 1.6099
 Frc consts  --      1.7930                 1.3513                 1.5141
 IR Inten    --      4.2794                 4.6713                 6.9145

                     61                     62                     63
                      A                      A                      A
 Frequencies --   1266.9359              1276.4289              1286.7022
 Red. masses --      2.2969                 1.6565                 1.4331
 Frc consts  --      2.1722                 1.5901                 1.3979
 IR Inten    --      4.9677                11.8888                 3.9463

                     64                     65                     66
                      A                      A                      A
 Frequencies --   1318.8015              1334.0773              1345.7152
 Red. masses --      3.4854                 1.5229                 1.2915
 Frc consts  --      3.5716                 1.5969                 1.3780
 IR Inten    --      1.4253                25.2556                 0.5753

                     67                     68                     69
                      A                      A                      A
 Frequencies --   1352.0914              1358.6145              1364.8195
 Red. masses --      1.5702                 1.5018                 1.2719
 Frc consts  --      1.6912                 1.6333                 1.3959
 IR Inten    --      3.1438                 4.5628                 2.8691

                     70                     71                     72
                      A                      A                      A
 Frequencies --   1389.6247              1398.8866              1410.0707
 Red. masses --      1.4484                 1.3526                 1.2923
 Frc consts  --      1.6479                 1.5595                 1.5139
 IR Inten    --     18.6329                 5.3544                 6.2254

                     73                     74                     75
                      A                      A                      A
 Frequencies --   1415.9696              1419.7769              1430.5927
 Red. masses --      1.3261                 1.3942                 1.3358
 Frc consts  --      1.5665                 1.6559                 1.6108
 IR Inten    --     19.6256                32.8960                13.8893

                     76                     77                     78
                      A                      A                      A
 Frequencies --   1435.1737              1447.5231              1454.2273
 Red. masses --      1.2594                 1.3674                 1.3818
 Frc consts  --      1.5284                 1.6880                 1.7217
 IR Inten    --      8.0375                 7.9604                 3.8049

                     79                     80                     81
                      A                      A                      A
 Frequencies --   1482.0521              1504.1391              1509.2007
 Red. masses --      2.1388                 1.0920                 1.1706
 Frc consts  --      2.7679                 1.4556                 1.5709
 IR Inten    --     21.2361                 8.2701                 3.6207

                     82                     83                     84
                      A                      A                      A
 Frequencies --   1511.3889              1522.6828              1529.4684
 Red. masses --      1.0921                 1.0639                 1.8613
 Frc consts  --      1.4699                 1.4533                 2.5653
 IR Inten    --      2.1296                 5.2678                14.5744

                     85                     86                     87
                      A                      A                      A
 Frequencies --   1532.0254              1538.1836              1540.6100
 Red. masses --      1.0526                 1.1215                 1.0534
 Frc consts  --      1.4556                 1.5634                 1.4731
 IR Inten    --      4.5013                 9.8726                 2.8325

                     88                     89                     90
                      A                      A                      A
 Frequencies --   1550.7253              1630.7937              1651.8605
 Red. masses --      1.0854                 5.6438                 5.4324
 Frc consts  --      1.5378                 8.8434                 8.7335
 IR Inten    --      1.9582                16.3460                47.0149

                     91                     92                     93
                      A                      A                      A
 Frequencies --   1699.8534              2975.1440              2981.1434
 Red. masses --      1.0885                 1.0713                 1.0723
 Frc consts  --      1.8531                 5.5872                 5.6147
 IR Inten    --     26.1234                89.1971                26.6295

                     94                     95                     96
                      A                      A                      A
 Frequencies --   3026.7920              3031.7565              3038.1479
 Red. masses --      1.0846                 1.0613                 1.0831
 Frc consts  --      5.8546                 5.7476                 5.8904
 IR Inten    --     24.3700                32.5343                19.8990

                     97                     98                     99
                      A                      A                      A
 Frequencies --   3046.5120              3050.4776              3054.5869
 Red. masses --      1.0685                 1.0593                 1.0491
 Frc consts  --      5.8431                 5.8077                 5.7675
 IR Inten    --     40.0433                17.2418                19.6281

                    100                    101                    102
                      A                      A                      A
 Frequencies --   3060.4024              3063.8930              3076.2438
 Red. masses --      1.0843                 1.0626                 1.1027
 Frc consts  --      5.9836                 5.8770                 6.1482
 IR Inten    --     72.3717                13.3509                65.0093

                    103                    104                    105
                      A                      A                      A
 Frequencies --   3076.7653              3109.5369              3121.4267
 Red. masses --      1.0906                 1.0996                 1.0949
 Frc consts  --      6.0829                 6.2645                 6.2853
 IR Inten    --     18.6233                33.6832                20.0751

                    106                    107                    108
                      A                      A                      A
 Frequencies --   3129.8281              3136.4662              3161.9808
 Red. masses --      1.0933                 1.1013                 1.1001
 Frc consts  --      6.3102                 6.3834                 6.4806
 IR Inten    --     23.9372                34.1654                16.9936

                    109                    110                    111
                      A                      A                      A
 Frequencies --   3169.1856              3186.4813              3201.3113
 Red. masses --      1.0891                 1.0874                 1.0930
 Frc consts  --      6.4446                 6.5049                 6.5997
 IR Inten    --     25.0921                 4.2040                21.2075

                    112                    113                    114
                      A                      A                      A
 Frequencies --   3216.4479              3452.0163              3533.3728
 Red. masses --      1.0973                 1.0496                 1.0913
 Frc consts  --      6.6886                 7.3689                 8.0274
 IR Inten    --     19.6332                 3.9454                 1.2911

 - Thermochemistry -
 -------------------
 Temperature   298.150 Kelvin.  Pressure   1.00000 Atm.
 Atom     1 has atomic number  6 and mass  12.00000

 Molecular mass:   233.18920 amu.
 Principal axes and moments of inertia in atomic units:
                           1         2         3
     Eigenvalues --  1930.273686589.396446892.22937
           X            0.99999   0.00147  -0.00490
           Y           -0.00141   0.99994   0.01080
           Z            0.00491  -0.01079   0.99993
 This molecule is an asymmetric top.
 Rotational symmetry number  1.
 Warning -- assumption of classical behavior for rotation
           may cause significant error
 Rotational temperatures (Kelvin)      0.04487     0.01314     0.01257
 Rotational constants (GHZ):           0.93497     0.27389     0.26185
 Zero-point vibrational energy     946767.4 (Joules/Mol)
                                  226.28284 (Kcal/Mol)
 Warning -- explicit consideration of  26 degrees of freedom as
           vibrations may cause significant error
 Vibrational temperatures:     50.50    85.40   103.82   114.24   178.73
          (Kelvin)            208.56   230.90   264.62   311.82   344.29
                              366.40   387.39   428.90   442.95   451.21
                              493.12   534.00   548.33   600.11   616.62
                              665.46   705.18   745.32   784.32   842.77
                              849.14   921.86   948.98  1028.28  1097.39
                             1120.18  1142.11  1160.18  1231.18  1269.13
                             1298.93  1323.64  1339.74  1380.23  1397.18
                             1405.60  1426.20  1442.05  1457.69  1460.65
                             1498.35  1502.37  1507.68  1533.85  1554.80
                             1597.83  1623.19  1627.00  1633.24  1678.75
                             1703.48  1709.05  1728.52  1756.71  1817.79
                             1822.84  1836.50  1851.28  1897.46  1919.44
                             1936.18  1945.36  1954.74  1963.67  1999.36
                             2012.69  2028.78  2037.26  2042.74  2058.30
                             2064.89  2082.66  2092.31  2132.34  2164.12
                             2171.40  2174.55  2190.80  2200.56  2204.24
                             2213.10  2216.59  2231.15  2346.35  2376.66
                             2445.71  4280.57  4289.20  4354.88  4362.02
                             4371.22  4383.25  4388.96  4394.87  4403.24
                             4408.26  4426.03  4426.78  4473.93  4491.04
                             4503.12  4512.68  4549.39  4559.75  4584.64
                             4605.97  4627.75  4966.68  5083.74

 Zero-point correction=                           0.360605 (Hartree/Particle)
 Thermal correction to Energy=                    0.377077
 Thermal correction to Enthalpy=                  0.378021
 Thermal correction to Gibbs Free Energy=         0.317114
 Sum of electronic and zero-point Energies=           -711.300240
 Sum of electronic and thermal Energies=              -711.283767
 Sum of electronic and thermal Enthalpies=            -711.282823
 Sum of electronic and thermal Free Energies=         -711.343730

                     E (Thermal)             CV                S
                      KCal/Mol        Cal/Mol-Kelvin    Cal/Mol-Kelvin
 Total                  236.619             65.459            128.190
 Electronic               0.000              0.000              0.000
 Translational            0.889              2.981             42.242
 Rotational               0.889              2.981             32.838
 Vibrational            234.842             59.497             53.110
 Vibration     1          0.594              1.982              5.518
 Vibration     2          0.597              1.974              4.479
 Vibration     3          0.598              1.967              4.094
 Vibration     4          0.600              1.963              3.906
 Vibration     5          0.610              1.929              3.034
 Vibration     6          0.616              1.908              2.737
 Vibration     7          0.622              1.891              2.544
 Vibration     8          0.631              1.862              2.288
 Vibration     9          0.646              1.816              1.986
 Vibration    10          0.657              1.780              1.808
 Vibration    11          0.665              1.755              1.698
 Vibration    12          0.674              1.730              1.601
 Vibration    13          0.691              1.677              1.428
 Vibration    14          0.698              1.659              1.374
 Vibration    15          0.701              1.648              1.343
 Vibration    16          0.722              1.590              1.199
 Vibration    17          0.743              1.531              1.075
 Vibration    18          0.751              1.510              1.035
 Vibration    19          0.780              1.433              0.902
 Vibration    20          0.790              1.408              0.863
 Vibration    21          0.820              1.333              0.759
 Vibration    22          0.846              1.272              0.683
 Vibration    23          0.873              1.210              0.615
 Vibration    24          0.900              1.150              0.554
 Vibration    25          0.943              1.062              0.475
 Vibration    26          0.948              1.053              0.467

 Optimization completed.
    -- Stationary point found.
 Normal termination of Gaussian 16 at Mon Dec 14 14:05:22 2020.

 ----------------------------------------------------------------------
 # B3LYP/6-311++G(d,p) empiricaldispersion=gd3bj scf=xqc pop=npa geom=c
 heck
 ----------------------------------------------------------------------

 --------------------------------------
 CID_79397877_JID_7111_Energie_neutraal
 --------------------------------------
 Structure from the checkpoint file:  "JID_7111.chk"
 Charge =  0 Multiplicity = 1

 SCF Done:  E(RB3LYP) =  -711.856735445     A.U. after   15 cycles
 Normal termination of Gaussian 16 at Mon Dec 14 14:14:43 2020.

 ----------------------------------------------------------------------
 # B3LYP/6-311++G(d,p) empiricaldispersion=gd3bj scf=xqc pop=npa geom=c
 heck
 ----------------------------------------------------------------------

 ------------------------------------
 CID_79397877_JID_7111_Energie_kation
 ------------------------------------
 Structure from the checkpoint file:  "JID_7111.chk"
 Charge =  1 Multiplicity = 2

 SCF Done:  E(UB3LYP) =  -711.595447788     A.U. after   23 cycles
 Normal termination of Gaussian 16 at Mon Dec 14 14:35:05 2020.
 Gaussian 16:  ES64L-G16RevA.03 25-Dec-2016

 ----------------------------------------------------------------------
 # B3LYP/6-311++G(d,p) empiricaldispersion=gd3bj scf=xqc pop=npa geom=c
 heck
 ----------------------------------------------------------------------

 -----------------------------------
 CID_79397877_JID_7111_Energie_anion
 -----------------------------------
 Structure from the checkpoint file:  "JID_7111.chk"
 Charge = -1 Multiplicity = 2

                         Standard orientation:
 ---------------------------------------------------------------------
 Center     Atomic      Atomic             Coordinates (Angstroms)
 Number     Number       Type             X           Y           Z
 ---------------------------------------------------------------------
      1          6           0        3.361563    0.696196    1.507030
      2          6           0        2.440613   -0.425912    1.012145
      3          6           0        0.958586    0.027966    1.033404
      4          7           0        0.764300    1.044964   -0.003480
      5          6           0        1.073450    0.638170   -1.365611
      6          6           0        2.511920    0.117779   -1.460423
      7          6           0        2.810512   -0.946484   -0.392824
      8          7           0        4.190199   -1.453990   -0.406589
      9          6           0       -0.272627    2.043773    0.153797
     10          6           0       -1.580900    1.898863   -0.675122
     11          6           0       -2.417650    0.687179   -0.369062
     12          6           0       -3.231411    0.640255    0.772197
     13          6           0       -3.959155   -0.513893    1.043427
     14          6           0       -3.858784   -1.591487    0.163237
     15          6           0       -3.035905   -1.449792   -0.952549
     16          7           0       -2.329703   -0.345987   -1.223064
     17          6           0       -0.004790   -1.174571    0.992561
     18          1           0        4.412432    0.388138    1.500095
     19          1           0        3.109508    0.959576    2.541038
     20          1           0        3.250155    1.600601    0.902005
     21          1           0        2.546351   -1.273591    1.700172
     22          1           0        0.796642    0.540157    1.991302
     23          1           0        0.964373    1.516569   -2.013457
     24          1           0        0.368023   -0.117969   -1.751111
     25          1           0        3.208955    0.956761   -1.335243
     26          1           0        2.687406   -0.301308   -2.460477
     27          1           0        2.170574   -1.815615   -0.594503
     28          1           0        4.365332   -1.909317   -1.302275
     29          1           0        4.836072   -0.665326   -0.375320
     30          1           0       -0.527026    2.099215    1.218607
     31          1           0        0.139379    3.029073   -0.121035
     32          1           0       -2.168554    2.808368   -0.492006
     33          1           0       -1.335707    1.880433   -1.740455
     34          1           0       -3.284452    1.500461    1.433819
     35          1           0       -4.594138   -0.572600    1.923216
     36          1           0       -4.405691   -2.513787    0.331755
     37          1           0       -2.935684   -2.264120   -1.668282
     38          1           0        0.303231   -1.927884    1.727482
     39          1           0       -1.024488   -0.868629    1.233622
     40          1           0       -0.028811   -1.652364    0.009743
 ---------------------------------------------------------------------

 SCF Done:  E(UB3LYP) =  -711.845113187     A.U. after   33 cycles
 SCF Done:  E(UB3LYP) =  -711.845113186     a.u. after    1 cycles

 The electronic state is 2-A.
 Alpha  occ. eigenvalues --  -14.20061 -14.19300 -14.19250 -10.09981 -10.09928
 Alpha  occ. eigenvalues --  -10.09897 -10.09714 -10.09311 -10.08667 -10.07797
 Alpha  occ. eigenvalues --  -10.07177 -10.07171 -10.07065 -10.06443 -10.06306
 Alpha  occ. eigenvalues --  -10.05921 -10.04786  -0.83599  -0.82407  -0.79337
 Alpha  occ. eigenvalues --   -0.70026  -0.69546  -0.67807  -0.66345  -0.62996
 Alpha  occ. eigenvalues --   -0.60763  -0.56623  -0.54398  -0.52423  -0.52028
 Alpha  occ. eigenvalues --   -0.50028  -0.47615  -0.43283  -0.41218  -0.39880
 Alpha  occ. eigenvalues --   -0.39309  -0.38139  -0.37286  -0.35594  -0.34681
 Alpha  occ. eigenvalues --   -0.33778  -0.33196  -0.32524  -0.32384  -0.31351
 Alpha  occ. eigenvalues --   -0.30503  -0.30043  -0.29025  -0.28697  -0.27544
 Alpha  occ. eigenvalues --   -0.27511  -0.26666  -0.25776  -0.25188  -0.24722
 Alpha  occ. eigenvalues --   -0.23857  -0.22244  -0.22054  -0.20853  -0.18367
 Alpha  occ. eigenvalues --   -0.15475  -0.15140  -0.14978  -0.09692   0.04284
 Alpha virt. eigenvalues --    0.05804   0.06607   0.06837   0.07478   0.07869
 Alpha virt. eigenvalues --    0.08117   0.08332   0.09143   0.09695   0.09895
 Alpha virt. eigenvalues --    0.10357   0.10482   0.11358   0.12055   0.12283

  Beta  occ. eigenvalues --  -14.20041 -14.19252 -14.19159 -10.09934 -10.09912
  Beta  occ. eigenvalues --  -10.09893 -10.09709 -10.09285 -10.08659 -10.07672
  Beta  occ. eigenvalues --  -10.07181 -10.07134 -10.07062 -10.06427 -10.06305
  Beta  occ. eigenvalues --  -10.05907 -10.04779  -0.83414  -0.82378  -0.79307
  Beta  occ. eigenvalues --   -0.69979  -0.69344  -0.67737  -0.66307  -0.62955
  Beta  occ. eigenvalues --   -0.60718  -0.56590  -0.54332  -0.52304  -0.51994
  Beta  occ. eigenvalues --   -0.49919  -0.47549  -0.43260  -0.41143  -0.39836
  Beta  occ. eigenvalues --   -0.39272  -0.38062  -0.37239  -0.35516  -0.34651
  Beta  occ. eigenvalues --   -0.33710  -0.33132  -0.32491  -0.32360  -0.31327
  Beta  occ. eigenvalues --   -0.30400  -0.29933  -0.28981  -0.28640  -0.27500
  Beta  occ. eigenvalues --   -0.27435  -0.26532  -0.25747  -0.25147  -0.24683
  Beta  occ. eigenvalues --   -0.23808  -0.22216  -0.22034  -0.20831  -0.17743
  Beta  occ. eigenvalues --   -0.15196  -0.15098  -0.14831  -0.09675
  Beta virt. eigenvalues --    0.06156   0.06804   0.07211   0.07571   0.07700
  Beta virt. eigenvalues --    0.08385   0.08452   0.08583   0.09452   0.09958
  Beta virt. eigenvalues --    0.10071   0.10610   0.10704   0.11595   0.12159

 Mulliken charges and spin densities:
               1          2
     1  C    0.115988  -0.734601
     2  C    0.224800   0.116739
     3  C   -0.500447   0.056904
     4  N    0.235112   0.072230
     5  C   -0.073610  -0.209756
     6  C   -0.267917  -0.249329
     7  C   -0.230906  -0.378432
     8  N   -0.316876   0.045915
     9  C    0.614989  -0.826989
    10  C    1.190284  -1.514907
    11  C   -0.985079   0.935109
    12  C   -0.944772   0.855488
    13  C    0.773647  -1.048558
    14  C    0.809442  -0.953423
    15  C   -0.413017   0.337984
    16  N   -0.021715   0.109254
    17  C   -0.667834   0.052861
    18  H   -0.007704   0.119752
    19  H    0.011385   0.123485
    20  H    0.101397   0.054272
    21  H    0.193024  -0.000337
    22  H    0.056557   0.076106
    23  H    0.028092   0.116711
    24  H    0.227373  -0.058145
    25  H   -0.050603   0.203458
    26  H   -0.135727   0.284634
    27  H    0.127226   0.089057
    28  H    0.037946   0.191784
    29  H    0.113313   0.106834
    30  H   -0.016215   0.154038
    31  H   -0.182946   0.355931
    32  H   -0.157033   0.341943
    33  H    0.009525   0.159687
    34  H   -0.537678   0.705391
    35  H   -0.595749   0.777057
    36  H   -0.128346   0.285415
    37  H   -0.055153   0.220946
    38  H   -0.046261   0.185332
    39  H    0.317343  -0.151695
    40  H    0.148147  -0.008144
 Sum of Mulliken charges =  -1.00000   1.00000

 Dipole moment (field-independent basis, Debye):
    X=              2.9518    Y=             -1.0692    Z=             -1.0041  Tot=              3.2961
 Quadrupole moment (field-independent basis, Debye-Ang):
   XX=           -190.8374   YY=           -148.4279   ZZ=           -140.7102
   XY=              5.0279   XZ=              8.8805   YZ=             -0.0700

 Summary of Natural Population Analysis:

                                       Natural Population
                Natural  -----------------------------------------------
    Atom  No    Charge         Core      Valence    Rydberg      Total
 -----------------------------------------------------------------------
      C    1   -0.28934      0.99964     2.28428    0.00541     3.28934
      C    2   -0.11112      0.99956     2.10010    0.01146     3.11112
      C    3    0.00632      0.99957     1.98179    0.01232     2.99368
      N    4   -0.29414      0.99969     2.78032    0.01412     3.79414
      C    5   -0.08636      0.99960     2.07600    0.01076     3.08636
      C    6   -0.19945      0.99960     2.18990    0.00995     3.19945
      C    7   -0.01281      0.99955     2.00117    0.01209     3.01281
      N    8   -0.42068      0.99977     2.91056    0.01035     3.92068
      C    9   -0.06779      0.99960     2.05666    0.01153     3.06779
      C   10   -0.21519      0.99959     2.20562    0.00998     3.21519
      C   11    0.11739      0.99952     1.86745    0.01564     2.88261
      C   12   -0.12799      0.99950     2.11874    0.00975     3.12799
      C   13   -0.06423      0.99956     2.05422    0.01045     3.06423
      C   14   -0.12518      0.99955     2.11583    0.00979     3.12518
      C   15    0.02583      0.99958     1.96097    0.01362     2.97417
      N   16   -0.22742      0.99968     2.71678    0.01096     3.72742
      C   17   -0.29687      0.99963     2.29188    0.00536     3.29687
      H   18    0.09641      0.00000     0.40265    0.00094     0.40359
      H   19    0.09813      0.00000     0.40092    0.00095     0.40187
      H   20    0.10313      0.00000     0.39546    0.00141     0.39687
      H   21    0.09915      0.00000     0.39935    0.00150     0.40085
      H   22    0.09296      0.00000     0.40541    0.00162     0.40704
      H   23    0.09584      0.00000     0.40308    0.00108     0.40416
      H   24    0.09208      0.00000     0.40572    0.00220     0.40792
      H   25    0.09386      0.00000     0.40459    0.00155     0.40614
      H   26    0.09647      0.00000     0.40227    0.00126     0.40353
      H   27    0.09186      0.00000     0.40638    0.00176     0.40814
      H   28    0.17282      0.00000     0.32568    0.00150     0.32718
      H   29    0.17031      0.00000     0.32800    0.00169     0.32969
      H   30    0.09452      0.00000     0.40400    0.00148     0.40548
      H   31    0.08875      0.00000     0.40984    0.00141     0.41125
      H   32    0.10316      0.00000     0.39534    0.00150     0.39684
      H   33    0.10578      0.00000     0.39253    0.00170     0.39422
      H   34    0.10388      0.00000     0.39456    0.00156     0.39612
      H   35    0.10084      0.00000     0.39767    0.00149     0.39916
      H   36    0.10124      0.00000     0.39782    0.00094     0.39876
      H   37    0.08674      0.00000     0.41225    0.00100     0.41326
      H   38    0.09471      0.00000     0.40432    0.00097     0.40529
      H   39    0.10604      0.00000     0.39241    0.00155     0.39396
      H   40    0.10034      0.00000     0.39846    0.00119     0.39966
 =======================================================================
   * Total *   -0.00000     16.99321    46.79098    0.21581    64.00000

 Normal termination of Gaussian 16 at Mon Dec 14 15:03:52 2020.
