 Gaussian 16, Revision A.03,

 -----------------------------------------------------------
 # opt freq B3LYP/6-31G(d) empiricaldispersion=gd3bj scf=xqc
 -----------------------------------------------------------

 ------------------------------
 CID_65874137_JID_8100_neutraal
 ------------------------------
 Symbolic Z-matrix:
 Charge =  0 Multiplicity = 1

 SCF Done:  E(RB3LYP) =  -786.866571477     A.U. after   14 cycles
 SCF Done:  E(RB3LYP) =  -786.873159631     A.U. after   12 cycles
 SCF Done:  E(RB3LYP) =  -786.874190481     A.U. after   13 cycles
 SCF Done:  E(RB3LYP) =  -786.876377307     A.U. after   12 cycles
 SCF Done:  E(RB3LYP) =  -786.878422333     A.U. after   12 cycles
 SCF Done:  E(RB3LYP) =  -786.879759056     A.U. after   13 cycles
 SCF Done:  E(RB3LYP) =  -786.880609513     A.U. after   12 cycles
 SCF Done:  E(RB3LYP) =  -786.881026164     A.U. after   11 cycles
 SCF Done:  E(RB3LYP) =  -786.881209653     A.U. after   11 cycles
 SCF Done:  E(RB3LYP) =  -786.881252859     A.U. after   10 cycles
 SCF Done:  E(RB3LYP) =  -786.882031375     A.U. after    7 cycles
 SCF Done:  E(RB3LYP) =  -786.882031563     A.U. after    7 cycles
 SCF Done:  E(RB3LYP) =  -786.882031792     A.U. after    7 cycles
 SCF Done:  E(RB3LYP) =  -786.882031910     A.U. after    7 cycles
 SCF Done:  E(RB3LYP) =  -786.882031942     A.U. after    6 cycles
 Optimization completed.
    -- Stationary point found.
 Normal termination of Gaussian 16 at Fri Dec 11 19:21:21 2020.

 --------------------------------------------------------------------
 #N Geom=AllCheck Guess=TCheck SCRF=Check GenChk RB3LYP/6-31G(d) Freq
 --------------------------------------------------------------------

 Structure from the checkpoint file:  "JID_8100.chk"
 ------------------------------
 CID_65874137_JID_8100_neutraal
 ------------------------------
 Charge =  0 Multiplicity = 1

 SCF Done:  E(RB3LYP) =  -786.882031942     A.U. after    1 cycles

  Exact polarizability: 171.371   6.079 165.510   7.166  -7.743 140.945
 Approx polarizability: 225.046  17.011 244.252  21.708 -14.167 223.205

                      1                      2                      3
                      A                      A                      A
 Frequencies --     26.4309                41.1440                46.2898
 Red. masses --      3.4000                 2.8090                 2.5186
 Frc consts  --      0.0014                 0.0028                 0.0032
 IR Inten    --      0.2791                 0.8045                 0.2201

                      4                      5                      6
                      A                      A                      A
 Frequencies --     63.6008                75.9895                92.4411
 Red. masses --      3.1653                 3.0625                 1.0950
 Frc consts  --      0.0075                 0.0104                 0.0055
 IR Inten    --      0.4235                 0.4193                 0.5494

                      7                      8                      9
                      A                      A                      A
 Frequencies --    111.0471               135.7641               194.1034
 Red. masses --      3.2081                 3.7383                 2.4751
 Frc consts  --      0.0233                 0.0406                 0.0549
 IR Inten    --      2.9018                 0.2594                 0.4882

                     10                     11                     12
                      A                      A                      A
 Frequencies --    214.5790               228.3029               281.2391
 Red. masses --      2.1822                 1.7915                 2.1274
 Frc consts  --      0.0592                 0.0550                 0.0991
 IR Inten    --      0.5530                 0.3543                 4.2545

                     13                     14                     15
                      A                      A                      A
 Frequencies --    292.4431               305.8629               322.0344
 Red. masses --      2.7834                 3.6179                 4.2034
 Frc consts  --      0.1403                 0.1994                 0.2568
 IR Inten    --      1.5602                 5.3321                 3.0253

                     16                     17                     18
                      A                      A                      A
 Frequencies --    351.5652               377.0960               416.7475
 Red. masses --      2.0716                 3.7678                 2.1399
 Frc consts  --      0.1509                 0.3157                 0.2190
 IR Inten    --      0.7476                 7.6669                 1.2238

                     19                     20                     21
                      A                      A                      A
 Frequencies --    424.2038               460.1785               473.7064
 Red. masses --      3.6586                 2.2845                 2.5584
 Frc consts  --      0.3879                 0.2850                 0.3382
 IR Inten    --      0.7587                 0.3446                 2.5506

                     22                     23                     24
                      A                      A                      A
 Frequencies --    515.7163               528.5879               598.4929
 Red. masses --      3.4656                 3.0973                 3.0335
 Frc consts  --      0.5431                 0.5099                 0.6402
 IR Inten    --     23.0306                 1.4292                 2.6250

                     25                     26                     27
                      A                      A                      A
 Frequencies --    628.3447               666.4204               681.8885
 Red. masses --      3.7283                 3.5790                 5.5588
 Frc consts  --      0.8673                 0.9365                 1.5229
 IR Inten    --      3.3865                 7.1437                 0.6828

                     28                     29                     30
                      A                      A                      A
 Frequencies --    717.4187               720.3601               727.6554
 Red. masses --      1.1533                 3.2802                 3.2891
 Frc consts  --      0.3497                 1.0029                 1.0261
 IR Inten    --     57.6934                 3.6222                 5.9347

                     31                     32                     33
                      A                      A                      A
 Frequencies --    741.5755               792.1567               804.2625
 Red. masses --      3.4664                 1.3798                 1.3509
 Frc consts  --      1.1232                 0.5101                 0.5148
 IR Inten    --      2.4683                 5.5508                14.1849

                     34                     35                     36
                      A                      A                      A
 Frequencies --    813.9263               820.1577               832.0371
 Red. masses --      1.5211                 2.4383                 2.9739
 Frc consts  --      0.5937                 0.9663                 1.2130
 IR Inten    --     10.4212                 1.4364                 2.8717

                     37                     38                     39
                      A                      A                      A
 Frequencies --    844.8221               855.9104               881.5147
 Red. masses --      3.7341                 2.3607                 2.1604
 Frc consts  --      1.5703                 1.0189                 0.9891
 IR Inten    --     37.0544                18.0322                 0.5081

                     40                     41                     42
                      A                      A                      A
 Frequencies --    926.7019               945.1674               948.8537
 Red. masses --      2.3869                 2.2816                 1.7454
 Frc consts  --      1.2077                 1.2009                 0.9258
 IR Inten    --      3.2229                 1.3638                 2.7766

                     43                     44                     45
                      A                      A                      A
 Frequencies --    962.3391               982.0248              1004.0262
 Red. masses --      3.3446                 2.1708                 1.9430
 Frc consts  --      1.8249                 1.2334                 1.1540
 IR Inten    --     15.8655                10.7667                 3.6716

                     46                     47                     48
                      A                      A                      A
 Frequencies --   1006.4132              1017.6191              1032.3614
 Red. masses --      1.8235                 2.2846                 2.3583
 Frc consts  --      1.0882                 1.3939                 1.4808
 IR Inten    --      0.2876                 0.5527                 3.9962

                     49                     50                     51
                      A                      A                      A
 Frequencies --   1043.6676              1065.7019              1077.2187
 Red. masses --      3.2259                 1.4533                 1.4817
 Frc consts  --      2.0702                 0.9725                 1.0130
 IR Inten    --     12.7775                 2.2012                 2.0413

                     52                     53                     54
                      A                      A                      A
 Frequencies --   1087.6747              1100.6667              1101.0292
 Red. masses --      2.2397                 2.5494                 2.3061
 Frc consts  --      1.5612                 1.8197                 1.6471
 IR Inten    --     10.3789                69.5078                30.1028

                     55                     56                     57
                      A                      A                      A
 Frequencies --   1115.8378              1125.6825              1134.3290
 Red. masses --      1.9391                 2.2424                 1.9113
 Frc consts  --      1.4225                 1.6741                 1.4490
 IR Inten    --      7.4564                 9.3215                46.9102

                     58                     59                     60
                      A                      A                      A
 Frequencies --   1178.6729              1197.4500              1206.1037
 Red. masses --      1.6914                 1.7489                 1.2714
 Frc consts  --      1.3845                 1.4775                 1.0897
 IR Inten    --      5.4227                 0.1898                 0.0400

                     61                     62                     63
                      A                      A                      A
 Frequencies --   1227.6648              1236.5220              1243.4275
 Red. masses --      1.1408                 1.3869                 1.4359
 Frc consts  --      1.0130                 1.2494                 1.3080
 IR Inten    --      0.2489                 0.8145                15.5035

                     64                     65                     66
                      A                      A                      A
 Frequencies --   1276.2843              1277.9527              1304.1861
 Red. masses --      1.2172                 2.2300                 1.3517
 Frc consts  --      1.1682                 2.1458                 1.3546
 IR Inten    --     11.3282                 4.4792                12.4304

                     67                     68                     69
                      A                      A                      A
 Frequencies --   1315.1896              1322.0242              1344.7179
 Red. masses --      1.3596                 1.4239                 1.5100
 Frc consts  --      1.3856                 1.4663                 1.6088
 IR Inten    --      5.4957                 7.3457                 4.3004

                     70                     71                     72
                      A                      A                      A
 Frequencies --   1350.9331              1358.2606              1360.3228
 Red. masses --      1.5034                 1.5367                 1.5538
 Frc consts  --      1.6166                 1.6704                 1.6940
 IR Inten    --     37.6525                 4.3588                19.3957

                     73                     74                     75
                      A                      A                      A
 Frequencies --   1365.7556              1379.0564              1406.2349
 Red. masses --      1.5505                 1.4315                 1.3344
 Frc consts  --      1.7040                 1.6040                 1.5547
 IR Inten    --      4.7471                 9.6722                 9.2966

                     76                     77                     78
                      A                      A                      A
 Frequencies --   1407.3256              1427.1532              1435.5129
 Red. masses --      1.4718                 2.1269                 1.2691
 Frc consts  --      1.7175                 2.5523                 1.5409
 IR Inten    --      5.4621                16.3643                10.8438

                     79                     80                     81
                      A                      A                      A
 Frequencies --   1437.4927              1444.3370              1468.3028
 Red. masses --      1.7527                 1.3531                 1.4951
 Frc consts  --      2.1339                 1.6631                 1.8991
 IR Inten    --      6.2729                 6.6305               130.7306

                     82                     83                     84
                      A                      A                      A
 Frequencies --   1494.6658              1500.8988              1509.6541
 Red. masses --      2.2686                 1.7780                 1.0965
 Frc consts  --      2.9860                 2.3598                 1.4724
 IR Inten    --     21.5981                 1.5183                 0.6239

                     85                     86                     87
                      A                      A                      A
 Frequencies --   1510.3238              1514.4745              1517.8899
 Red. masses --      1.6774                 1.0594                 1.0586
 Frc consts  --      2.2544                 1.4316                 1.4370
 IR Inten    --     22.2007                 6.6021                 5.9746

                     88                     89                     90
                      A                      A                      A
 Frequencies --   1520.6764              1526.4100              1527.6922
 Red. masses --      1.0928                 1.0790                 1.0851
 Frc consts  --      1.4889                 1.4813                 1.4920
 IR Inten    --      5.8243                 0.7302                 2.4163

                     91                     92                     93
                      A                      A                      A
 Frequencies --   1535.9555              1537.4866              1545.5829
 Red. masses --      1.2307                 1.3875                 1.0946
 Frc consts  --      1.7107                 1.9325                 1.5406
 IR Inten    --      3.3984                 0.3714                 7.4386

                     94                     95                     96
                      A                      A                      A
 Frequencies --   1605.2276              3046.2235              3056.1003
 Red. masses --      5.5909                 1.0383                 1.0664
 Frc consts  --      8.4880                 5.6767                 5.8681
 IR Inten    --     32.6678                39.9899                22.7932

                     97                     98                     99
                      A                      A                      A
 Frequencies --   3057.3788              3062.5620              3066.9461
 Red. masses --      1.0354                 1.0602                 1.0614
 Frc consts  --      5.7025                 5.8585                 5.8825
 IR Inten    --     21.6187                20.3346                 8.2152

                    100                    101                    102
                      A                      A                      A
 Frequencies --   3071.0153              3072.4362              3095.5539
 Red. masses --      1.0617                 1.0642                 1.1009
 Frc consts  --      5.8996                 5.9186                 6.2155
 IR Inten    --     25.6010                32.4431                23.1033

                    103                    104                    105
                      A                      A                      A
 Frequencies --   3098.2604              3099.3060              3100.2505
 Red. masses --      1.0898                 1.0656                 1.0922
 Frc consts  --      6.1635                 6.0309                 6.1851
 IR Inten    --     41.3825                12.1277                33.1331

                    106                    107                    108
                      A                      A                      A
 Frequencies --   3105.3645              3108.4807              3112.5166
 Red. masses --      1.0953                 1.0999                 1.1018
 Frc consts  --      6.2229                 6.2620                 6.2890
 IR Inten    --      8.7104                13.4818                32.5678

                    109                    110                    111
                      A                      A                      A
 Frequencies --   3118.3202              3125.4198              3126.7989
 Red. masses --      1.1035                 1.1002                 1.1024
 Frc consts  --      6.3220                 6.3318                 6.3504
 IR Inten    --     12.8803                33.4923                50.3884

                    112                    113                    114
                      A                      A                      A
 Frequencies --   3136.3801              3142.1737              3156.0454
 Red. masses --      1.1029                 1.0998                 1.1059
 Frc consts  --      6.3918                 6.3978                 6.4899
 IR Inten    --     11.1190                11.6823                23.7516

                    115                    116                    117
                      A                      A                      A
 Frequencies --   3260.5277              3470.7136              3539.5982
 Red. masses --      1.0967                 1.0749                 1.0646
 Frc consts  --      6.8693                 7.6291                 7.8586
 IR Inten    --      3.7491                 1.6100               183.9231

 - Thermochemistry -
 -------------------
 Temperature   298.150 Kelvin.  Pressure   1.00000 Atm.
 Atom     1 has atomic number  6 and mass  12.00000

 Molecular mass:   249.18411 amu.
 Principal axes and moments of inertia in atomic units:
                           1         2         3
     Eigenvalues --  2752.993516313.072147257.99398
           X            0.99987  -0.01518  -0.00455
           Y            0.01505   0.99950  -0.02772
           Z            0.00497   0.02765   0.99961
 This molecule is an asymmetric top.
 Rotational symmetry number  1.
 Warning -- assumption of classical behavior for rotation
           may cause significant error
 Rotational temperatures (Kelvin)      0.03146     0.01372     0.01193
 Rotational constants (GHZ):           0.65556     0.28587     0.24866
 Zero-point vibrational energy     961974.2 (Joules/Mol)
                                  229.91735 (Kcal/Mol)
 Warning -- explicit consideration of  24 degrees of freedom as
           vibrations may cause significant error
 Vibrational temperatures:     38.03    59.20    66.60    91.51   109.33
          (Kelvin)            133.00   159.77   195.33   279.27   308.73
                              328.48   404.64   420.76   440.07   463.34
                              505.82   542.56   599.61   610.33   662.09
                              681.56   742.00   760.52   861.10   904.05
                              958.83   981.09  1032.21  1036.44  1046.93
                             1066.96  1139.74  1157.15  1171.06  1180.02
                             1197.12  1215.51  1231.46  1268.30  1333.32
                             1359.89  1365.19  1384.59  1412.91  1444.57
                             1448.00  1464.13  1485.34  1501.60  1533.31
                             1549.88  1564.92  1583.61  1584.14  1605.44
                             1619.61  1632.05  1695.85  1722.86  1735.31
                             1766.34  1779.08  1789.01  1836.29  1838.69
                             1876.43  1892.26  1902.10  1934.75  1943.69
                             1954.23  1957.20  1965.02  1984.15  2023.26
                             2024.83  2053.36  2065.38  2068.23  2078.08
                             2112.56  2150.49  2159.46  2172.06  2173.02
                             2178.99  2183.91  2187.91  2196.16  2198.01
                             2209.90  2212.10  2223.75  2309.56  4382.84
                             4397.05  4398.89  4406.34  4412.65  4418.51
                             4420.55  4453.81  4457.71  4459.21  4460.57
                             4467.93  4472.41  4478.22  4486.57  4496.78
                             4498.77  4512.55  4520.89  4540.85  4691.17
                             4993.58  5092.69

 Zero-point correction=                           0.366397 (Hartree/Particle)
 Thermal correction to Energy=                    0.383448
 Thermal correction to Enthalpy=                  0.384392
 Thermal correction to Gibbs Free Energy=         0.320365
 Sum of electronic and zero-point Energies=           -786.515635
 Sum of electronic and thermal Energies=              -786.498584
 Sum of electronic and thermal Enthalpies=            -786.497640
 Sum of electronic and thermal Free Energies=         -786.561667

                     E (Thermal)             CV                S
                      KCal/Mol        Cal/Mol-Kelvin    Cal/Mol-Kelvin
 Total                  240.617             66.882            134.756
 Electronic               0.000              0.000              0.000
 Translational            0.889              2.981             42.440
 Rotational               0.889              2.981             33.200
 Vibrational            238.840             60.921             59.117
 Vibration     1          0.593              1.985              6.081
 Vibration     2          0.594              1.981              5.203
 Vibration     3          0.595              1.979              4.970
 Vibration     4          0.597              1.972              4.342
 Vibration     5          0.599              1.965              3.992
 Vibration     6          0.602              1.955              3.608
 Vibration     7          0.607              1.940              3.251
 Vibration     8          0.614              1.918              2.863
 Vibration     9          0.635              1.848              2.188
 Vibration    10          0.645              1.819              2.004
 Vibration    11          0.651              1.798              1.892
 Vibration    12          0.681              1.708              1.526
 Vibration    13          0.688              1.688              1.460
 Vibration    14          0.696              1.663              1.385
 Vibration    15          0.707              1.631              1.300
 Vibration    16          0.728              1.572              1.159
 Vibration    17          0.748              1.519              1.051
 Vibration    18          0.780              1.434              0.903
 Vibration    19          0.786              1.418              0.878
 Vibration    20          0.818              1.338              0.766
 Vibration    21          0.830              1.308              0.727
 Vibration    22          0.871              1.215              0.620
 Vibration    23          0.884              1.187              0.590
 Vibration    24          0.956              1.035              0.452

 Optimization completed.
    -- Stationary point found.
 Normal termination of Gaussian 16 at Fri Dec 11 19:44:47 2020.

 ----------------------------------------------------------------------
 # B3LYP/6-311++G(d,p) empiricaldispersion=gd3bj scf=xqc pop=npa geom=c
 heck
 ----------------------------------------------------------------------

 --------------------------------------
 CID_65874137_JID_8100_Energie_neutraal
 --------------------------------------
 Structure from the checkpoint file:  "JID_8100.chk"
 Charge =  0 Multiplicity = 1

 SCF Done:  E(RB3LYP) =  -787.103131687     A.U. after   15 cycles
 Normal termination of Gaussian 16 at Fri Dec 11 19:55:39 2020.

 ----------------------------------------------------------------------
 # B3LYP/6-311++G(d,p) empiricaldispersion=gd3bj scf=xqc pop=npa geom=c
 heck
 ----------------------------------------------------------------------

 ------------------------------------
 CID_65874137_JID_8100_Energie_kation
 ------------------------------------
 Structure from the checkpoint file:  "JID_8100.chk"
 Charge =  1 Multiplicity = 2

 SCF Done:  E(UB3LYP) =  -786.806613595     A.U. after   33 cycles
 SCF Done:  E(UB3LYP) =  -786.806613595     a.u. after    2 cycles
 Normal termination of Gaussian 16 at Fri Dec 11 21:11:53 2020.
 Gaussian 16:  ES64L-G16RevA.03 25-Dec-2016

 ----------------------------------------------------------------------
 # B3LYP/6-311++G(d,p) empiricaldispersion=gd3bj scf=xqc pop=npa geom=c
 heck
 ----------------------------------------------------------------------

 -----------------------------------
 CID_65874137_JID_8100_Energie_anion
 -----------------------------------
 Structure from the checkpoint file:  "JID_8100.chk"
 Charge = -1 Multiplicity = 2

                         Standard orientation:
 ---------------------------------------------------------------------
 Center     Atomic      Atomic             Coordinates (Angstroms)
 Number     Number       Type             X           Y           Z
 ---------------------------------------------------------------------
      1          6           0       -3.349120    2.546810   -0.530228
      2          6           0       -2.263314    1.654249   -1.130932
      3          7           0       -2.130196    0.394548   -0.414246
      4          6           0       -1.392115    0.121149    0.705670
      5          6           0       -1.782346   -1.146912    1.108539
      6          6           0       -2.769590   -1.559176    0.181958
      7          7           0       -2.984458   -0.612803   -0.733303
      8          6           0       -3.526947   -2.849968    0.131444
      9          6           0       -0.364875    1.049109    1.272624
     10          6           0        1.089594    0.811735    0.807135
     11          6           0        1.631950   -0.543856    1.314043
     12          6           0        2.933832   -0.948523    0.579498
     13          6           0        2.673628   -1.896939   -0.629399
     14          6           0        2.613869   -0.944949   -1.852814
     15          6           0        2.642237    0.460119   -1.210097
     16          6           0        1.234961    0.911210   -0.726817
     17          7           0        3.505653    0.291168   -0.011905
     18          8           0        1.829140    1.873243    1.414841
     19          1           0       -4.306651    2.017997   -0.526766
     20          1           0       -3.456619    3.466319   -1.116161
     21          1           0       -3.102994    2.821574    0.501008
     22          1           0       -2.503437    1.394589   -2.164664
     23          1           0       -1.294274    2.157891   -1.128695
     24          1           0       -1.405418   -1.694127    1.961376
     25          1           0       -4.247461   -2.824932   -0.690338
     26          1           0       -2.857167   -3.704724   -0.024223
     27          1           0       -4.072670   -3.030535    1.065305
     28          1           0       -0.607903    2.092790    1.047338
     29          1           0       -0.369073    0.965154    2.364599
     30          1           0        1.814102   -0.427973    2.387563
     31          1           0        0.879705   -1.327603    1.187232
     32          1           0        3.648790   -1.377723    1.286110
     33          1           0        1.748748   -2.466631   -0.501258
     34          1           0        3.487185   -2.622000   -0.735476
     35          1           0        1.731230   -1.104839   -2.479073
     36          1           0        3.495202   -1.079199   -2.490901
     37          1           0        3.080540    1.212240   -1.871309
     38          1           0        0.467437    0.304340   -1.218138
     39          1           0        1.057162    1.955987   -1.001580
     40          1           0        4.460388    0.106708   -0.320300
     41          1           0        2.752488    1.684019    1.142051
 ---------------------------------------------------------------------

 SCF Done:  E(UB3LYP) =  -787.093756509     A.U. after   32 cycles

 The electronic state is 2-A.
 Alpha  occ. eigenvalues --  -19.00336 -14.29252 -14.23167 -14.20500 -10.13284
 Alpha  occ. eigenvalues --  -10.12775 -10.12087 -10.10601 -10.10002 -10.09997
 Alpha  occ. eigenvalues --  -10.08854 -10.08605 -10.08587 -10.06976 -10.06708
 Alpha  occ. eigenvalues --  -10.06515 -10.06355 -10.06323  -0.95502  -0.91675
 Alpha  occ. eigenvalues --   -0.82998  -0.76505  -0.72436  -0.68016  -0.67103
 Alpha  occ. eigenvalues --   -0.66202  -0.65463  -0.62177  -0.61279  -0.55335
 Alpha  occ. eigenvalues --   -0.55144  -0.50880  -0.49520  -0.47108  -0.45986
 Alpha  occ. eigenvalues --   -0.44163  -0.43554  -0.40512  -0.38812  -0.38051
 Alpha  occ. eigenvalues --   -0.37695  -0.36643  -0.36180  -0.35028  -0.34360
 Alpha  occ. eigenvalues --   -0.33173  -0.32884  -0.31999  -0.31283  -0.30700
 Alpha  occ. eigenvalues --   -0.29928  -0.29661  -0.29366  -0.28438  -0.28324
 Alpha  occ. eigenvalues --   -0.27530  -0.27401  -0.25291  -0.25135  -0.23365
 Alpha  occ. eigenvalues --   -0.22930  -0.22221  -0.21330  -0.20217  -0.16494
 Alpha  occ. eigenvalues --   -0.15412  -0.15360  -0.14512   0.04002
 Alpha virt. eigenvalues --    0.05675   0.06241   0.07306   0.08024   0.08143
 Alpha virt. eigenvalues --    0.08850   0.09154   0.09441   0.09530   0.09870
 Alpha virt. eigenvalues --    0.10483   0.10646   0.10985   0.11574   0.11967

  Beta  occ. eigenvalues --  -19.00330 -14.29251 -14.23157 -14.20469 -10.13284
  Beta  occ. eigenvalues --  -10.12763 -10.12083 -10.10600 -10.09987 -10.09982
  Beta  occ. eigenvalues --  -10.08848 -10.08588 -10.08578 -10.06969 -10.06696
  Beta  occ. eigenvalues --  -10.06507 -10.06333 -10.06299  -0.95495  -0.91666
  Beta  occ. eigenvalues --   -0.82944  -0.76492  -0.72421  -0.67992  -0.67080
  Beta  occ. eigenvalues --   -0.66162  -0.65413  -0.62157  -0.61256  -0.55298
  Beta  occ. eigenvalues --   -0.55109  -0.50850  -0.49496  -0.47056  -0.45954
  Beta  occ. eigenvalues --   -0.44114  -0.43491  -0.40486  -0.38784  -0.38022
  Beta  occ. eigenvalues --   -0.37663  -0.36621  -0.36161  -0.34995  -0.34343
  Beta  occ. eigenvalues --   -0.33155  -0.32870  -0.31981  -0.31251  -0.30681
  Beta  occ. eigenvalues --   -0.29902  -0.29626  -0.29334  -0.28410  -0.28298
  Beta  occ. eigenvalues --   -0.27516  -0.27385  -0.25265  -0.25106  -0.23335
  Beta  occ. eigenvalues --   -0.22892  -0.22183  -0.21289  -0.20198  -0.16481
  Beta  occ. eigenvalues --   -0.15383  -0.15342  -0.14481
  Beta virt. eigenvalues --    0.05787   0.06431   0.06942   0.07617   0.08455
  Beta virt. eigenvalues --    0.08587   0.09175   0.09285   0.09521   0.09763
  Beta virt. eigenvalues --    0.10286   0.10865   0.10908   0.11251   0.11661

 Mulliken charges and spin densities:
               1          2
     1  C   -0.076877  -0.459319
     2  C   -0.128399  -0.000776
     3  N    0.424512  -0.055636
     4  C   -0.425556   0.270100
     5  C    0.215046  -0.031247
     6  C   -0.054477  -0.185887
     7  N   -0.090302   0.084802
     8  C   -0.103549  -0.584493
     9  C    0.181545  -0.249658
    10  C   -1.519607   0.723553
    11  C    0.325537  -0.717879
    12  C   -0.479220   0.644462
    13  C    0.882321  -1.452328
    14  C   -0.030386  -0.622285
    15  C   -0.071285   0.263224
    16  C    0.800664  -1.119580
    17  N   -0.051426  -0.346219
    18  O   -0.155436   0.024556
    19  H    0.134259   0.029567
    20  H   -0.201279   0.343650
    21  H    0.034168   0.111123
    22  H    0.012310   0.168494
    23  H    0.041354   0.093114
    24  H   -0.026928   0.201534
    25  H    0.102891   0.042384
    26  H    0.040910   0.113055
    27  H    0.060434   0.083067
    28  H    0.139127   0.048301
    29  H    0.131813   0.072045
    30  H    0.165745   0.047960
    31  H    0.068632   0.016119
    32  H   -0.607862   0.865185
    33  H    0.106224  -0.002167
    34  H   -0.368416   0.544416
    35  H    0.011658   0.124621
    36  H   -0.478251   0.664213
    37  H   -0.605194   0.857808
    38  H    0.221462  -0.083004
    39  H    0.168014   0.058322
    40  H   -0.119311   0.423227
    41  H    0.325133  -0.008423
 Sum of Mulliken charges =  -1.00000   1.00000

 Dipole moment (field-independent basis, Debye):
    X=             -7.9836    Y=              0.1292    Z=              2.6042  Tot=              8.3986
 Quadrupole moment (field-independent basis, Debye-Ang):
   XX=           -205.9342   YY=           -156.8805   ZZ=           -150.1566
   XY=              8.2675   XZ=              4.1430   YZ=             -1.1299

 Summary of Natural Population Analysis:

                                       Natural Population
                Natural  -----------------------------------------------
    Atom  No    Charge         Core      Valence    Rydberg      Total
 -----------------------------------------------------------------------
      C    1   -0.28881      0.99966     2.28544    0.00371     3.28881
      C    2   -0.08637      0.99961     2.07581    0.01095     3.08637
      N    3   -0.11440      0.99961     2.60210    0.01269     3.61440
      C    4    0.09744      0.99952     1.89153    0.01152     2.90256
      C    5   -0.16372      0.99945     2.15719    0.00708     3.16372
      C    6    0.07250      0.99960     1.91458    0.01331     2.92750
      N    7   -0.16470      0.99970     2.65414    0.01086     3.66470
      C    8   -0.29703      0.99963     2.29293    0.00447     3.29703
      C    9   -0.21491      0.99954     2.20501    0.01036     3.21491
      C   10    0.14125      0.99951     1.84206    0.01718     2.85875
      C   11   -0.20696      0.99955     2.19717    0.01025     3.20696
      C   12   -0.01399      0.99961     1.99964    0.01474     3.01399
      C   13   -0.20022      0.99962     2.19222    0.00837     3.20022
      C   14   -0.19740      0.99962     2.18927    0.00850     3.19740
      C   15   -0.01259      0.99961     1.99813    0.01485     3.01259
      C   16   -0.20995      0.99955     2.19990    0.01050     3.20995
      N   17   -0.35804      0.99975     2.84459    0.01370     3.85804
      O   18   -0.39479      0.99989     3.38858    0.00632     4.39479
      H   19    0.10323      0.00000     0.39568    0.00109     0.39677
      H   20    0.10056      0.00000     0.39830    0.00113     0.39944
      H   21    0.09850      0.00000     0.40055    0.00095     0.40150
      H   22    0.10538      0.00000     0.39327    0.00135     0.39462
      H   23    0.10313      0.00000     0.39549    0.00138     0.39687
      H   24    0.10807      0.00000     0.39113    0.00080     0.39193
      H   25    0.10754      0.00000     0.39138    0.00108     0.39246
      H   26    0.10300      0.00000     0.39573    0.00126     0.39700
      H   27    0.10076      0.00000     0.39807    0.00117     0.39924
      H   28    0.11136      0.00000     0.38734    0.00130     0.38864
      H   29    0.11302      0.00000     0.38594    0.00104     0.38698
      H   30    0.10461      0.00000     0.39413    0.00125     0.39539
      H   31    0.10406      0.00000     0.39448    0.00146     0.39594
      H   32    0.10171      0.00000     0.39642    0.00187     0.39829
      H   33    0.09756      0.00000     0.40117    0.00127     0.40244
      H   34    0.10441      0.00000     0.39345    0.00214     0.39559
      H   35    0.09875      0.00000     0.40014    0.00111     0.40125
      H   36    0.10256      0.00000     0.39492    0.00252     0.39744
      H   37    0.10169      0.00000     0.39641    0.00190     0.39831
      H   38    0.10272      0.00000     0.39546    0.00182     0.39728
      H   39    0.10551      0.00000     0.39292    0.00156     0.39449
      H   40    0.18772      0.00000     0.30637    0.00591     0.31228
      H   41    0.24683      0.00000     0.24966    0.00351     0.25317
 =======================================================================
   * Total *   -0.00000     17.99303    49.77871    0.22826    68.00000

 Normal termination of Gaussian 16 at Fri Dec 11 21:45:26 2020.
