 Gaussian 16, Revision A.03,

 -----------------------------------------------------------
 # opt freq B3LYP/6-31G(d) empiricaldispersion=gd3bj scf=xqc
 -----------------------------------------------------------

 -------------------------------
 CID_146883531_JID_6396_neutraal
 -------------------------------
 Symbolic Z-matrix:
 Charge =  0 Multiplicity = 1

 SCF Done:  E(RB3LYP) =  -1485.28628327     A.U. after   15 cycles
 SCF Done:  E(RB3LYP) =  -1485.29801658     A.U. after   13 cycles
 SCF Done:  E(RB3LYP) =  -1485.29841811     A.U. after   13 cycles
 SCF Done:  E(RB3LYP) =  -1485.30004651     A.U. after   13 cycles
 SCF Done:  E(RB3LYP) =  -1485.30129368     A.U. after   12 cycles
 SCF Done:  E(RB3LYP) =  -1485.30203094     A.U. after   12 cycles
 SCF Done:  E(RB3LYP) =  -1485.30290789     A.U. after   13 cycles
 SCF Done:  E(RB3LYP) =  -1485.30405927     A.U. after   12 cycles
 SCF Done:  E(RB3LYP) =  -1485.30538319     A.U. after   15 cycles
 SCF Done:  E(RB3LYP) =  -1485.30697039     A.U. after   12 cycles
 SCF Done:  E(RB3LYP) =  -1485.31321718     A.U. after    9 cycles
 SCF Done:  E(RB3LYP) =  -1485.31321836     A.U. after    8 cycles
 SCF Done:  E(RB3LYP) =  -1485.31321909     A.U. after    7 cycles
 SCF Done:  E(RB3LYP) =  -1485.31321981     A.U. after    7 cycles
 SCF Done:  E(RB3LYP) =  -1485.31322030     A.U. after    7 cycles
 Optimization completed.
    -- Stationary point found.
 Normal termination of Gaussian 16 at Thu Dec 10 22:55:41 2020.

 --------------------------------------------------------------------
 #N Geom=AllCheck Guess=TCheck SCRF=Check GenChk RB3LYP/6-31G(d) Freq
 --------------------------------------------------------------------

 Structure from the checkpoint file:  "JID_6396.chk"
 -------------------------------
 CID_146883531_JID_6396_neutraal
 -------------------------------
 Charge =  0 Multiplicity = 1

 SCF Done:  E(RB3LYP) =  -1485.31322030     A.U. after    1 cycles

  Exact polarizability: 180.171   3.248 146.961  -7.031   0.060 131.756
 Approx polarizability: 236.306   9.735 250.962 -20.523  -5.911 208.340

                      1                      2                      3
                      A                      A                      A
 Frequencies --     23.5437                41.2336                52.2860
 Red. masses --      4.3480                 2.7505                 3.7359
 Frc consts  --      0.0014                 0.0028                 0.0060
 IR Inten    --      0.4459                 0.5033                 0.7611

                      4                      5                      6
                      A                      A                      A
 Frequencies --     69.7327                82.8415                89.6641
 Red. masses --      4.0157                 3.2758                 3.6529
 Frc consts  --      0.0115                 0.0132                 0.0173
 IR Inten    --      0.5959                 0.4332                 1.4913

                      7                      8                      9
                      A                      A                      A
 Frequencies --    104.5200               155.8715               159.7453
 Red. masses --      3.7800                 4.0163                 4.9200
 Frc consts  --      0.0243                 0.0575                 0.0740
 IR Inten    --      1.3364                 0.1169                 1.1309

                     10                     11                     12
                      A                      A                      A
 Frequencies --    198.5908               213.8845               221.8642
 Red. masses --      3.0350                 1.6536                 2.2400
 Frc consts  --      0.0705                 0.0446                 0.0650
 IR Inten    --      8.5694                 8.2532                 1.0444

                     13                     14                     15
                      A                      A                      A
 Frequencies --    226.6029               234.3216               247.0615
 Red. masses --      1.6426                 1.8417                 1.2531
 Frc consts  --      0.0497                 0.0596                 0.0451
 IR Inten    --      0.1328                 6.0399                 0.0377

                     16                     17                     18
                      A                      A                      A
 Frequencies --    252.7101               270.7686               293.3784
 Red. masses --      6.0849                 1.2081                 1.8876
 Frc consts  --      0.2290                 0.0522                 0.0957
 IR Inten    --      0.6920                31.9060                 0.4546

                     19                     20                     21
                      A                      A                      A
 Frequencies --    312.8568               319.9634               329.5977
 Red. masses --      1.3751                 2.3623                 4.4916
 Frc consts  --      0.0793                 0.1425                 0.2875
 IR Inten    --     21.2454                 6.1888                 8.3804

                     22                     23                     24
                      A                      A                      A
 Frequencies --    357.4162               365.2211               385.3866
 Red. masses --      3.8656                 2.6851                 5.4982
 Frc consts  --      0.2909                 0.2110                 0.4811
 IR Inten    --      1.2250                 3.0987                 1.1105

                     25                     26                     27
                      A                      A                      A
 Frequencies --    415.1555               438.7944               459.6164
 Red. masses --      4.7135                 5.6113                 7.2992
 Frc consts  --      0.4786                 0.6366                 0.9085
 IR Inten    --     18.4918                 8.5640                 3.1880

                     28                     29                     30
                      A                      A                      A
 Frequencies --    510.5236               526.2250               537.8613
 Red. masses --      4.6774                 3.7308                 4.1385
 Frc consts  --      0.7183                 0.6087                 0.7054
 IR Inten    --     12.2355                34.3438                14.8932

                     31                     32                     33
                      A                      A                      A
 Frequencies --    595.9665               660.6757               689.7045
 Red. masses --      6.9519                 4.6821                 4.1209
 Frc consts  --      1.4548                 1.2041                 1.1550
 IR Inten    --     69.7712                18.7188                54.0110

                     34                     35                     36
                      A                      A                      A
 Frequencies --    706.5819               767.6987               787.3771
 Red. masses --      2.3348                 2.1301                 1.1828
 Frc consts  --      0.6868                 0.7397                 0.4321
 IR Inten    --    193.7844                63.0373                 3.2778

                     37                     38                     39
                      A                      A                      A
 Frequencies --    789.9060               803.7549               817.1215
 Red. masses --      1.2401                 1.2793                 2.6577
 Frc consts  --      0.4559                 0.4869                 1.0455
 IR Inten    --     73.6405                31.2105                94.8995

                     40                     41                     42
                      A                      A                      A
 Frequencies --    848.1246               934.7476               947.8224
 Red. masses --      1.4061                 2.3373                 2.2000
 Frc consts  --      0.5959                 1.2033                 1.1645
 IR Inten    --    110.3193                47.9388                45.5303

                     43                     44                     45
                      A                      A                      A
 Frequencies --    949.4107               970.6123              1006.7596
 Red. masses --      2.1546                 1.4744                 2.1870
 Frc consts  --      1.1443                 0.8184                 1.3060
 IR Inten    --     15.9001                11.4306                 5.7233

                     46                     47                     48
                      A                      A                      A
 Frequencies --   1034.4729              1072.1193              1074.0949
 Red. masses --      2.6744                 1.4327                12.0827
 Frc consts  --      1.6862                 0.9703                 8.2130
 IR Inten    --     91.7758                 4.4318               131.1157

                     49                     50                     51
                      A                      A                      A
 Frequencies --   1098.3107              1113.7450              1120.5391
 Red. masses --      2.0756                 1.8330                 1.9057
 Frc consts  --      1.4752                 1.3396                 1.4098
 IR Inten    --     19.0618                 4.7231                 2.3084

                     52                     53                     54
                      A                      A                      A
 Frequencies --   1126.2720              1189.0611              1225.3278
 Red. masses --      1.7248                 1.7987                 3.2008
 Frc consts  --      1.2890                 1.4983                 2.8315
 IR Inten    --     13.8812                 4.7574                11.6737

                     55                     56                     57
                      A                      A                      A
 Frequencies --   1238.7246              1251.7885              1290.5475
 Red. masses --      1.9901                 3.4644                 9.7860
 Frc consts  --      1.7992                 3.1985                 9.6030
 IR Inten    --     45.5077                50.0759               214.0930

                     58                     59                     60
                      A                      A                      A
 Frequencies --   1302.0478              1343.8638              1389.2650
 Red. masses --      2.3080                 1.1702                 1.2300
 Frc consts  --      2.3053                 1.2451                 1.3987
 IR Inten    --    170.9144                14.0865                16.3943

                     61                     62                     63
                      A                      A                      A
 Frequencies --   1400.0669              1420.6478              1427.1378
 Red. masses --      1.2488                 1.2613                 1.4483
 Frc consts  --      1.4423                 1.4998                 1.7380
 IR Inten    --      7.3998                14.9751                55.2495

                     64                     65                     66
                      A                      A                      A
 Frequencies --   1440.4195              1444.7281              1451.0404
 Red. masses --      1.2828                 1.2492                 1.3323
 Frc consts  --      1.5681                 1.5362                 1.6527
 IR Inten    --      8.9284                13.9126                12.4579

                     67                     68                     69
                      A                      A                      A
 Frequencies --   1479.0286              1509.2699              1516.3264
 Red. masses --      1.8545                 1.0709                 1.0485
 Frc consts  --      2.3902                 1.4372                 1.4204
 IR Inten    --     10.2789                 3.2008                 6.0344

                     70                     71                     72
                      A                      A                      A
 Frequencies --   1519.7117              1522.7206              1524.7665
 Red. masses --      1.0427                 1.0588                 1.0597
 Frc consts  --      1.4188                 1.4464                 1.4516
 IR Inten    --      2.0588                 3.3013                10.9099

                     73                     74                     75
                      A                      A                      A
 Frequencies --   1527.5617              1533.9706              1536.4054
 Red. masses --      1.0504                 1.0666                 1.0565
 Frc consts  --      1.4441                 1.4788                 1.4694
 IR Inten    --      6.2091                 1.5888                12.9202

                     76                     77                     78
                      A                      A                      A
 Frequencies --   1645.7612              1685.1486              1742.1545
 Red. masses --      4.1913                 1.1501                 6.2919
 Frc consts  --      6.6885                 1.9242                11.2514
 IR Inten    --    256.8725                32.3851                37.8246

                     79                     80                     81
                      A                      A                      A
 Frequencies --   2664.7859              3032.9935              3054.6958
 Red. masses --      1.0384                 1.0415                 1.0466
 Frc consts  --      4.3445                 5.6450                 5.7537
 IR Inten    --      6.3566                33.3474                17.7663

                     82                     83                     84
                      A                      A                      A
 Frequencies --   3056.1786              3059.4598              3073.8013
 Red. masses --      1.0547                 1.0434                 1.1000
 Frc consts  --      5.8042                 5.7545                 6.1233
 IR Inten    --     13.7360                27.4496                23.9054

                     85                     86                     87
                      A                      A                      A
 Frequencies --   3081.4018              3117.2839              3120.3706
 Red. masses --      1.0682                 1.1019                 1.1025
 Frc consts  --      5.9756                 6.3089                 6.3246
 IR Inten    --     27.5590                19.7298                30.3647

                     88                     89                     90
                      A                      A                      A
 Frequencies --   3134.3058              3140.0156              3143.9112
 Red. masses --      1.0886                 1.0964                 1.1000
 Frc consts  --      6.3008                 6.3690                 6.4059
 IR Inten    --      9.3784                17.1706                13.4555

                     91                     92                     93
                      A                      A                      A
 Frequencies --   3150.3407              3154.8672              3163.6141
 Red. masses --      1.0936                 1.1018                 1.0957
 Frc consts  --      6.3947                 6.4615                 6.4613
 IR Inten    --     38.7418                13.8488                 8.9198

                     94                     95                     96
                      A                      A                      A
 Frequencies --   3320.9710              3528.3232              3625.6066
 Red. masses --      1.0660                 1.0479                 1.0965
 Frc consts  --      6.9267                 7.6863                 8.4924
 IR Inten    --    342.6591                 9.9499                10.3615

 - Thermochemistry -
 -------------------
 Temperature   298.150 Kelvin.  Pressure   1.00000 Atm.
 Atom     1 has atomic number  6 and mass  12.00000

 Molecular mass:   266.07589 amu.
 Principal axes and moments of inertia in atomic units:
                           1         2         3
     Eigenvalues --  2721.057215833.696435947.72476
           X            0.99993   0.00991   0.00670
           Y           -0.01099   0.98186   0.18930
           Z           -0.00470  -0.18936   0.98190
 This molecule is an asymmetric top.
 Rotational symmetry number  1.
 Warning -- assumption of classical behavior for rotation
           may cause significant error
 Rotational temperatures (Kelvin)      0.03183     0.01485     0.01456
 Rotational constants (GHZ):           0.66325     0.30936     0.30343
 Zero-point vibrational energy     729683.0 (Joules/Mol)
                                  174.39843 (Kcal/Mol)
 Warning -- explicit consideration of  31 degrees of freedom as
           vibrations may cause significant error
 Vibrational temperatures:     33.87    59.33    75.23   100.33   119.19
          (Kelvin)            129.01   150.38   224.26   229.84   285.73
                              307.73   319.21   326.03   337.14   355.47
                              363.59   389.58   422.11   450.13   460.36
                              474.22   514.24   525.47   554.49   597.32
                              631.33   661.29   734.53   757.12   773.86
                              857.46   950.57   992.33  1016.61  1104.55
                             1132.86  1136.50  1156.42  1175.66  1220.26
                             1344.89  1363.71  1365.99  1396.49  1448.50
                             1488.38  1542.54  1545.38  1580.22  1602.43
                             1612.21  1620.45  1710.79  1762.97  1782.25
                             1801.04  1856.81  1873.36  1933.52  1998.84
                             2014.38  2044.00  2053.33  2072.44  2078.64
                             2087.72  2127.99  2171.50  2181.66  2186.53
                             2190.86  2193.80  2197.82  2207.04  2210.54
                             2367.88  2424.55  2506.57  3834.03  4363.80
                             4395.03  4397.16  4401.88  4422.51  4433.45
                             4485.08  4489.52  4509.57  4517.78  4523.39
                             4532.64  4539.15  4551.74  4778.14  5076.47
                             5216.44

 Zero-point correction=                           0.277922 (Hartree/Particle)
 Thermal correction to Energy=                    0.297371
 Thermal correction to Enthalpy=                  0.298315
 Thermal correction to Gibbs Free Energy=         0.229935
 Sum of electronic and zero-point Energies=          -1485.035299
 Sum of electronic and thermal Energies=             -1485.015850
 Sum of electronic and thermal Enthalpies=           -1485.014906
 Sum of electronic and thermal Free Energies=        -1485.083286

                     E (Thermal)             CV                S
                      KCal/Mol        Cal/Mol-Kelvin    Cal/Mol-Kelvin
 Total                  186.603             71.017            143.918
 Electronic               0.000              0.000              0.000
 Translational            0.889              2.981             42.635
 Rotational               0.889              2.981             32.912
 Vibrational            184.825             65.055             68.371
 Vibration     1          0.593              1.985              6.310
 Vibration     2          0.594              1.981              5.199
 Vibration     3          0.596              1.977              4.729
 Vibration     4          0.598              1.969              4.161
 Vibration     5          0.600              1.961              3.822
 Vibration     6          0.602              1.956              3.667
 Vibration     7          0.605              1.946              3.368
 Vibration     8          0.620              1.896              2.599
 Vibration     9          0.622              1.892              2.553
 Vibration    10          0.637              1.842              2.146
 Vibration    11          0.644              1.820              2.010
 Vibration    12          0.648              1.808              1.944
 Vibration    13          0.650              1.800              1.906
 Vibration    14          0.654              1.788              1.846
 Vibration    15          0.661              1.768              1.751
 Vibration    16          0.664              1.758              1.712
 Vibration    17          0.674              1.727              1.591
 Vibration    18          0.688              1.686              1.454
 Vibration    19          0.701              1.649              1.347
 Vibration    20          0.706              1.635              1.310
 Vibration    21          0.712              1.616              1.262
 Vibration    22          0.733              1.560              1.133
 Vibration    23          0.738              1.544              1.100
 Vibration    24          0.754              1.501              1.018
 Vibration    25          0.779              1.437              0.909
 Vibration    26          0.799              1.386              0.830
 Vibration    27          0.818              1.340              0.767
 Vibration    28          0.866              1.227              0.632
 Vibration    29          0.881              1.192              0.596
 Vibration    30          0.893              1.166              0.570
 Vibration    31          0.954              1.040              0.457

                           ! Non-Optimized Parameters !
 Normal termination of Gaussian 16 at Thu Dec 10 23:08:38 2020.

 ----------------------------------------------------------------------
 # B3LYP/6-311++G(d,p) empiricaldispersion=gd3bj scf=xqc pop=npa geom=c
 heck
 ----------------------------------------------------------------------

 ---------------------------------------
 CID_146883531_JID_6396_Energie_neutraal
 ---------------------------------------
 Structure from the checkpoint file:  "JID_6396.chk"
 Charge =  0 Multiplicity = 1

 SCF Done:  E(RB3LYP) =  -1485.58245512     A.U. after   17 cycles
 Normal termination of Gaussian 16 at Thu Dec 10 23:14:54 2020.

 ----------------------------------------------------------------------
 # B3LYP/6-311++G(d,p) empiricaldispersion=gd3bj scf=xqc pop=npa geom=c
 heck
 ----------------------------------------------------------------------

 -------------------------------------
 CID_146883531_JID_6396_Energie_kation
 -------------------------------------
 Structure from the checkpoint file:  "JID_6396.chk"
 Charge =  1 Multiplicity = 2

 SCF Done:  E(UB3LYP) =  -1485.29696518     A.U. after   28 cycles
 Normal termination of Gaussian 16 at Thu Dec 10 23:29:18 2020.
 Gaussian 16:  ES64L-G16RevA.03 25-Dec-2016

 ----------------------------------------------------------------------
 # B3LYP/6-311++G(d,p) empiricaldispersion=gd3bj scf=xqc pop=npa geom=c
 heck
 ----------------------------------------------------------------------

 ------------------------------------
 CID_146883531_JID_6396_Energie_anion
 ------------------------------------
 Structure from the checkpoint file:  "JID_6396.chk"
 Charge = -1 Multiplicity = 2

                         Standard orientation:
 ---------------------------------------------------------------------
 Center     Atomic      Atomic             Coordinates (Angstroms)
 Number     Number       Type             X           Y           Z
 ---------------------------------------------------------------------
      1          6           0        0.829842    0.167957    2.638388
      2          6           0        1.998891   -0.434996    1.858103
      3          7           0        2.036454   -0.077239    0.433158
      4          6           0        2.695203    1.179477    0.036309
      5          6           0        4.197937    0.989941   -0.152311
      6         16           0        1.063541   -0.865036   -0.642693
      7          8           0        1.646522   -0.676650   -1.970952
      8          8           0        0.883178   -2.233137   -0.091612
      9          6           0       -0.560529   -0.107994   -0.663190
     10          6           0       -1.614480   -0.668220   -0.004360
     11          6           0       -2.977099   -0.079608    0.063402
     12          6           0       -3.251635    1.138810    0.564685
     13          6           0       -2.292175    2.149389    1.115688
     14          7           0       -3.955151   -0.957833   -0.440992
     15          8           0       -1.573019   -1.845415    0.653858
     16         16           0       -0.654289    1.423519   -1.560732
     17          1           0        0.771236    1.252032    2.492655
     18          1           0        0.955709   -0.024099    3.709795
     19          1           0       -0.121450   -0.273743    2.329704
     20          1           0        2.952439   -0.091694    2.272350
     21          1           0        1.993533   -1.523739    1.932921
     22          1           0        2.240801    1.536831   -0.887551
     23          1           0        2.479942    1.930636    0.806171
     24          1           0        4.381854    0.278064   -0.961719
     25          1           0        4.673175    1.944348   -0.406343
     26          1           0        4.671993    0.607507    0.758411
     27          1           0       -4.303668    1.425735    0.591725
     28          1           0       -2.231099    3.041306    0.477367
     29          1           0       -2.622850    2.489309    2.105800
     30          1           0       -1.281503    1.749259    1.223959
     31          1           0       -3.742625   -1.928475   -0.236063
     32          1           0       -4.893062   -0.728163   -0.130817
     33          1           0       -0.695184   -2.273644    0.476436
     34          1           0       -0.155571    0.931379   -2.715789
 ---------------------------------------------------------------------

 SCF Done:  E(UB3LYP) =  -1485.57628030     A.U. after   33 cycles
 SCF Done:  E(UB3LYP) =  -1485.57628030     a.u. after    1 cycles

 The electronic state is 2-A.
 Alpha  occ. eigenvalues --  -88.95097 -88.74221 -19.02910 -19.01256 -19.00458
 Alpha  occ. eigenvalues --  -14.22978 -14.20314 -10.11869 -10.10589 -10.10190
 Alpha  occ. eigenvalues --  -10.09003 -10.08807 -10.06367 -10.05498 -10.05459
 Alpha  occ. eigenvalues --  -10.04235  -8.01184  -7.82852  -5.97507  -5.97444
 Alpha  occ. eigenvalues --   -5.97252  -5.79238  -5.78869  -5.78238  -1.01110
 Alpha  occ. eigenvalues --   -0.94929  -0.90100  -0.83052  -0.80003  -0.70505
 Alpha  occ. eigenvalues --   -0.66980  -0.65954  -0.64295  -0.60411  -0.57752
 Alpha  occ. eigenvalues --   -0.54666  -0.54128  -0.52025  -0.47115  -0.43470
 Alpha  occ. eigenvalues --   -0.42697  -0.39904  -0.39374  -0.38954  -0.37721
 Alpha  occ. eigenvalues --   -0.35574  -0.34766  -0.34014  -0.33603  -0.31529
 Alpha  occ. eigenvalues --   -0.31390  -0.30556  -0.29981  -0.28797  -0.28363
 Alpha  occ. eigenvalues --   -0.28006  -0.27507  -0.26874  -0.25484  -0.25413
 Alpha  occ. eigenvalues --   -0.24844  -0.24003  -0.23493  -0.22494  -0.21350
 Alpha  occ. eigenvalues --   -0.20511  -0.20115  -0.16301  -0.15108  -0.11001
 Alpha  occ. eigenvalues --   -0.09868   0.04672
 Alpha virt. eigenvalues --    0.06452   0.07351   0.08130   0.08358   0.09577
 Alpha virt. eigenvalues --    0.09697   0.10122   0.10899   0.11412   0.11534
 Alpha virt. eigenvalues --    0.12332   0.12578   0.13192   0.13348   0.14065

  Beta  occ. eigenvalues --  -88.95074 -88.74224 -19.02788 -19.01240 -19.00438
  Beta  occ. eigenvalues --  -14.22903 -14.20281 -10.11473 -10.10581 -10.10173
  Beta  occ. eigenvalues --  -10.09015 -10.08713 -10.06352 -10.05470 -10.05462
  Beta  occ. eigenvalues --  -10.04072  -8.01160  -7.82855  -5.97485  -5.97397
  Beta  occ. eigenvalues --   -5.97224  -5.79244  -5.78874  -5.78242  -1.01028
  Beta  occ. eigenvalues --   -0.94619  -0.90054  -0.82923  -0.79913  -0.70208
  Beta  occ. eigenvalues --   -0.66948  -0.65737  -0.64206  -0.60079  -0.57574
  Beta  occ. eigenvalues --   -0.54530  -0.54068  -0.51765  -0.46987  -0.43254
  Beta  occ. eigenvalues --   -0.42610  -0.39798  -0.39284  -0.38885  -0.37457
  Beta  occ. eigenvalues --   -0.35468  -0.34662  -0.33938  -0.33562  -0.31428
  Beta  occ. eigenvalues --   -0.31221  -0.30365  -0.29899  -0.28258  -0.28137
  Beta  occ. eigenvalues --   -0.27952  -0.27427  -0.26714  -0.25371  -0.25330
  Beta  occ. eigenvalues --   -0.24734  -0.23901  -0.23346  -0.22360  -0.21248
  Beta  occ. eigenvalues --   -0.20381  -0.20029  -0.15898  -0.14985  -0.10218
  Beta  occ. eigenvalues --   -0.09300
  Beta virt. eigenvalues --    0.07086   0.07339   0.08202   0.08531   0.09426
  Beta virt. eigenvalues --    0.09698   0.09997   0.10396   0.11122   0.11484
  Beta virt. eigenvalues --    0.11569   0.12348   0.12661   0.13297   0.13454

 Mulliken charges and spin densities:
               1          2
     1  C    0.236385  -0.595448
     2  C   -0.147963  -0.218744
     3  N    0.135711   0.073791
     4  C   -0.460777   0.279277
     5  C    0.290639  -0.764138
     6  S    0.451489  -0.445257
     7  O   -0.153971   0.004721
     8  O   -0.245780   0.009591
     9  C   -0.189683   0.204668
    10  C    0.445742   0.331760
    11  C   -0.694655  -0.107194
    12  C   -0.110635   0.290827
    13  C   -0.593520  -0.236763
    14  N   -0.280906  -0.011885
    15  O   -0.173393   0.020615
    16  S   -0.376963   0.055149
    17  H    0.148427  -0.024141
    18  H   -0.524895   0.677986
    19  H    0.272523  -0.087929
    20  H   -0.486360   0.643156
    21  H    0.180780   0.037413
    22  H    0.266090  -0.053087
    23  H   -0.178310   0.321630
    24  H    0.090136   0.064130
    25  H   -0.029054   0.149787
    26  H   -0.022908   0.162261
    27  H    0.123842  -0.005338
    28  H    0.094859   0.039726
    29  H    0.072004   0.054815
    30  H    0.076940  -0.001724
    31  H    0.252941   0.006958
    32  H    0.145890   0.081103
    33  H    0.288565   0.037791
    34  H    0.096809   0.004495
 Sum of Mulliken charges =  -1.00000   1.00000

 Dipole moment (field-independent basis, Debye):
    X=             -2.6005    Y=              0.6138    Z=             -2.3703  Tot=              3.5718
 Quadrupole moment (field-independent basis, Debye-Ang):
   XX=           -161.2112   YY=           -137.9192   ZZ=           -154.2137
   XY=              1.2835   XZ=            -11.7026   YZ=             -5.4447

 Summary of Natural Population Analysis:

                                       Natural Population
                Natural  -----------------------------------------------
    Atom  No    Charge         Core      Valence    Rydberg      Total
 -----------------------------------------------------------------------
      C    1   -0.29651      0.99965     2.29085    0.00601     3.29651
      C    2   -0.08797      0.99961     2.07552    0.01284     3.08797
      N    3   -0.37632      0.99971     2.86054    0.01607     3.87632
      C    4   -0.08741      0.99961     2.07606    0.01175     3.08741
      C    5   -0.28970      0.99966     2.28464    0.00540     3.28970
      S    6    1.13640      4.99902     1.76584    0.09874     6.86360
      O    7   -0.46841      0.99990     3.46285    0.00565     4.46841
      O    8   -0.48736      0.99990     3.48192    0.00555     4.48736
      C    9   -0.27880      0.99932     2.26498    0.01449     3.27880
      C   10    0.23449      0.99927     1.75003    0.01621     2.76551
      C   11    0.05889      0.99943     1.92861    0.01307     2.94111
      C   12   -0.08859      0.99950     2.08085    0.00823     3.08859
      C   13   -0.30334      0.99966     2.29697    0.00672     3.30334
      N   14   -0.40364      0.99972     2.89377    0.01015     3.90364
      O   15   -0.34512      0.99987     3.33906    0.00619     4.34512
      S   16    0.00865      4.99955     2.97528    0.01652     7.99135
      H   17    0.09737      0.00000     0.40133    0.00130     0.40263
      H   18    0.10031      0.00000     0.39845    0.00124     0.39969
      H   19    0.10527      0.00000     0.39327    0.00146     0.39473
      H   20    0.09954      0.00000     0.39802    0.00244     0.40046
      H   21    0.10659      0.00000     0.39207    0.00134     0.39341
      H   22    0.10976      0.00000     0.38875    0.00149     0.39024
      H   23    0.09304      0.00000     0.40562    0.00134     0.40696
      H   24    0.10336      0.00000     0.39552    0.00112     0.39664
      H   25    0.09511      0.00000     0.40412    0.00076     0.40489
      H   26    0.09837      0.00000     0.40029    0.00134     0.40163
      H   27    0.08102      0.00000     0.41762    0.00135     0.41898
      H   28    0.09906      0.00000     0.39997    0.00097     0.40094
      H   29    0.09782      0.00000     0.40123    0.00095     0.40218
      H   30    0.10620      0.00000     0.39245    0.00135     0.39380
      H   31    0.18668      0.00000     0.31186    0.00146     0.31332
      H   32    0.17668      0.00000     0.32139    0.00193     0.32332
      H   33    0.25104      0.00000     0.24552    0.00343     0.24896
      H   34    0.06750      0.00000     0.42925    0.00324     0.43250
 =======================================================================
   * Total *   -0.00000     23.99337    46.72452    0.28211    71.00000

 Normal termination of Gaussian 16 at Thu Dec 10 23:45:51 2020.
