 Gaussian 16, Revision A.03,

 ----------------------------------------------------------------------
 # opt=(cartesian,calcfc,maxcycle=500) freq B3LYP/6-31G(d) empiricaldis
 persion=gd3bj scf=xqc
 ----------------------------------------------------------------------

 -----------------------------
 CID_88746807_JID_977_neutraal
 -----------------------------
 Symbolic Z-matrix:
 Charge =  0 Multiplicity = 1

 SCF Done:  E(RB3LYP) =  -555.218114315     A.U. after   13 cycles
 SCF Done:  E(RB3LYP) =  -555.218660386     A.U. after   10 cycles
 SCF Done:  E(RB3LYP) =  -555.218934720     A.U. after   11 cycles
 SCF Done:  E(RB3LYP) =  -555.219318669     A.U. after   11 cycles
 SCF Done:  E(RB3LYP) =  -555.219560660     A.U. after   10 cycles
 SCF Done:  E(RB3LYP) =  -555.218897156     A.U. after   12 cycles
 SCF Done:  E(RB3LYP) =  -555.219839781     A.U. after   11 cycles
 SCF Done:  E(RB3LYP) =  -555.219429319     A.U. after   11 cycles
 SCF Done:  E(RB3LYP) =  -555.219527225     A.U. after   12 cycles
 SCF Done:  E(RB3LYP) =  -555.216311221     A.U. after   11 cycles
 SCF Done:  E(RB3LYP) =  -555.220212578     A.U. after    7 cycles
 SCF Done:  E(RB3LYP) =  -555.220212560     A.U. after    7 cycles
 SCF Done:  E(RB3LYP) =  -555.220212580     A.U. after    6 cycles
 SCF Done:  E(RB3LYP) =  -555.220212548     A.U. after    7 cycles
 SCF Done:  E(RB3LYP) =  -555.220212583     A.U. after    6 cycles
 SCF Done:  E(RB3LYP) =  -555.220212563     A.U. after    7 cycles
 Optimization completed on the basis of negligible forces.
    -- Stationary point found.
 Normal termination of Gaussian 16 at Wed Feb 24 13:42:08 2021.

 --------------------------------------------------------------------
 #N Geom=AllCheck Guess=TCheck SCRF=Check GenChk RB3LYP/6-31G(d) Freq
 --------------------------------------------------------------------

 Structure from the checkpoint file:  "JID_977.chk"
 -----------------------------
 CID_88746807_JID_977_neutraal
 -----------------------------
 Charge =  0 Multiplicity = 1

 SCF Done:  E(RB3LYP) =  -555.220212563     A.U. after    1 cycles

  Exact polarizability:  95.471   0.949  79.087  -2.581   2.984  64.400
 Approx polarizability: 122.894   4.166 101.818  -5.604   3.809  92.617

                      1                      2                      3
                      A                      A                      A
 Frequencies --     25.8483                43.6218                62.8259
 Red. masses --      4.6188                 3.5218                 3.8927
 Frc consts  --      0.0018                 0.0039                 0.0091
 IR Inten    --      1.5434                 3.1061                 0.9270

                      4                      5                      6
                      A                      A                      A
 Frequencies --     64.3486                84.4321                94.4471
 Red. masses --      3.2700                 4.1650                 3.5506
 Frc consts  --      0.0080                 0.0175                 0.0187
 IR Inten    --      0.7038                 0.8623                11.2572

                      7                      8                      9
                      A                      A                      A
 Frequencies --    111.0029               115.6479               120.9440
 Red. masses --      2.5692                 2.0035                 1.8445
 Frc consts  --      0.0187                 0.0158                 0.0159
 IR Inten    --      1.0928                 0.3677                 2.1593

                     10                     11                     12
                      A                      A                      A
 Frequencies --    129.0697               133.9824               172.6785
 Red. masses --      3.1966                 2.1623                 3.1972
 Frc consts  --      0.0314                 0.0229                 0.0562
 IR Inten    --      6.9039                 0.2961                 1.9215

                     13                     14                     15
                      A                      A                      A
 Frequencies --    202.0074               245.7438               292.9498
 Red. masses --      3.7372                 3.2457                 1.2092
 Frc consts  --      0.0899                 0.1155                 0.0611
 IR Inten    --      5.1836                 6.4803                 2.0405

                     16                     17                     18
                      A                      A                      A
 Frequencies --    339.3887               357.9072               441.8415
 Red. masses --      2.5504                 1.1406                 2.6961
 Frc consts  --      0.1731                 0.0861                 0.3101
 IR Inten    --      9.5818                57.1940                21.5534

                     19                     20                     21
                      A                      A                      A
 Frequencies --    501.3422               609.2362               637.5978
 Red. masses --      5.1184                 1.0828                 3.0334
 Frc consts  --      0.7580                 0.2368                 0.7266
 IR Inten    --      0.3413               147.9707                40.6615

                     22                     23                     24
                      A                      A                      A
 Frequencies --    704.2271               790.2906               830.0760
 Red. masses --      1.1681                 1.3369                 1.0855
 Frc consts  --      0.3413                 0.4920                 0.4407
 IR Inten    --    192.2539               223.1809                 9.3284

                     25                     26                     27
                      A                      A                      A
 Frequencies --    891.5043              1006.8037              1044.6231
 Red. masses --      2.4880                 1.7716                 1.6045
 Frc consts  --      1.1651                 1.0580                 1.0316
 IR Inten    --     23.8964                20.4756                 3.5648

                     28                     29                     30
                      A                      A                      A
 Frequencies --   1056.2667              1075.5000              1090.2497
 Red. masses --      2.8800                 1.4805                 4.9316
 Frc consts  --      1.8932                 1.0090                 3.4538
 IR Inten    --    138.9421                32.7935               131.8911

                     31                     32                     33
                      A                      A                      A
 Frequencies --   1092.1677              1113.5951              1134.3773
 Red. masses --      5.0887                 2.7251                 1.1872
 Frc consts  --      3.5763                 1.9911                 0.9001
 IR Inten    --    100.2682                46.9003                11.1450

                     34                     35                     36
                      A                      A                      A
 Frequencies --   1143.3851              1188.4726              1252.8544
 Red. masses --      1.6685                 1.2716                 1.3526
 Frc consts  --      1.2852                 1.0583                 1.2509
 IR Inten    --      6.2397                 0.5201               108.2198

                     37                     38                     39
                      A                      A                      A
 Frequencies --   1291.9570              1343.8248              1381.8534
 Red. masses --      1.3250                 1.8651                 1.1972
 Frc consts  --      1.3031                 1.9844                 1.3469
 IR Inten    --     21.4505                81.3889                 4.3833

                     40                     41                     42
                      A                      A                      A
 Frequencies --   1413.5539              1420.3037              1443.7574
 Red. masses --      1.2192                 1.1422                 1.2889
 Frc consts  --      1.4354                 1.3575                 1.5829
 IR Inten    --      9.1999                19.5090                 3.5343

                     43                     44                     45
                      A                      A                      A
 Frequencies --   1448.1457              1463.5701              1479.7400
 Red. masses --      1.2814                 1.1979                 1.1764
 Frc consts  --      1.5833                 1.5119                 1.5176
 IR Inten    --     20.2477                79.8819                59.0369

                     46                     47                     48
                      A                      A                      A
 Frequencies --   1510.7023              1515.6240              1520.7165
 Red. masses --      1.1553                 1.2215                 1.1429
 Frc consts  --      1.5535                 1.6532                 1.5573
 IR Inten    --     11.6544                23.0805                 6.7223

                     49                     50                     51
                      A                      A                      A
 Frequencies --   1523.1374              1531.8192              1541.1449
 Red. masses --      1.0605                 1.0481                 1.2415
 Frc consts  --      1.4496                 1.4490                 1.7373
 IR Inten    --      0.6606                 7.7625                 4.7780

                     52                     53                     54
                      A                      A                      A
 Frequencies --   1545.6499              1553.3881              1782.6783
 Red. masses --      1.0513                 1.0844                 5.8755
 Frc consts  --      1.4798                 1.5417                11.0013
 IR Inten    --      1.4319                 2.6194               481.3511

                     55                     56                     57
                      A                      A                      A
 Frequencies --   2988.3236              3006.4104              3029.2533
 Red. masses --      1.0383                 1.0863                 1.1034
 Frc consts  --      5.4629                 5.7850                 5.9655
 IR Inten    --     81.0526                67.5291                99.4826

                     58                     59                     60
                      A                      A                      A
 Frequencies --   3041.6378              3043.9343              3046.7993
 Red. masses --      1.0683                 1.0550                 1.0607
 Frc consts  --      5.8234                 5.7596                 5.8015
 IR Inten    --     80.7282                40.8537                36.0590

                     61                     62                     63
                      A                      A                      A
 Frequencies --   3111.1741              3120.6967              3127.7839
 Red. masses --      1.0965                 1.0927                 1.0985
 Frc consts  --      6.2533                 6.2697                 6.3315
 IR Inten    --     52.8917                17.2767                35.7979

                     64                     65                     66
                      A                      A                      A
 Frequencies --   3148.9208              3169.0844              3541.4856
 Red. masses --      1.1019                 1.0963                 1.0754
 Frc consts  --      6.4372                 6.4869                 7.9465
 IR Inten    --     12.4374                10.1740                50.8541

                     67                     68                     69
                      A                      A                      A
 Frequencies --   3609.1419              3634.8533              3747.4200
 Red. masses --      1.0660                 1.0671                 1.0662
 Frc consts  --      8.1812                 8.3065                 8.8221
 IR Inten    --    224.3091               490.4375                19.1305

 - Thermochemistry -
 -------------------
 Temperature   298.150 Kelvin.  Pressure   1.00000 Atm.
 Atom     1 has atomic number  6 and mass  12.00000

 Molecular mass:   153.10011 amu.
 Principal axes and moments of inertia in atomic units:
                           1         2         3
     Eigenvalues --  1385.323292531.124603240.39808
           X            0.99993  -0.01158   0.00245
           Y            0.01149   0.99946   0.03068
           Z           -0.00281  -0.03065   0.99953
 This molecule is an asymmetric top.
 Rotational symmetry number  1.
 Warning -- assumption of classical behavior for rotation
           may cause significant error
 Rotational temperatures (Kelvin)      0.06252     0.03422     0.02673
 Rotational constants (GHZ):           1.30276     0.71302     0.55695
 Zero-point vibrational energy     569899.4 (Joules/Mol)
                                  136.20923 (Kcal/Mol)
 Warning -- explicit consideration of  20 degrees of freedom as
           vibrations may cause significant error
 Vibrational temperatures:     37.19    62.76    90.39    92.58   121.48
          (Kelvin)            135.89   159.71   166.39   174.01   185.70
                              192.77   248.45   290.64   353.57   421.49
                              488.30   514.95   635.71   721.32   876.55
                              917.36  1013.23  1137.05  1194.29  1282.68
                             1448.57  1502.98  1519.73  1547.40  1568.63
                             1571.39  1602.21  1632.12  1645.08  1709.95
                             1802.58  1858.84  1933.46  1988.18  2033.79
                             2043.50  2077.24  2083.56  2105.75  2129.02
                             2173.56  2180.64  2187.97  2191.45  2203.95
                             2217.36  2223.85  2234.98  2564.88  4299.53
                             4325.55  4358.42  4376.24  4379.54  4383.66
                             4476.29  4489.99  4500.18  4530.59  4559.61
                             5095.41  5192.75  5229.74  5391.70

 Zero-point correction=                           0.217063 (Hartree/Particle)
 Thermal correction to Energy=                    0.232513
 Thermal correction to Enthalpy=                  0.233457
 Thermal correction to Gibbs Free Energy=         0.172374
 Sum of electronic and zero-point Energies=           -555.003149
 Sum of electronic and thermal Energies=              -554.987699
 Sum of electronic and thermal Enthalpies=            -554.986755
 Sum of electronic and thermal Free Energies=         -555.047838

                     E (Thermal)             CV                S
                      KCal/Mol        Cal/Mol-Kelvin    Cal/Mol-Kelvin
 Total                  145.904             49.508            128.560
 Electronic               0.000              0.000              0.000
 Translational            0.889              2.981             40.988
 Rotational               0.889              2.981             30.808
 Vibrational            144.127             43.547             56.764
 Vibration     1          0.593              1.985              6.125
 Vibration     2          0.595              1.980              5.087
 Vibration     3          0.597              1.972              4.366
 Vibration     4          0.597              1.971              4.319
 Vibration     5          0.601              1.960              3.785
 Vibration     6          0.603              1.953              3.566
 Vibration     7          0.607              1.940              3.251
 Vibration     8          0.608              1.936              3.172
 Vibration     9          0.609              1.932              3.085
 Vibration    10          0.612              1.924              2.960
 Vibration    11          0.613              1.919              2.888
 Vibration    12          0.626              1.876              2.406
 Vibration    13          0.639              1.837              2.115
 Vibration    14          0.660              1.770              1.761
 Vibration    15          0.688              1.687              1.457
 Vibration    16          0.719              1.597              1.215
 Vibration    17          0.733              1.559              1.131
 Vibration    18          0.802              1.379              0.821
 Vibration    19          0.857              1.247              0.655
 Vibration    20          0.968              1.012              0.434

 Optimization completed.
    -- Stationary point found.
 Normal termination of Gaussian 16 at Wed Feb 24 13:45:57 2021.

 ----------------------------------------------------------------------
 # B3LYP/6-311++G(d,p) empiricaldispersion=gd3bj scf=xqc pop=npa geom=c
 heck
 ----------------------------------------------------------------------

 -------------------------------------
 CID_88746807_JID_977_Energie_neutraal
 -------------------------------------
 Structure from the checkpoint file:  "JID_977.chk"
 Charge =  0 Multiplicity = 1

 SCF Done:  E(RB3LYP) =  -555.426215826     A.U. after   13 cycles
 Normal termination of Gaussian 16 at Wed Feb 24 13:47:13 2021.

 ----------------------------------------------------------------------
 # B3LYP/6-311++G(d,p) empiricaldispersion=gd3bj scf=xqc pop=npa geom=c
 heck
 ----------------------------------------------------------------------

 -----------------------------------
 CID_88746807_JID_977_Energie_kation
 -----------------------------------
 Structure from the checkpoint file:  "JID_977.chk"
 Charge =  1 Multiplicity = 2

 SCF Done:  E(UB3LYP) =  -555.084375976     A.U. after   31 cycles
 Normal termination of Gaussian 16 at Wed Feb 24 13:51:07 2021.
 Gaussian 16:  ES64L-G16RevA.03 25-Dec-2016

 ----------------------------------------------------------------------
 # B3LYP/6-311++G(d,p) empiricaldispersion=gd3bj scf=xqc pop=npa geom=c
 heck
 ----------------------------------------------------------------------

 ----------------------------------
 CID_88746807_JID_977_Energie_anion
 ----------------------------------
 Structure from the checkpoint file:  "JID_977.chk"
 Charge = -1 Multiplicity = 2

                         Standard orientation:
 ---------------------------------------------------------------------
 Center     Atomic      Atomic             Coordinates (Angstroms)
 Number     Number       Type             X           Y           Z
 ---------------------------------------------------------------------
      1          6           0       -1.202346    1.853659    0.903765
      2          6           0       -0.243932    1.887674   -0.273944
      3          8           0        1.140164    1.929859    0.152454
      4          6           0       -3.681544   -0.622536   -0.483180
      5          8           0       -2.328351   -0.611258   -0.891288
      6          6           0        2.754011   -0.779291   -0.195953
      7          7           0        1.628302   -0.885271    0.722846
      8          6           0        0.594674   -1.730710    0.501747
      9          8           0       -0.516216   -1.620773    1.016247
     10          8           0        2.465262   -0.033338   -1.348074
     11          1           0       -1.049959    0.944624    1.493309
     12          1           0       -2.233179    1.845748    0.537902
     13          1           0       -1.073543    2.730619    1.551724
     14          1           0       -0.342679    0.977401   -0.865956
     15          1           0       -0.444712    2.742613   -0.933133
     16          1           0        1.299119    2.790174    0.570715
     17          1           0       -4.259758   -0.095217   -1.248787
     18          1           0       -3.840511   -0.108177    0.478650
     19          1           0       -4.087145   -1.642552   -0.394023
     20          1           0       -1.810274   -1.087229   -0.214626
     21          1           0        3.027185   -1.785355   -0.524790
     22          1           0        3.593591   -0.357469    0.372578
     23          1           0        1.371976   -0.015233    1.183769
     24          1           0        0.851014   -2.564924   -0.176131
     25          1           0        2.188713    0.853190   -1.040445
 ---------------------------------------------------------------------

 SCF Done:  E(UB3LYP) =  -555.415229347     A.U. after   29 cycles

 The electronic state is 2-A.
 Alpha  occ. eigenvalues --  -19.02011 -19.01741 -19.01420 -19.00986 -14.24566
 Alpha  occ. eigenvalues --  -10.18855 -10.15862 -10.11308 -10.10170 -10.04390
 Alpha  occ. eigenvalues --   -0.95929  -0.93351  -0.91293  -0.91159  -0.82646
 Alpha  occ. eigenvalues --   -0.63574  -0.59693  -0.58168  -0.53901  -0.51172
 Alpha  occ. eigenvalues --   -0.44309  -0.41462  -0.40130  -0.39556  -0.39145
 Alpha  occ. eigenvalues --   -0.35211  -0.34404  -0.33702  -0.33675  -0.32693
 Alpha  occ. eigenvalues --   -0.31977  -0.31197  -0.27884  -0.26677  -0.25070
 Alpha  occ. eigenvalues --   -0.23608  -0.22080  -0.20306  -0.18216  -0.18051
 Alpha  occ. eigenvalues --   -0.17655  -0.17097   0.04850
 Alpha virt. eigenvalues --    0.06941   0.07220   0.08153   0.09096   0.09590
 Alpha virt. eigenvalues --    0.09789   0.11264   0.11321   0.11992   0.12709
 Alpha virt. eigenvalues --    0.13337   0.14473   0.14726   0.15626   0.15969

  Beta  occ. eigenvalues --  -19.01923 -19.01729 -19.01412 -19.00984 -14.24554
  Beta  occ. eigenvalues --  -10.18846 -10.15834 -10.11293 -10.10145 -10.04356
  Beta  occ. eigenvalues --   -0.95912  -0.93318  -0.91193  -0.91083  -0.82621
  Beta  occ. eigenvalues --   -0.63483  -0.59635  -0.58138  -0.53861  -0.51035
  Beta  occ. eigenvalues --   -0.44279  -0.41438  -0.40041  -0.39470  -0.39077
  Beta  occ. eigenvalues --   -0.35162  -0.34376  -0.33676  -0.33647  -0.32667
  Beta  occ. eigenvalues --   -0.31898  -0.31162  -0.27841  -0.26622  -0.25020
  Beta  occ. eigenvalues --   -0.23591  -0.22021  -0.20277  -0.18164  -0.18037
  Beta  occ. eigenvalues --   -0.17598  -0.17088
  Beta virt. eigenvalues --    0.06937   0.07454   0.08353   0.08674   0.09653
  Beta virt. eigenvalues --    0.09958   0.10291   0.11421   0.12120   0.12418
  Beta virt. eigenvalues --    0.12773   0.13473   0.14855   0.15045   0.15759

 Mulliken charges and spin densities:
               1          2
     1  C    0.414726  -0.913269
     2  C    0.208464  -0.519373
     3  O   -0.297854  -0.044924
     4  C    0.020536  -0.348315
     5  O   -0.329136   0.012105
     6  C    0.853602  -1.177006
     7  N   -0.220214   0.079892
     8  C    0.027172   0.019045
     9  O   -0.361804   0.002990
    10  O   -0.337698   0.060605
    11  H    0.093713   0.076459
    12  H    0.133212   0.015148
    13  H   -0.684442   0.823181
    14  H    0.194151  -0.011525
    15  H   -0.481915   0.620284
    16  H   -0.341160   0.657742
    17  H   -0.013608   0.145287
    18  H   -0.012341   0.140135
    19  H    0.024658   0.086182
    20  H    0.245684   0.036832
    21  H    0.030774   0.132480
    22  H   -0.699985   0.879345
    23  H    0.273897   0.071836
    24  H    0.054527   0.049859
    25  H    0.205039   0.105005
 Sum of Mulliken charges =  -1.00000   1.00000

 Dipole moment (field-independent basis, Debye):
    X=             -3.3740    Y=             -7.8209    Z=             -1.4714  Tot=              8.6438
 Quadrupole moment (field-independent basis, Debye-Ang):
   XX=           -113.3649   YY=           -113.2825   ZZ=            -93.9500
   XY=            -10.0443   XZ=             -2.1234   YZ=             -6.9707

 Summary of Natural Population Analysis:

                                       Natural Population
                Natural  -----------------------------------------------
    Atom  No    Charge         Core      Valence    Rydberg      Total
 -----------------------------------------------------------------------
      C    1   -0.30169      0.99966     2.29510    0.00693     3.30169
      C    2   -0.01644      0.99961     2.00311    0.01373     3.01644
      O    3   -0.40054      0.99989     3.39073    0.00992     4.40054
      C    4   -0.09692      0.99965     2.08856    0.00871     3.09692
      O    5   -0.37964      0.99990     3.37187    0.00787     4.37964
      C    6    0.07385      0.99965     1.90855    0.01794     2.92615
      N    7   -0.32114      0.99969     2.81177    0.00968     3.82114
      C    8    0.28254      0.99972     1.69620    0.02154     2.71746
      O    9   -0.33552      0.99987     3.32883    0.00681     4.33552
      O   10   -0.37752      0.99989     3.37126    0.00637     4.37752
      H   11    0.10272      0.00000     0.39585    0.00144     0.39728
      H   12    0.10138      0.00000     0.39738    0.00124     0.39862
      H   13    0.09874      0.00000     0.39941    0.00185     0.40126
      H   14    0.09365      0.00000     0.40396    0.00239     0.40635
      H   15    0.07865      0.00000     0.41991    0.00145     0.42135
      H   16    0.25140      0.00000     0.19885    0.04976     0.24860
      H   17    0.08131      0.00000     0.41734    0.00135     0.41869
      H   18    0.07514      0.00000     0.42339    0.00147     0.42486
      H   19    0.07085      0.00000     0.42759    0.00156     0.42915
      H   20    0.24273      0.00000     0.25371    0.00356     0.25727
      H   21    0.08238      0.00000     0.41634    0.00128     0.41762
      H   22    0.08477      0.00000     0.41307    0.00216     0.41523
      H   23    0.20721      0.00000     0.28908    0.00370     0.29279
      H   24    0.05358      0.00000     0.44472    0.00170     0.44642
      H   25    0.24852      0.00000     0.24745    0.00403     0.25148
 =======================================================================
   * Total *   -0.00000      9.99753    31.81404    0.18842    42.00000

 Normal termination of Gaussian 16 at Wed Feb 24 13:54:46 2021.
