 Gaussian 16, Revision A.03,

 -----------------------------------------------------------
 # opt freq B3LYP/6-31G(d) empiricaldispersion=gd3bj scf=xqc
 -----------------------------------------------------------

 ------------------------------
 CID_13080456_JID_3519_neutraal
 ------------------------------
 Symbolic Z-matrix:
 Charge =  0 Multiplicity = 1

 SCF Done:  E(RB3LYP) =  -591.453399799     A.U. after   14 cycles
 SCF Done:  E(RB3LYP) =  -591.457842436     A.U. after   12 cycles
 SCF Done:  E(RB3LYP) =  -591.458760935     A.U. after   12 cycles
 SCF Done:  E(RB3LYP) =  -591.459307230     A.U. after   11 cycles
 SCF Done:  E(RB3LYP) =  -591.460214458     A.U. after   12 cycles
 SCF Done:  E(RB3LYP) =  -591.459857791     A.U. after   15 cycles
 SCF Done:  E(RB3LYP) =  -591.462685783     A.U. after   12 cycles
 SCF Done:  E(RB3LYP) =  -591.464449300     A.U. after   13 cycles
 SCF Done:  E(RB3LYP) =  -591.466028856     A.U. after   12 cycles
 SCF Done:  E(RB3LYP) =  -591.466860551     A.U. after   12 cycles
 SCF Done:  E(RB3LYP) =  -591.467216186     A.U. after   10 cycles
 SCF Done:  E(RB3LYP) =  -591.467216517     A.U. after    7 cycles
 SCF Done:  E(RB3LYP) =  -591.467216626     A.U. after    7 cycles
 SCF Done:  E(RB3LYP) =  -591.467216645     A.U. after    7 cycles
 SCF Done:  E(RB3LYP) =  -591.467216651     A.U. after    7 cycles
 Optimization completed.
    -- Stationary point found.
 Normal termination of Gaussian 16 at Wed Dec  9 23:40:29 2020.

 --------------------------------------------------------------------
 #N Geom=AllCheck Guess=TCheck SCRF=Check GenChk RB3LYP/6-31G(d) Freq
 --------------------------------------------------------------------

 Structure from the checkpoint file:  "JID_3519.chk"
 ------------------------------
 CID_13080456_JID_3519_neutraal
 ------------------------------
 Charge =  0 Multiplicity = 1

 SCF Done:  E(RB3LYP) =  -591.467216651     A.U. after    1 cycles

  Exact polarizability: 132.950  -5.111  92.384  -7.612  -3.217  96.731
 Approx polarizability: 174.209 -14.142 148.208 -12.153 -14.067 154.646

                      1                      2                      3
                      A                      A                      A
 Frequencies --     20.4635                54.9004                72.2141
 Red. masses --      3.4284                 3.6926                 4.1065
 Frc consts  --      0.0008                 0.0066                 0.0126
 IR Inten    --      0.6882                 0.5649                 3.6352

                      4                      5                      6
                      A                      A                      A
 Frequencies --     88.0191               200.4474               205.0418
 Red. masses --      6.0931                 1.5593                 3.6885
 Frc consts  --      0.0278                 0.0369                 0.0914
 IR Inten    --      0.0588                 1.3598                 0.2165

                      7                      8                      9
                      A                      A                      A
 Frequencies --    261.1259               271.3969               295.2205
 Red. masses --      1.3116                 1.1313                 1.8236
 Frc consts  --      0.0527                 0.0491                 0.0936
 IR Inten    --      0.9394                 0.1868                 0.5413

                     10                     11                     12
                      A                      A                      A
 Frequencies --    305.6314               317.8728               333.6702
 Red. masses --      2.4322                 2.5248                 3.2585
 Frc consts  --      0.1339                 0.1503                 0.2137
 IR Inten    --      0.1044                 0.1396                 3.4936

                     13                     14                     15
                      A                      A                      A
 Frequencies --    349.8705               380.9522               395.1812
 Red. masses --      2.5173                 2.1314                 2.2461
 Frc consts  --      0.1816                 0.1822                 0.2067
 IR Inten    --      2.2642                 2.2422                 5.6702

                     16                     17                     18
                      A                      A                      A
 Frequencies --    444.6881               512.1746               534.7624
 Red. masses --      2.6784                 2.8504                 2.9840
 Frc consts  --      0.3121                 0.4405                 0.5028
 IR Inten    --      0.0067                 4.5201                 6.6528

                     19                     20                     21
                      A                      A                      A
 Frequencies --    651.8837               685.1124               695.4112
 Red. masses --      4.1295                 3.4311                 3.7667
 Frc consts  --      1.0339                 0.9489                 1.0732
 IR Inten    --      0.9743                19.5792                15.3438

                     22                     23                     24
                      A                      A                      A
 Frequencies --    774.4993               820.9973               840.1572
 Red. masses --      5.3705                 2.8664                 1.5102
 Frc consts  --      1.8981                 1.1383                 0.6281
 IR Inten    --     10.2180                 5.4192                 9.6669

                     25                     26                     27
                      A                      A                      A
 Frequencies --    850.7797               890.5949               914.4872
 Red. masses --      2.9921                 1.3839                 1.5595
 Frc consts  --      1.2760                 0.6467                 0.7684
 IR Inten    --     20.4574                 4.7234                 2.8811

                     28                     29                     30
                      A                      A                      A
 Frequencies --    944.9728               949.1535               954.2001
 Red. masses --      3.8708                 1.7401                 1.7095
 Frc consts  --      2.0365                 0.9237                 0.9171
 IR Inten    --     12.3914                 0.4346                 1.0154

                     31                     32                     33
                      A                      A                      A
 Frequencies --    974.8926               977.9521              1012.9521
 Red. masses --      6.2866                 1.2079                 2.9084
 Frc consts  --      3.5203                 0.6806                 1.7583
 IR Inten    --     11.0580                 0.4379                 5.4207

                     34                     35                     36
                      A                      A                      A
 Frequencies --   1044.8473              1057.3154              1077.5939
 Red. masses --      2.5180                 1.4133                 1.7629
 Frc consts  --      1.6196                 0.9309                 1.2061
 IR Inten    --     28.7950                 1.7672                 7.9139

                     37                     38                     39
                      A                      A                      A
 Frequencies --   1134.6223              1158.3417              1171.9643
 Red. masses --      1.2847                 1.7564                 1.4556
 Frc consts  --      0.9744                 1.3885                 1.1779
 IR Inten    --      8.8900                26.8705                 6.6945

                     40                     41                     42
                      A                      A                      A
 Frequencies --   1173.4673              1214.1320              1240.7612
 Red. masses --      1.9984                 1.8021                 1.6523
 Frc consts  --      1.6213                 1.5652                 1.4987
 IR Inten    --     16.2034                 1.3776                14.9866

                     43                     44                     45
                      A                      A                      A
 Frequencies --   1251.1940              1262.7677              1307.7112
 Red. masses --      2.6809                 2.8493                 2.7619
 Frc consts  --      2.4728                 2.6769                 2.7828
 IR Inten    --      8.3631                 4.6785                 4.5258

                     46                     47                     48
                      A                      A                      A
 Frequencies --   1317.1954              1362.1411              1384.2203
 Red. masses --      3.1514                 2.3186                 3.1435
 Frc consts  --      3.2215                 2.5346                 3.5487
 IR Inten    --     34.1126                 0.4102                 6.7353

                     49                     50                     51
                      A                      A                      A
 Frequencies --   1407.2057              1420.1177              1429.9787
 Red. masses --      2.8969                 1.3699                 1.2344
 Frc consts  --      3.3799                 1.6277                 1.4872
 IR Inten    --     14.7847                 5.7390                 5.3995

                     52                     53                     54
                      A                      A                      A
 Frequencies --   1434.9630              1460.2526              1474.5019
 Red. masses --      1.5406                 1.2390                 3.2551
 Frc consts  --      1.8690                 1.5565                 4.1697
 IR Inten    --      1.9711                 6.8539                18.3805

                     55                     56                     57
                      A                      A                      A
 Frequencies --   1504.2510              1515.3648              1520.2832
 Red. masses --      1.1634                 1.0538                 1.0504
 Frc consts  --      1.5510                 1.4257                 1.4303
 IR Inten    --      3.1505                 0.2840                 1.0201

                     58                     59                     60
                      A                      A                      A
 Frequencies --   1526.4322              1539.2313              1540.5841
 Red. masses --      1.0594                 1.0645                 1.0658
 Frc consts  --      1.4543                 1.4859                 1.4904
 IR Inten    --      0.4751                 4.0010                 7.1656

                     61                     62                     63
                      A                      A                      A
 Frequencies --   1553.0762              1559.6453              1566.0743
 Red. masses --      1.1604                 2.9913                 1.2578
 Frc consts  --      1.6492                 4.2871                 1.8175
 IR Inten    --      6.3387                70.9558                 2.3919

                     64                     65                     66
                      A                      A                      A
 Frequencies --   3048.5393              3052.3657              3060.2564
 Red. masses --      1.0350                 1.0350                 1.0362
 Frc consts  --      5.6671                 5.6816                 5.7176
 IR Inten    --     20.2762                22.3207                11.4240

                     67                     68                     69
                      A                      A                      A
 Frequencies --   3098.6236              3115.4464              3115.9741
 Red. masses --      1.0662                 1.1015                 1.1024
 Frc consts  --      6.0316                 6.2993                 6.3064
 IR Inten    --     20.9274                 0.2273                 4.7906

                     70                     71                     72
                      A                      A                      A
 Frequencies --   3120.6586              3123.2242              3127.3402
 Red. masses --      1.1015                 1.0996                 1.1024
 Frc consts  --      6.3201                 6.3193                 6.3523
 IR Inten    --     37.9353                70.6941                25.6810

                     73                     74                     75
                      A                      A                      A
 Frequencies --   3142.3166              3147.6676              3167.2730
 Red. masses --      1.0936                 1.0598                 1.1003
 Frc consts  --      6.3623                 6.1867                 6.5034
 IR Inten    --     16.4351                20.4401                 2.7031

                     76                     77                     78
                      A                      A                      A
 Frequencies --   3231.3111              3276.0314              3293.5926
 Red. masses --      1.1204                 1.0965                 1.0989
 Frc consts  --      6.8923                 6.9334                 7.0235
 IR Inten    --     14.0476                 7.0478                 0.4869

 - Thermochemistry -
 -------------------
 Temperature   298.150 Kelvin.  Pressure   1.00000 Atm.
 Atom     1 has atomic number  6 and mass  12.00000

 Molecular mass:   181.12151 amu.
 Principal axes and moments of inertia in atomic units:
                           1         2         3
     Eigenvalues --   950.345563813.462783956.62527
           X            0.99998  -0.00549  -0.00295
           Y            0.00570   0.99700   0.07720
           Z            0.00252  -0.07721   0.99701
 This molecule is an asymmetric top.
 Rotational symmetry number  1.
 Warning -- assumption of classical behavior for rotation
           may cause significant error
 Rotational temperatures (Kelvin)      0.09114     0.02271     0.02189
 Rotational constants (GHZ):           1.89904     0.47326     0.45613
 Zero-point vibrational energy     632301.4 (Joules/Mol)
                                  151.12366 (Kcal/Mol)
 Warning -- explicit consideration of  18 degrees of freedom as
           vibrations may cause significant error
 Vibrational temperatures:     29.44    78.99   103.90   126.64   288.40
          (Kelvin)            295.01   375.70   390.48   424.76   439.74
                              457.35   480.08   503.39   548.11   568.58
                              639.81   736.90   769.40   937.92   985.72
                             1000.54  1114.33  1181.23  1208.80  1224.08
                             1281.37  1315.74  1359.61  1365.62  1372.88
                             1402.65  1407.05  1457.41  1503.30  1521.24
                             1550.42  1632.47  1666.60  1686.20  1688.36
                             1746.87  1785.18  1800.19  1816.84  1881.50
                             1895.15  1959.82  1991.58  2024.66  2043.23
                             2057.42  2064.59  2100.98  2121.48  2164.28
                             2180.27  2187.35  2196.20  2214.61  2216.56
                             2234.53  2243.98  2253.23  4386.17  4391.67
                             4403.03  4458.23  4482.43  4483.19  4489.93
                             4493.62  4499.55  4521.09  4528.79  4557.00
                             4649.14  4713.48  4738.75

 Zero-point correction=                           0.240831 (Hartree/Particle)
 Thermal correction to Energy=                    0.253632
 Thermal correction to Enthalpy=                  0.254576
 Thermal correction to Gibbs Free Energy=         0.200832
 Sum of electronic and zero-point Energies=           -591.226386
 Sum of electronic and thermal Energies=              -591.213585
 Sum of electronic and thermal Enthalpies=            -591.212641
 Sum of electronic and thermal Free Energies=         -591.266384

                     E (Thermal)             CV                S
                      KCal/Mol        Cal/Mol-Kelvin    Cal/Mol-Kelvin
 Total                  159.156             48.749            113.113
 Electronic               0.000              0.000              0.000
 Translational            0.889              2.981             41.489
 Rotational               0.889              2.981             31.040
 Vibrational            157.379             42.787             40.585
 Vibration     1          0.593              1.986              6.589
 Vibration     2          0.596              1.976              4.633
 Vibration     3          0.598              1.967              4.092
 Vibration     4          0.601              1.958              3.704
 Vibration     5          0.638              1.839              2.129
 Vibration     6          0.640              1.833              2.087
 Vibration     7          0.669              1.744              1.654
 Vibration     8          0.675              1.726              1.587
 Vibration     9          0.689              1.683              1.444
 Vibration    10          0.696              1.663              1.386
 Vibration    11          0.704              1.639              1.321
 Vibration    12          0.715              1.608              1.242
 Vibration    13          0.727              1.576              1.167
 Vibration    14          0.751              1.511              1.035
 Vibration    15          0.762              1.480              0.981
 Vibration    16          0.804              1.373              0.812
 Vibration    17          0.867              1.223              0.628
 Vibration    18          0.890              1.173              0.577

 Optimization completed.
    -- Stationary point found.
 Normal termination of Gaussian 16 at Wed Dec  9 23:47:52 2020.

 ----------------------------------------------------------------------
 # B3LYP/6-311++G(d,p) empiricaldispersion=gd3bj scf=xqc pop=npa geom=c
 heck
 ----------------------------------------------------------------------

 --------------------------------------
 CID_13080456_JID_3519_Energie_neutraal
 --------------------------------------
 Structure from the checkpoint file:  "JID_3519.chk"
 Charge =  0 Multiplicity = 1

 SCF Done:  E(RB3LYP) =  -591.629075477     A.U. after   15 cycles
 Normal termination of Gaussian 16 at Wed Dec  9 23:51:13 2020.

 ----------------------------------------------------------------------
 # B3LYP/6-311++G(d,p) empiricaldispersion=gd3bj scf=xqc pop=npa geom=c
 heck
 ----------------------------------------------------------------------

 ------------------------------------
 CID_13080456_JID_3519_Energie_kation
 ------------------------------------
 Structure from the checkpoint file:  "JID_3519.chk"
 Charge =  1 Multiplicity = 2

 SCF Done:  E(UB3LYP) =  -591.282977674     A.U. after   28 cycles
 Normal termination of Gaussian 16 at Thu Dec 10 00:00:13 2020.
 Gaussian 16:  ES64L-G16RevA.03 25-Dec-2016

 ----------------------------------------------------------------------
 # B3LYP/6-311++G(d,p) empiricaldispersion=gd3bj scf=xqc pop=npa geom=c
 heck
 ----------------------------------------------------------------------

 -----------------------------------
 CID_13080456_JID_3519_Energie_anion
 -----------------------------------
 Structure from the checkpoint file:  "JID_3519.chk"
 Charge = -1 Multiplicity = 2

                         Standard orientation:
 ---------------------------------------------------------------------
 Center     Atomic      Atomic             Coordinates (Angstroms)
 Number     Number       Type             X           Y           Z
 ---------------------------------------------------------------------
      1          6           0        3.098783    0.921118    0.591026
      2          6           0        2.214940   -0.183784   -0.014810
      3          6           0        2.578847   -0.328603   -1.506792
      4          6           0        2.489538   -1.504559    0.728590
      5          6           0        0.721836    0.182578    0.104736
      6          6           0        0.222303    1.126235    1.115147
      7          8           0        0.378494    1.529095   -0.261307
      8          6           0       -0.258161   -0.845484   -0.468330
      9          7           0       -1.646353   -0.473580   -0.289211
     10          6           0       -2.379337    0.453203   -0.948085
     11          7           0       -3.584323    0.555949   -0.410462
     12          6           0       -3.530283   -0.347124    0.610875
     13          7           0       -2.380065   -0.995120    0.735440
     14          1           0        4.149222    0.720949    0.355641
     15          1           0        3.010512    0.958682    1.681797
     16          1           0        2.835038    1.901122    0.183564
     17          1           0        3.652805   -0.514198   -1.615418
     18          1           0        2.056707   -1.164875   -1.983832
     19          1           0        2.334878    0.587976   -2.054564
     20          1           0        2.151264   -1.448957    1.769727
     21          1           0        1.996883   -2.360641    0.255674
     22          1           0        3.565292   -1.711896    0.735380
     23          1           0       -0.805636    1.047421    1.460187
     24          1           0        0.912097    1.598362    1.809012
     25          1           0       -0.074177   -0.966444   -1.539105
     26          1           0       -0.134868   -1.815520    0.013679
     27          1           0       -1.992061    1.019673   -1.782022
     28          1           0       -4.361528   -0.536632    1.276222
 ---------------------------------------------------------------------

 SCF Done:  E(UB3LYP) =  -591.616840323     A.U. after   33 cycles
 SCF Done:  E(UB3LYP) =  -591.616840322     a.u. after    1 cycles

 The electronic state is 2-A.
 Alpha  occ. eigenvalues --  -19.04419 -14.30813 -14.24899 -14.21692 -10.14567
 Alpha  occ. eigenvalues --  -10.14553 -10.13016 -10.12834 -10.12750 -10.09463
 Alpha  occ. eigenvalues --  -10.05923 -10.05592 -10.05519  -0.99418  -0.98213
 Alpha  occ. eigenvalues --   -0.81733  -0.75529  -0.72507  -0.65195  -0.59343
 Alpha  occ. eigenvalues --   -0.58741  -0.57334  -0.54646  -0.53560  -0.50233
 Alpha  occ. eigenvalues --   -0.45371  -0.44495  -0.41882  -0.38976  -0.37292
 Alpha  occ. eigenvalues --   -0.36064  -0.34315  -0.34182  -0.33484  -0.32933
 Alpha  occ. eigenvalues --   -0.32409  -0.29450  -0.28474  -0.28107  -0.26691
 Alpha  occ. eigenvalues --   -0.25367  -0.24380  -0.24034  -0.23271  -0.21214
 Alpha  occ. eigenvalues --   -0.20655  -0.19466  -0.17925  -0.17883   0.04500
 Alpha virt. eigenvalues --    0.07048   0.07630   0.08214   0.08456   0.08648
 Alpha virt. eigenvalues --    0.09876   0.10314   0.10337   0.10827   0.11647
 Alpha virt. eigenvalues --    0.12099   0.12560   0.13413   0.13811   0.14231

  Beta  occ. eigenvalues --  -19.04416 -14.30789 -14.24870 -14.21690 -10.14554
  Beta  occ. eigenvalues --  -10.14536 -10.13015 -10.12820 -10.12722 -10.09457
  Beta  occ. eigenvalues --  -10.05880 -10.05554 -10.05472  -0.99391  -0.98196
  Beta  occ. eigenvalues --   -0.81700  -0.75481  -0.72480  -0.65151  -0.59281
  Beta  occ. eigenvalues --   -0.58666  -0.57283  -0.54603  -0.53539  -0.50174
  Beta  occ. eigenvalues --   -0.45316  -0.44436  -0.41826  -0.38932  -0.37246
  Beta  occ. eigenvalues --   -0.36020  -0.34263  -0.34128  -0.33449  -0.32900
  Beta  occ. eigenvalues --   -0.32369  -0.29424  -0.28427  -0.28060  -0.26645
  Beta  occ. eigenvalues --   -0.25327  -0.24338  -0.23993  -0.23224  -0.21158
  Beta  occ. eigenvalues --   -0.20604  -0.19446  -0.17873  -0.17786
  Beta virt. eigenvalues --    0.07025   0.07848   0.07974   0.08795   0.08967
  Beta virt. eigenvalues --    0.09384   0.10501   0.10661   0.10878   0.11325
  Beta virt. eigenvalues --    0.12116   0.12442   0.13074   0.13668   0.13862

 Mulliken charges and spin densities:
               1          2
     1  C    0.661180  -1.263421
     2  C   -3.941972   4.815940
     3  C    1.536830  -2.113352
     4  C    1.101807  -1.832145
     5  C    1.807964  -1.648583
     6  C   -0.226658  -0.394617
     7  O   -0.123106   0.016439
     8  C    0.911737  -1.587911
     9  N    0.101663   0.003215
    10  C    0.256707  -0.268709
    11  N   -0.179790   0.027776
    12  C   -0.028291  -0.116852
    13  N   -0.163073   0.060044
    14  H   -0.332710   0.491253
    15  H   -0.317959   0.444535
    16  H   -0.048860   0.222995
    17  H   -0.407868   0.584039
    18  H   -0.432338   0.571921
    19  H   -0.064838   0.233582
    20  H   -0.085378   0.239186
    21  H   -0.380544   0.527002
    22  H   -0.445185   0.621812
    23  H    0.070105   0.113761
    24  H   -0.000034   0.166013
    25  H   -0.276061   0.533614
    26  H   -0.083190   0.316297
    27  H   -0.026331   0.208117
    28  H    0.116196   0.028049
 Sum of Mulliken charges =  -1.00000   1.00000

 Dipole moment (field-independent basis, Debye):
    X=             -6.3379    Y=              2.5736    Z=              2.2432  Tot=              7.1990
 Quadrupole moment (field-independent basis, Debye-Ang):
   XX=           -156.6684   YY=           -119.9654   ZZ=           -116.4192
   XY=              8.0870   XZ=             -2.7482   YZ=             -2.5957

 Summary of Natural Population Analysis:

                                       Natural Population
                Natural  -----------------------------------------------
    Atom  No    Charge         Core      Valence    Rydberg      Total
 -----------------------------------------------------------------------
      C    1   -0.28723      0.99963     2.27984    0.00777     3.28723
      C    2   -0.05603      0.99955     2.04199    0.01450     3.05603
      C    3   -0.28632      0.99962     2.27902    0.00767     3.28632
      C    4   -0.28452      0.99962     2.27751    0.00740     3.28452
      C    5    0.11877      0.99949     1.86378    0.01797     2.88123
      C    6   -0.03079      0.99948     2.01971    0.01160     3.03079
      O    7   -0.28909      0.99991     3.28298    0.00619     4.28909
      C    8   -0.09380      0.99955     2.08218    0.01207     3.09380
      N    9   -0.11319      0.99966     2.59889    0.01464     3.61319
      C   10    0.11974      0.99962     1.86360    0.01703     2.88026
      N   11   -0.26870      0.99973     2.75908    0.00989     3.76870
      C   12    0.08105      0.99970     1.90070    0.01854     2.91895
      N   13   -0.15581      0.99974     2.64527    0.01080     3.65581
      H   14    0.10546      0.00000     0.39330    0.00125     0.39454
      H   15    0.09949      0.00000     0.39911    0.00140     0.40051
      H   16    0.10655      0.00000     0.39206    0.00138     0.39345
      H   17    0.10499      0.00000     0.39348    0.00154     0.39501
      H   18    0.10205      0.00000     0.39570    0.00226     0.39795
      H   19    0.10350      0.00000     0.39506    0.00144     0.39650
      H   20    0.10075      0.00000     0.39792    0.00133     0.39925
      H   21    0.10142      0.00000     0.39687    0.00171     0.39858
      H   22    0.10648      0.00000     0.39188    0.00165     0.39352
      H   23    0.09270      0.00000     0.40614    0.00116     0.40730
      H   24    0.09455      0.00000     0.40456    0.00089     0.40545
      H   25    0.11332      0.00000     0.38432    0.00237     0.38668
      H   26    0.11858      0.00000     0.37923    0.00219     0.38142
      H   27    0.10525      0.00000     0.39332    0.00143     0.39475
      H   28    0.09085      0.00000     0.40836    0.00079     0.40915
 =======================================================================
   * Total *   -0.00000     12.99530    35.82584    0.17886    49.00000

 Normal termination of Gaussian 16 at Thu Dec 10 00:10:48 2020.
