 Gaussian 16, Revision A.03,

 -----------------------------------------------------------
 # opt freq B3LYP/6-31G(d) empiricaldispersion=gd3bj scf=xqc
 -----------------------------------------------------------

 ------------------------------
 CID_66683598_JID_6290_neutraal
 ------------------------------
 Symbolic Z-matrix:
 Charge =  0 Multiplicity = 1

 SCF Done:  E(RB3LYP) =  -710.908455658     A.U. after   15 cycles
 SCF Done:  E(RB3LYP) =  -710.911909308     A.U. after   12 cycles
 SCF Done:  E(RB3LYP) =  -710.912566579     A.U. after   13 cycles
 SCF Done:  E(RB3LYP) =  -710.912897180     A.U. after   14 cycles
 SCF Done:  E(RB3LYP) =  -710.913609277     A.U. after   11 cycles
 SCF Done:  E(RB3LYP) =  -710.913484368     A.U. after   12 cycles
 SCF Done:  E(RB3LYP) =  -710.913806277     A.U. after   12 cycles
 SCF Done:  E(RB3LYP) =  -710.913924160     A.U. after   11 cycles
 SCF Done:  E(RB3LYP) =  -710.913890767     A.U. after   11 cycles
 SCF Done:  E(RB3LYP) =  -710.913960475     A.U. after   11 cycles
 SCF Done:  E(RB3LYP) =  -710.913983113     A.U. after   10 cycles
 SCF Done:  E(RB3LYP) =  -710.913983664     A.U. after    9 cycles
 SCF Done:  E(RB3LYP) =  -710.913983875     A.U. after    8 cycles
 SCF Done:  E(RB3LYP) =  -710.913983928     A.U. after    7 cycles
 SCF Done:  E(RB3LYP) =  -710.913983938     A.U. after    7 cycles
 Optimization completed.
    -- Stationary point found.
 Normal termination of Gaussian 16 at Thu Dec 10 22:08:28 2020.

 --------------------------------------------------------------------
 #N Geom=AllCheck Guess=TCheck SCRF=Check GenChk RB3LYP/6-31G(d) Freq
 --------------------------------------------------------------------

 Structure from the checkpoint file:  "JID_6290.chk"
 ------------------------------
 CID_66683598_JID_6290_neutraal
 ------------------------------
 Charge =  0 Multiplicity = 1

 SCF Done:  E(RB3LYP) =  -710.913983938     A.U. after    1 cycles

  Exact polarizability: 174.777   1.298 165.658   4.757   4.634  86.906
 Approx polarizability: 254.829   3.184 245.933  10.054  11.569 133.917

                      1                      2                      3
                      A                      A                      A
 Frequencies --     29.6043                43.0362                64.1959
 Red. masses --      5.7857                 4.7170                 3.0622
 Frc consts  --      0.0030                 0.0051                 0.0074
 IR Inten    --      2.2028                 1.0170                 0.1125

                      4                      5                      6
                      A                      A                      A
 Frequencies --     94.4408               114.5163               163.8660
 Red. masses --      3.8987                 4.2199                 3.0017
 Frc consts  --      0.0205                 0.0326                 0.0475
 IR Inten    --      0.5001                 1.6263                 0.5713

                      7                      8                      9
                      A                      A                      A
 Frequencies --    205.4671               208.1496               246.4131
 Red. masses --      2.7181                 3.1291                 1.1748
 Frc consts  --      0.0676                 0.0799                 0.0420
 IR Inten    --      3.2742                 6.9740                15.1938

                     10                     11                     12
                      A                      A                      A
 Frequencies --    256.3167               271.5525               286.6121
 Red. masses --      1.5300                 1.9702                 1.4855
 Frc consts  --      0.0592                 0.0856                 0.0719
 IR Inten    --    133.1348                58.7021                 2.2569

                     13                     14                     15
                      A                      A                      A
 Frequencies --    296.9279               314.7606               357.1830
 Red. masses --      1.8207                 3.1934                 3.5371
 Frc consts  --      0.0946                 0.1864                 0.2659
 IR Inten    --      1.6568                 2.1960                 3.7014

                     16                     17                     18
                      A                      A                      A
 Frequencies --    387.8035               405.9574               454.1105
 Red. masses --      3.6846                 2.8779                 3.8192
 Frc consts  --      0.3265                 0.2794                 0.4640
 IR Inten    --     11.7533                 6.9981                 5.1670

                     19                     20                     21
                      A                      A                      A
 Frequencies --    469.5743               535.7690               540.6610
 Red. masses --      2.8688                 3.0642                 3.5350
 Frc consts  --      0.3727                 0.5182                 0.6088
 IR Inten    --      1.6775                 2.0152                 7.3824

                     22                     23                     24
                      A                      A                      A
 Frequencies --    554.9881               557.5224               587.3605
 Red. masses --      3.8600                 4.3800                 3.7953
 Frc consts  --      0.7005                 0.8021                 0.7714
 IR Inten    --      0.5764                 2.0552                 1.9597

                     25                     26                     27
                      A                      A                      A
 Frequencies --    626.4759               644.1786               691.2576
 Red. masses --      1.4491                 2.5550                 4.3659
 Frc consts  --      0.3351                 0.6247                 1.2292
 IR Inten    --      2.0982                 3.5255                 3.7327

                     28                     29                     30
                      A                      A                      A
 Frequencies --    726.7407               753.2975               789.0500
 Red. masses --      2.8187                 3.1650                 1.5064
 Frc consts  --      0.8771                 1.0582                 0.5526
 IR Inten    --      7.7326                15.6947                18.1258

                     31                     32                     33
                      A                      A                      A
 Frequencies --    831.5408               859.3822               873.9469
 Red. masses --      4.2151                 2.1838                 3.3078
 Frc consts  --      1.7172                 0.9502                 1.4886
 IR Inten    --      5.0024                 5.8668                 8.3287

                     34                     35                     36
                      A                      A                      A
 Frequencies --    908.5806               914.6553               942.4408
 Red. masses --      2.3987                 1.4140                 1.1922
 Frc consts  --      1.1667                 0.6970                 0.6239
 IR Inten    --      1.6968                 0.2612                 0.6263

                     37                     38                     39
                      A                      A                      A
 Frequencies --    958.7715               968.4201               980.1007
 Red. masses --      1.2556                 2.5712                 1.4946
 Frc consts  --      0.6800                 1.4207                 0.8459
 IR Inten    --      0.8297                11.3879                 0.7758

                     40                     41                     42
                      A                      A                      A
 Frequencies --    993.0813              1038.8474              1080.4906
 Red. masses --      2.7019                 2.2178                 2.2651
 Frc consts  --      1.5700                 1.4102                 1.5580
 IR Inten    --     20.1189                 8.7055                17.9292

                     43                     44                     45
                      A                      A                      A
 Frequencies --   1092.4092              1101.7022              1122.2318
 Red. masses --      2.0069                 1.9919                 2.1537
 Frc consts  --      1.4111                 1.4244                 1.5981
 IR Inten    --      4.4647                33.6915                 9.6901

                     46                     47                     48
                      A                      A                      A
 Frequencies --   1137.4673              1145.8878              1193.3089
 Red. masses --      2.0136                 2.2239                 1.6124
 Frc consts  --      1.5350                 1.7205                 1.3528
 IR Inten    --     49.9985                15.2393                 2.0605

                     49                     50                     51
                      A                      A                      A
 Frequencies --   1207.0687              1211.4872              1232.3983
 Red. masses --      1.3274                 1.5074                 1.8846
 Frc consts  --      1.1395                 1.3035                 1.6865
 IR Inten    --      8.0925                 1.8302                41.7048

                     52                     53                     54
                      A                      A                      A
 Frequencies --   1248.1751              1278.9591              1299.9482
 Red. masses --      1.8948                 2.1888                 1.7304
 Frc consts  --      1.7393                 2.1094                 1.7229
 IR Inten    --     73.9327                83.5676                19.0273

                     55                     56                     57
                      A                      A                      A
 Frequencies --   1327.4662              1345.0392              1352.5237
 Red. masses --      1.3149                 2.3426                 1.4855
 Frc consts  --      1.3652                 2.4970                 1.6011
 IR Inten    --      6.0595                11.0943                 1.4885

                     58                     59                     60
                      A                      A                      A
 Frequencies --   1363.9709              1372.9849              1395.5863
 Red. masses --      1.7611                 1.6155                 1.7266
 Frc consts  --      1.9304                 1.7943                 1.9814
 IR Inten    --     41.0524                 4.6985                16.4656

                     61                     62                     63
                      A                      A                      A
 Frequencies --   1398.9678              1413.1265              1423.5372
 Red. masses --      1.5016                 2.9198                 1.2475
 Frc consts  --      1.7315                 3.4353                 1.4895
 IR Inten    --     25.1162                39.2192                 4.8133

                     64                     65                     66
                      A                      A                      A
 Frequencies --   1445.3673              1494.8810              1511.1676
 Red. masses --      1.2369                 2.0688                 1.1889
 Frc consts  --      1.5224                 2.7239                 1.5997
 IR Inten    --      2.8631                81.9983                25.1660

                     67                     68                     69
                      A                      A                      A
 Frequencies --   1519.3166              1520.4251              1523.1927
 Red. masses --      1.1023                 1.0625                 1.6215
 Frc consts  --      1.4992                 1.4472                 2.2165
 IR Inten    --      2.9530                 1.8199                 6.6176

                     70                     71                     72
                      A                      A                      A
 Frequencies --   1526.9163              1538.5752              1544.2795
 Red. masses --      1.4719                 1.0775                 1.0597
 Frc consts  --      2.0219                 1.5028                 1.4889
 IR Inten    --      7.0912                 6.7702                 5.3124

                     73                     74                     75
                      A                      A                      A
 Frequencies --   1621.2993              1652.7759              1660.7283
 Red. masses --      1.3482                 5.6496                 6.8061
 Frc consts  --      2.0880                 9.0927                11.0598
 IR Inten    --    153.0758                 8.3144                 1.5914

                     76                     77                     78
                      A                      A                      A
 Frequencies --   1809.6891              3025.5377              3028.8240
 Red. masses --      9.7475                 1.0750                 1.0825
 Frc consts  --     18.8084                 5.7976                 5.8507
 IR Inten    --    314.4232                10.6248                19.8435

                     79                     80                     81
                      A                      A                      A
 Frequencies --   3029.2145              3045.6889              3050.3556
 Red. masses --      1.0768                 1.0361                 1.0364
 Frc consts  --      5.8217                 5.6627                 5.6815
 IR Inten    --     38.3698                25.0737                35.9975

                     82                     83                     84
                      A                      A                      A
 Frequencies --   3063.0703              3083.4264              3108.0581
 Red. masses --      1.0693                 1.0926                 1.1024
 Frc consts  --      5.9111                 6.1202                 6.2743
 IR Inten    --     16.3817                31.8353                 2.5455

                     85                     86                     87
                      A                      A                      A
 Frequencies --   3114.8658              3122.0709              3139.3363
 Red. masses --      1.1012                 1.1031                 1.0980
 Frc consts  --      6.2953                 6.3348                 6.3760
 IR Inten    --     68.3986                32.1578                13.5311

                     88                     89                     90
                      A                      A                      A
 Frequencies --   3140.6145              3176.6242              3199.1300
 Red. masses --      1.1003                 1.0876                 1.0907
 Frc consts  --      6.3944                 6.4660                 6.5768
 IR Inten    --     22.4578                 8.7049                19.4771

                     91                     92                     93
                      A                      A                      A
 Frequencies --   3218.0633              3600.5043              3731.7474
 Red. masses --      1.0933                 1.0437                 1.1064
 Frc consts  --      6.6708                 7.9714                 9.0779
 IR Inten    --     21.1754                35.6864                86.0622

 - Thermochemistry -
 -------------------
 Temperature   298.150 Kelvin.  Pressure   1.00000 Atm.
 Atom     1 has atomic number  6 and mass  12.00000

 Molecular mass:   219.12593 amu.
 Principal axes and moments of inertia in atomic units:
                           1         2         3
     Eigenvalues --  2366.360334276.087936265.19479
           X            0.99886   0.04782  -0.00131
           Y           -0.04782   0.99886  -0.00026
           Z            0.00129   0.00033   1.00000
 This molecule is an asymmetric top.
 Rotational symmetry number  1.
 Warning -- assumption of classical behavior for rotation
           may cause significant error
 Rotational temperatures (Kelvin)      0.03660     0.02026     0.01382
 Rotational constants (GHZ):           0.76267     0.42205     0.28806
 Zero-point vibrational energy     741314.1 (Joules/Mol)
                                  177.17832 (Kcal/Mol)
 Warning -- explicit consideration of  24 degrees of freedom as
           vibrations may cause significant error
 Vibrational temperatures:     42.59    61.92    92.36   135.88   164.76
          (Kelvin)            235.77   295.62   299.48   354.53   368.78
                              390.70   412.37   427.21   452.87   513.91
                              557.96   584.08   653.36   675.61   770.85
                              777.89   798.50   802.15   845.08   901.36
                              926.83   994.57  1045.62  1083.83  1135.27
                             1196.40  1236.46  1257.41  1307.24  1315.99
                             1355.96  1379.46  1393.34  1410.15  1428.82
                             1494.67  1554.59  1571.73  1585.10  1614.64
                             1636.56  1648.68  1716.91  1736.70  1743.06
                             1773.15  1795.85  1840.14  1870.34  1909.93
                             1935.21  1945.98  1962.45  1975.42  2007.94
                             2012.80  2033.17  2048.15  2079.56  2150.80
                             2174.23  2185.96  2187.55  2191.53  2196.89
                             2213.67  2221.87  2332.69  2377.98  2389.42
                             2603.74  4353.07  4357.80  4358.36  4382.07
                             4388.78  4407.07  4436.36  4471.80  4481.60
                             4491.96  4516.80  4518.64  4570.45  4602.83
                             4630.08  5180.32  5369.15

 Zero-point correction=                           0.282352 (Hartree/Particle)
 Thermal correction to Energy=                    0.297580
 Thermal correction to Enthalpy=                  0.298524
 Thermal correction to Gibbs Free Energy=         0.239619
 Sum of electronic and zero-point Energies=           -710.631632
 Sum of electronic and thermal Energies=              -710.616404
 Sum of electronic and thermal Enthalpies=            -710.615459
 Sum of electronic and thermal Free Energies=         -710.674365

                     E (Thermal)             CV                S
                      KCal/Mol        Cal/Mol-Kelvin    Cal/Mol-Kelvin
 Total                  186.734             59.168            123.977
 Electronic               0.000              0.000              0.000
 Translational            0.889              2.981             42.056
 Rotational               0.889              2.981             32.516
 Vibrational            184.957             53.206             49.404
 Vibration     1          0.593              1.984              5.856
 Vibration     2          0.595              1.980              5.114
 Vibration     3          0.597              1.971              4.324
 Vibration     4          0.603              1.953              3.566
 Vibration     5          0.607              1.937              3.191
 Vibration     6          0.623              1.887              2.505
 Vibration     7          0.640              1.832              2.084
 Vibration     8          0.641              1.828              2.060
 Vibration     9          0.661              1.769              1.756
 Vibration    10          0.666              1.752              1.687
 Vibration    11          0.675              1.726              1.586
 Vibration    12          0.684              1.699              1.494
 Vibration    13          0.691              1.679              1.434
 Vibration    14          0.702              1.645              1.337
 Vibration    15          0.732              1.560              1.134
 Vibration    16          0.756              1.496              1.009
 Vibration    17          0.771              1.457              0.941
 Vibration    18          0.813              1.352              0.783
 Vibration    19          0.827              1.318              0.739
 Vibration    20          0.891              1.171              0.574
 Vibration    21          0.896              1.160              0.564
 Vibration    22          0.910              1.129              0.534
 Vibration    23          0.913              1.123              0.529
 Vibration    24          0.944              1.059              0.472

 Optimization completed.
    -- Stationary point found.
 Normal termination of Gaussian 16 at Thu Dec 10 22:20:11 2020.

 ----------------------------------------------------------------------
 # B3LYP/6-311++G(d,p) empiricaldispersion=gd3bj scf=xqc pop=npa geom=c
 heck
 ----------------------------------------------------------------------

 --------------------------------------
 CID_66683598_JID_6290_Energie_neutraal
 --------------------------------------
 Structure from the checkpoint file:  "JID_6290.chk"
 Charge =  0 Multiplicity = 1

 SCF Done:  E(RB3LYP) =  -711.115157932     A.U. after   15 cycles
 Normal termination of Gaussian 16 at Thu Dec 10 22:25:47 2020.

 ----------------------------------------------------------------------
 # B3LYP/6-311++G(d,p) empiricaldispersion=gd3bj scf=xqc pop=npa geom=c
 heck
 ----------------------------------------------------------------------

 ------------------------------------
 CID_66683598_JID_6290_Energie_kation
 ------------------------------------
 Structure from the checkpoint file:  "JID_6290.chk"
 Charge =  1 Multiplicity = 2

 SCF Done:  E(UB3LYP) =  -710.820664072     A.U. after   25 cycles
 Normal termination of Gaussian 16 at Thu Dec 10 22:39:21 2020.
 Gaussian 16:  ES64L-G16RevA.03 25-Dec-2016

 ----------------------------------------------------------------------
 # B3LYP/6-311++G(d,p) empiricaldispersion=gd3bj scf=xqc pop=npa geom=c
 heck
 ----------------------------------------------------------------------

 -----------------------------------
 CID_66683598_JID_6290_Energie_anion
 -----------------------------------
 Structure from the checkpoint file:  "JID_6290.chk"
 Charge = -1 Multiplicity = 2

                         Standard orientation:
 ---------------------------------------------------------------------
 Center     Atomic      Atomic             Coordinates (Angstroms)
 Number     Number       Type             X           Y           Z
 ---------------------------------------------------------------------
      1          6           0       -1.502281   -2.302095    1.248522
      2          6           0       -1.785870   -1.696221   -0.139730
      3          6           0       -3.111959   -2.226208   -0.696834
      4          6           0       -1.708383   -0.177887   -0.086507
      5          6           0       -2.838448    0.640340   -0.083188
      6          6           0       -2.729992    2.031125   -0.009102
      7          6           0       -1.473195    2.620777    0.050000
      8          6           0       -0.310542    1.842325    0.047865
      9          6           0       -0.449564    0.449835   -0.009649
     10          8           0        0.641889   -0.394423   -0.016449
     11          6           0        1.914775    0.161561    0.331331
     12          6           0        2.139846    1.498557   -0.367517
     13          6           0        1.061948    2.480575    0.092163
     14          6           0        3.014643   -0.843807   -0.013690
     15          8           0        4.184196   -0.575037    0.224208
     16          7           0        2.589935   -1.996918   -0.585907
     17          1           0       -2.268580   -1.985647    1.965615
     18          1           0       -0.527376   -1.981654    1.625363
     19          1           0       -1.511659   -3.397759    1.202654
     20          1           0       -0.988730   -2.035299   -0.814951
     21          1           0       -3.947234   -2.018247   -0.018078
     22          1           0       -3.347495   -1.783849   -1.670735
     23          1           0       -3.057423   -3.313363   -0.819410
     24          1           0       -3.822657    0.188213   -0.141910
     25          1           0       -3.624447    2.646918   -0.008444
     26          1           0       -1.377168    3.703358    0.091014
     27          1           0        1.945729    0.309304    1.420510
     28          1           0        3.146769    1.852228   -0.134349
     29          1           0        2.079875    1.338176   -1.451043
     30          1           0        1.285558    2.813439    1.115841
     31          1           0        1.072012    3.381205   -0.532443
     32          1           0        1.606709   -2.155568   -0.745429
     33          1           0        3.272020   -2.700622   -0.826920
 ---------------------------------------------------------------------

 SCF Done:  E(UB3LYP) =  -711.103405579     A.U. after   33 cycles
 SCF Done:  E(UB3LYP) =  -711.103405579     a.u. after    1 cycles

 The electronic state is 2-A.
 Alpha  occ. eigenvalues --  -19.06461 -18.99779 -14.23742 -10.18419 -10.15059
 Alpha  occ. eigenvalues --  -10.13997 -10.09195 -10.08910 -10.08881 -10.08426
 Alpha  occ. eigenvalues --  -10.08238 -10.07957 -10.07673 -10.07619 -10.06224
 Alpha  occ. eigenvalues --  -10.05835  -0.98487  -0.94605  -0.81403  -0.76848
 Alpha  occ. eigenvalues --   -0.73160  -0.70004  -0.67538  -0.63696  -0.59623
 Alpha  occ. eigenvalues --   -0.58739  -0.55361  -0.53229  -0.50423  -0.47882
 Alpha  occ. eigenvalues --   -0.46684  -0.45594  -0.43804  -0.40838  -0.39362
 Alpha  occ. eigenvalues --   -0.37244  -0.36602  -0.35872  -0.34863  -0.34414
 Alpha  occ. eigenvalues --   -0.33124  -0.32063  -0.31817  -0.31193  -0.30029
 Alpha  occ. eigenvalues --   -0.29071  -0.28869  -0.28138  -0.26378  -0.26029
 Alpha  occ. eigenvalues --   -0.25302  -0.24392  -0.23892  -0.22982  -0.21870
 Alpha  occ. eigenvalues --   -0.18199  -0.16997  -0.15175  -0.13185   0.04224
 Alpha virt. eigenvalues --    0.05980   0.06695   0.07174   0.07780   0.08157
 Alpha virt. eigenvalues --    0.08442   0.09095   0.09512   0.09790   0.10185
 Alpha virt. eigenvalues --    0.10654   0.11125   0.11289   0.12068   0.12228

  Beta  occ. eigenvalues --  -19.06456 -18.99774 -14.23683 -10.18414 -10.15048
  Beta  occ. eigenvalues --  -10.13998 -10.09182 -10.08901 -10.08867 -10.08420
  Beta  occ. eigenvalues --  -10.08225 -10.07936 -10.07664 -10.07601 -10.06196
  Beta  occ. eigenvalues --  -10.05807  -0.98480  -0.94592  -0.81329  -0.76816
  Beta  occ. eigenvalues --   -0.73133  -0.69973  -0.67504  -0.63659  -0.59584
  Beta  occ. eigenvalues --   -0.58684  -0.55323  -0.53176  -0.50355  -0.47837
  Beta  occ. eigenvalues --   -0.46631  -0.45547  -0.43775  -0.40800  -0.39327
  Beta  occ. eigenvalues --   -0.37217  -0.36566  -0.35837  -0.34824  -0.34383
  Beta  occ. eigenvalues --   -0.33102  -0.32033  -0.31794  -0.31163  -0.29999
  Beta  occ. eigenvalues --   -0.29036  -0.28840  -0.28104  -0.26347  -0.25995
  Beta  occ. eigenvalues --   -0.25275  -0.24362  -0.23842  -0.22945  -0.21843
  Beta  occ. eigenvalues --   -0.18152  -0.16975  -0.15070  -0.13151
  Beta virt. eigenvalues --    0.06185   0.07022   0.07105   0.07559   0.08237
  Beta virt. eigenvalues --    0.08518   0.08710   0.09320   0.09746   0.10081
  Beta virt. eigenvalues --    0.10536   0.10851   0.11293   0.11543   0.12237

 Mulliken charges and spin densities:
               1          2
     1  C    0.761768  -1.415344
     2  C   -0.856584   1.093325
     3  C    0.140456  -0.696218
     4  C   -0.653611   0.981393
     5  C   -0.231153  -0.051921
     6  C    0.485151  -0.979632
     7  C   -0.271867  -0.084966
     8  C    0.535073  -0.182346
     9  C   -0.545889   0.167319
    10  O   -0.066946   0.027805
    11  C    1.107790  -0.904083
    12  C   -0.819279   0.385682
    13  C    1.772579  -1.971225
    14  C   -0.216371   0.213320
    15  O   -0.362218   0.009035
    16  N   -0.293984  -0.123896
    17  H   -0.001681   0.137012
    18  H    0.007861   0.140614
    19  H   -0.269412   0.416777
    20  H   -0.230833   0.394673
    21  H   -0.019862   0.142037
    22  H   -0.104766   0.240214
    23  H   -0.447299   0.623306
    24  H    0.150834  -0.013473
    25  H   -0.353889   0.514517
    26  H   -0.206582   0.345696
    27  H    0.058675   0.152476
    28  H    0.209806  -0.004228
    29  H    0.023348   0.146729
    30  H   -0.056576   0.231741
    31  H    0.038331   0.135380
    32  H    0.109726   0.204989
    33  H   -0.392592   0.723294
 Sum of Mulliken charges =  -1.00000   1.00000

 Dipole moment (field-independent basis, Debye):
    X=             -1.1378    Y=              5.3904    Z=              0.8775  Tot=              5.5787
 Quadrupole moment (field-independent basis, Debye-Ang):
   XX=           -166.9751   YY=           -161.0250   ZZ=           -125.6060
   XY=              7.3144   XZ=             -1.9053   YZ=             -6.5058

 Summary of Natural Population Analysis:

                                       Natural Population
                Natural  -----------------------------------------------
    Atom  No    Charge         Core      Valence    Rydberg      Total
 -----------------------------------------------------------------------
      C    1   -0.27874      0.99964     2.27259    0.00651     3.27874
      C    2   -0.12161      0.99958     2.11076    0.01127     3.12161
      C    3   -0.28427      0.99966     2.27783    0.00678     3.28427
      C    4   -0.02210      0.99947     2.01185    0.01078     3.02210
      C    5   -0.09576      0.99952     2.08799    0.00825     3.09576
      C    6   -0.10899      0.99956     2.09935    0.01008     3.10899
      C    7   -0.09282      0.99952     2.08403    0.00926     3.09282
      C    8   -0.04642      0.99947     2.03671    0.01024     3.04642
      C    9    0.16277      0.99928     1.82606    0.01190     2.83723
      O   10   -0.29225      0.99985     3.28237    0.01003     4.29225
      C   11    0.03529      0.99949     1.95215    0.01307     2.96471
      C   12   -0.19812      0.99961     2.19173    0.00678     3.19812
      C   13   -0.19303      0.99960     2.18576    0.00767     3.19303
      C   14    0.33094      0.99967     1.64543    0.02396     2.66906
      O   15   -0.32728      0.99988     3.32154    0.00586     4.32728
      N   16   -0.39259      0.99970     2.88495    0.00794     3.89259
      H   17    0.09415      0.00000     0.40487    0.00098     0.40585
      H   18    0.10355      0.00000     0.39507    0.00138     0.39645
      H   19    0.10026      0.00000     0.39847    0.00127     0.39974
      H   20    0.10305      0.00000     0.39364    0.00332     0.39695
      H   21    0.09373      0.00000     0.40519    0.00108     0.40627
      H   22    0.10125      0.00000     0.39764    0.00111     0.39875
      H   23    0.10372      0.00000     0.39517    0.00111     0.39628
      H   24    0.10208      0.00000     0.39680    0.00113     0.39792
      H   25    0.09922      0.00000     0.39982    0.00096     0.40078
      H   26    0.09831      0.00000     0.40059    0.00110     0.40169
      H   27    0.09588      0.00000     0.40276    0.00135     0.40412
      H   28    0.11379      0.00000     0.38515    0.00107     0.38621
      H   29    0.10105      0.00000     0.39769    0.00127     0.39895
      H   30    0.10308      0.00000     0.39527    0.00165     0.39692
      H   31    0.10442      0.00000     0.39429    0.00129     0.39558
      H   32    0.20778      0.00000     0.28782    0.00441     0.29222
      H   33    0.19967      0.00000     0.29595    0.00439     0.30033
 =======================================================================
   * Total *    0.00000     15.99351    42.81725    0.18924    59.00000

 Normal termination of Gaussian 16 at Thu Dec 10 22:57:27 2020.
