 Gaussian 16, Revision A.03,

 -----------------------------------------------------------
 # opt freq B3LYP/6-31G(d) empiricaldispersion=gd3bj scf=xqc
 -----------------------------------------------------------

 ------------------------------
 CID_79382515_JID_6806_neutraal
 ------------------------------
 Symbolic Z-matrix:
 Charge =  0 Multiplicity = 1

 SCF Done:  E(RB3LYP) =  -765.227660843     A.U. after   14 cycles
 SCF Done:  E(RB3LYP) =  -765.234861003     A.U. after   12 cycles
 SCF Done:  E(RB3LYP) =  -765.234309379     A.U. after   13 cycles
 SCF Done:  E(RB3LYP) =  -765.236584929     A.U. after   12 cycles
 SCF Done:  E(RB3LYP) =  -765.237850062     A.U. after   14 cycles
 SCF Done:  E(RB3LYP) =  -765.240316794     A.U. after   14 cycles
 SCF Done:  E(RB3LYP) =  -765.242342731     A.U. after   12 cycles
 SCF Done:  E(RB3LYP) =  -765.244278244     A.U. after   13 cycles
 SCF Done:  E(RB3LYP) =  -765.244990316     A.U. after   12 cycles
 SCF Done:  E(RB3LYP) =  -765.245365072     A.U. after   12 cycles
 SCF Done:  E(RB3LYP) =  -765.245830738     A.U. after    8 cycles
 SCF Done:  E(RB3LYP) =  -765.245830938     A.U. after    8 cycles
 SCF Done:  E(RB3LYP) =  -765.245831045     A.U. after    8 cycles
 SCF Done:  E(RB3LYP) =  -765.245831071     A.U. after    6 cycles
 Optimization completed.
    -- Stationary point found.
 Normal termination of Gaussian 16 at Fri Dec 11 00:50:08 2020.

 --------------------------------------------------------------------
 #N Geom=AllCheck Guess=TCheck SCRF=Check GenChk RB3LYP/6-31G(d) Freq
 --------------------------------------------------------------------

 Structure from the checkpoint file:  "JID_6806.chk"
 ------------------------------
 CID_79382515_JID_6806_neutraal
 ------------------------------
 Charge =  0 Multiplicity = 1

 SCF Done:  E(RB3LYP) =  -765.245831071     A.U. after    1 cycles

  Exact polarizability: 156.804  -1.290 133.786   3.557  -2.241 101.767
 Approx polarizability: 191.648  -1.624 205.854   4.521  -1.159 151.903

                      1                      2                      3
                      A                      A                      A
 Frequencies --     14.7124                24.0300                39.1305
 Red. masses --      3.1637                10.9656                 4.5493
 Frc consts  --      0.0004                 0.0037                 0.0041
 IR Inten    --      0.0569                 1.6200                 0.4467

                      4                      5                      6
                      A                      A                      A
 Frequencies --     65.7548                75.3813                98.6884
 Red. masses --      3.3500                 3.7955                 4.1668
 Frc consts  --      0.0085                 0.0127                 0.0239
 IR Inten    --      0.6374                 1.3062                 2.7587

                      7                      8                      9
                      A                      A                      A
 Frequencies --    129.5935               144.5140               177.7483
 Red. masses --      4.1139                 3.8319                 2.9603
 Frc consts  --      0.0407                 0.0472                 0.0551
 IR Inten    --      0.6404                 2.3217                 1.9712

                     10                     11                     12
                      A                      A                      A
 Frequencies --    192.2398               224.7293               249.5423
 Red. masses --      2.9935                 2.8950                 1.3422
 Frc consts  --      0.0652                 0.0861                 0.0492
 IR Inten    --      1.3073                 4.3272                 1.2736

                     13                     14                     15
                      A                      A                      A
 Frequencies --    271.2142               287.1688               307.6887
 Red. masses --      2.5547                 2.7082                 4.5914
 Frc consts  --      0.1107                 0.1316                 0.2561
 IR Inten    --      1.5287                 0.9605                 0.6905

                     16                     17                     18
                      A                      A                      A
 Frequencies --    359.3949               384.5364               399.0681
 Red. masses --      2.8910                 3.7196                 2.7296
 Frc consts  --      0.2200                 0.3241                 0.2561
 IR Inten    --      1.9767                 1.5751                 0.9929

                     19                     20                     21
                      A                      A                      A
 Frequencies --    456.9575               490.9778               532.9295
 Red. masses --      3.3876                 3.3172                 3.2522
 Frc consts  --      0.4168                 0.4711                 0.5442
 IR Inten    --     21.6362                29.6043                 5.7722

                     22                     23                     24
                      A                      A                      A
 Frequencies --    596.6869               613.5191               648.1117
 Red. masses --      3.0498                 1.5244                 2.6137
 Frc consts  --      0.6398                 0.3381                 0.6468
 IR Inten    --     29.0346                43.5449                45.9930

                     25                     26                     27
                      A                      A                      A
 Frequencies --    665.9953               728.3276               746.8648
 Red. masses --      3.5978                 1.9712                 3.0790
 Frc consts  --      0.9402                 0.6161                 1.0119
 IR Inten    --     25.3418                36.0779                45.1019

                     28                     29                     30
                      A                      A                      A
 Frequencies --    767.9024               790.0999               798.5348
 Red. masses --      2.9006                 1.1179                 3.4004
 Frc consts  --      1.0077                 0.4112                 1.2775
 IR Inten    --      1.0974                10.1095                46.6193

                     31                     32                     33
                      A                      A                      A
 Frequencies --    839.1363               844.9623               862.1418
 Red. masses --      1.9769                 1.4777                 2.2877
 Frc consts  --      0.8201                 0.6216                 1.0018
 IR Inten    --     12.5463                 8.3707                 5.1917

                     34                     35                     36
                      A                      A                      A
 Frequencies --    898.7660               931.6773               962.3781
 Red. masses --      1.6849                 1.7149                 2.1806
 Frc consts  --      0.8019                 0.8770                 1.1899
 IR Inten    --      2.8525                 4.0211                 8.7378

                     37                     38                     39
                      A                      A                      A
 Frequencies --    979.5140               996.2438              1005.0823
 Red. masses --      2.1957                 2.8324                 2.1119
 Frc consts  --      1.2412                 1.6563                 1.2570
 IR Inten    --      7.0086                 1.2990                 2.5264

                     40                     41                     42
                      A                      A                      A
 Frequencies --   1032.4649              1035.9966              1067.5130
 Red. masses --      2.1804                 1.4683                 1.3809
 Frc consts  --      1.3694                 0.9285                 0.9272
 IR Inten    --      7.2256                 7.7284                 4.8564

                     43                     44                     45
                      A                      A                      A
 Frequencies --   1088.4192              1099.8502              1112.8982
 Red. masses --      1.3904                 2.3199                 2.9966
 Frc consts  --      0.9705                 1.6535                 2.1867
 IR Inten    --      2.5656                86.7110                 3.9731

                     46                     47                     48
                      A                      A                      A
 Frequencies --   1136.9352              1147.0409              1155.4813
 Red. masses --      2.4281                 1.1366                 2.6388
 Frc consts  --      1.8492                 0.8811                 2.0758
 IR Inten    --      7.6955                 5.4412                11.3223

                     49                     50                     51
                      A                      A                      A
 Frequencies --   1177.2237              1189.1622              1198.9086
 Red. masses --      2.3595                 2.1765                 1.6753
 Frc consts  --      1.9266                 1.8133                 1.4187
 IR Inten    --     45.3595               218.6076                 5.1415

                     52                     53                     54
                      A                      A                      A
 Frequencies --   1211.3713              1218.2855              1225.6764
 Red. masses --      1.4121                 2.2455                 1.7274
 Frc consts  --      1.2208                 1.9636                 1.5290
 IR Inten    --      0.9641                 7.0816                20.4091

                     55                     56                     57
                      A                      A                      A
 Frequencies --   1237.3255              1268.4567              1291.7644
 Red. masses --      1.7594                 1.7614                 1.2587
 Frc consts  --      1.5870                 1.6698                 1.2375
 IR Inten    --      0.4115                29.2636                51.5595

                     58                     59                     60
                      A                      A                      A
 Frequencies --   1304.8038              1312.0340              1355.2773
 Red. masses --      1.3464                 1.3254                 1.2753
 Frc consts  --      1.3506                 1.3443                 1.3801
 IR Inten    --     11.2097                 1.9429                 9.1134

                     61                     62                     63
                      A                      A                      A
 Frequencies --   1362.8978              1376.4640              1387.0765
 Red. masses --      1.4108                 1.5127                 1.5584
 Frc consts  --      1.5440                 1.6886                 1.7666
 IR Inten    --     21.9489               104.7876                 9.9745

                     64                     65                     66
                      A                      A                      A
 Frequencies --   1392.3046              1434.0270              1437.5086
 Red. masses --      1.4086                 1.4910                 1.4183
 Frc consts  --      1.6088                 1.8065                 1.7268
 IR Inten    --    115.0480                47.6374                28.4409

                     67                     68                     69
                      A                      A                      A
 Frequencies --   1443.2193              1445.7442              1491.2197
 Red. masses --      1.9094                 2.5828                 1.4718
 Frc consts  --      2.3432                 3.1808                 1.9284
 IR Inten    --     32.5795               350.9161                17.6331

                     70                     71                     72
                      A                      A                      A
 Frequencies --   1497.0673              1521.2048              1523.2188
 Red. masses --      1.1245                 1.1056                 1.0928
 Frc consts  --      1.4849                 1.5073                 1.4939
 IR Inten    --      4.2809                 9.5211                 9.1977

                     73                     74                     75
                      A                      A                      A
 Frequencies --   1532.3572              1538.1443              1549.3810
 Red. masses --      1.1140                 1.2679                 1.0929
 Frc consts  --      1.5412                 1.7674                 1.5457
 IR Inten    --      0.4594                 1.7775                 1.0437

                     76                     77                     78
                      A                      A                      A
 Frequencies --   1554.6186              1765.6945              1840.7300
 Red. masses --      1.1065                 7.5499                 9.8286
 Frc consts  --      1.5756                13.8683                19.6210
 IR Inten    --      5.1808               382.8962               238.7167

                     79                     80                     81
                      A                      A                      A
 Frequencies --   3007.8900              3030.9367              3054.0822
 Red. masses --      1.0717                 1.0733                 1.0619
 Frc consts  --      5.7130                 5.8091                 5.8356
 IR Inten    --     30.0587                38.9886                 5.2891

                     82                     83                     84
                      A                      A                      A
 Frequencies --   3057.1129              3071.7585              3080.2049
 Red. masses --      1.0580                 1.0682                 1.0842
 Frc consts  --      5.8257                 5.9384                 6.0605
 IR Inten    --     13.2981                14.1504                26.6874

                     85                     86                     87
                      A                      A                      A
 Frequencies --   3091.9235              3122.7810              3130.4986
 Red. masses --      1.0882                 1.1024                 1.0926
 Frc consts  --      6.1291                 6.3339                 6.3089
 IR Inten    --     23.5951                26.7702                18.4866

                     88                     89                     90
                      A                      A                      A
 Frequencies --   3142.9371              3145.8809              3150.8774
 Red. masses --      1.1009                 1.0518                 1.0581
 Frc consts  --      6.4074                 6.1328                 6.1891
 IR Inten    --     22.5356                15.8841                14.3402

                     91                     92                     93
                      A                      A                      A
 Frequencies --   3156.4887              3158.6972              3221.6877
 Red. masses --      1.0991                 1.0896                 1.1193
 Frc consts  --      6.4519                 6.4054                 6.8447
 IR Inten    --     14.6264                10.5971                 0.6014

                     94                     95                     96
                      A                      A                      A
 Frequencies --   3235.4510              3567.5006              3683.9994
 Red. masses --      1.1159                 1.0747                 1.0640
 Frc consts  --      6.8824                 8.0587                 8.5078
 IR Inten    --     24.0377                21.9332                53.6855

 - Thermochemistry -
 -------------------
 Temperature   298.150 Kelvin.  Pressure   1.00000 Atm.
 Atom     1 has atomic number  6 and mass  12.00000

 Molecular mass:   226.13174 amu.
 Principal axes and moments of inertia in atomic units:
                           1         2         3
     Eigenvalues --  2116.285536425.079587678.53576
           X            0.99969  -0.02482  -0.00290
           Y            0.02479   0.99964  -0.00996
           Z            0.00315   0.00988   0.99995
 This molecule is an asymmetric top.
 Rotational symmetry number  1.
 Warning -- assumption of classical behavior for rotation
           may cause significant error
 Rotational temperatures (Kelvin)      0.04093     0.01348     0.01128
 Rotational constants (GHZ):           0.85279     0.28089     0.23504
 Zero-point vibrational energy     769632.0 (Joules/Mol)
                                  183.94646 (Kcal/Mol)
 Warning -- explicit consideration of  23 degrees of freedom as
           vibrations may cause significant error
 Vibrational temperatures:     21.17    34.57    56.30    94.61   108.46
          (Kelvin)            141.99   186.46   207.92   255.74   276.59
                              323.34   359.04   390.22   413.17   442.70
                              517.09   553.26   574.17   657.46   706.41
                              766.77   858.50   882.72   932.49   958.22
                             1047.90  1074.57  1104.84  1136.78  1148.91
                             1207.33  1215.71  1240.43  1293.12  1340.48
                             1384.65  1409.30  1433.37  1446.09  1485.49
                             1490.57  1535.91  1565.99  1582.44  1601.21
                             1635.80  1650.34  1662.48  1693.76  1710.94
                             1724.96  1742.89  1752.84  1763.48  1780.24
                             1825.03  1858.56  1877.32  1887.72  1949.94
                             1960.91  1980.42  1995.69  2003.22  2063.25
                             2068.25  2076.47  2080.10  2145.53  2153.95
                             2188.67  2191.57  2204.72  2213.05  2229.21
                             2236.75  2540.44  2648.40  4327.68  4360.84
                             4394.14  4398.50  4419.58  4431.73  4448.59
                             4492.99  4504.09  4521.99  4526.22  4533.41
                             4541.48  4544.66  4635.29  4655.09  5132.84
                             5300.45

 Zero-point correction=                           0.293137 (Hartree/Particle)
 Thermal correction to Energy=                    0.309415
 Thermal correction to Enthalpy=                  0.310359
 Thermal correction to Gibbs Free Energy=         0.246481
 Sum of electronic and zero-point Energies=           -764.952694
 Sum of electronic and thermal Energies=              -764.936416
 Sum of electronic and thermal Enthalpies=            -764.935472
 Sum of electronic and thermal Free Energies=         -764.999350

                     E (Thermal)             CV                S
                      KCal/Mol        Cal/Mol-Kelvin    Cal/Mol-Kelvin
 Total                  194.161             60.104            134.442
 Electronic               0.000              0.000              0.000
 Translational            0.889              2.981             42.150
 Rotational               0.889              2.981             33.012
 Vibrational            192.383             54.142             59.279
 Vibration     1          0.593              1.986              7.244
 Vibration     2          0.593              1.985              6.270
 Vibration     3          0.594              1.981              5.303
 Vibration     4          0.597              1.971              4.277
 Vibration     5          0.599              1.965              4.008
 Vibration     6          0.604              1.950              3.480
 Vibration     7          0.612              1.924              2.952
 Vibration     8          0.616              1.909              2.743
 Vibration     9          0.628              1.870              2.352
 Vibration    10          0.634              1.851              2.206
 Vibration    11          0.649              1.803              1.921
 Vibration    12          0.662              1.764              1.734
 Vibration    13          0.675              1.726              1.588
 Vibration    14          0.684              1.698              1.491
 Vibration    15          0.698              1.659              1.375
 Vibration    16          0.734              1.556              1.125
 Vibration    17          0.753              1.503              1.021
 Vibration    18          0.765              1.472              0.966
 Vibration    19          0.815              1.346              0.775
 Vibration    20          0.847              1.270              0.681
 Vibration    21          0.888              1.177              0.581
 Vibration    22          0.955              1.039              0.455
 Vibration    23          0.973              1.003              0.427

 Optimization completed.
    -- Stationary point found.
 Normal termination of Gaussian 16 at Fri Dec 11 01:00:59 2020.

 ----------------------------------------------------------------------
 # B3LYP/6-311++G(d,p) empiricaldispersion=gd3bj scf=xqc pop=npa geom=c
 heck
 ----------------------------------------------------------------------

 --------------------------------------
 CID_79382515_JID_6806_Energie_neutraal
 --------------------------------------
 Structure from the checkpoint file:  "JID_6806.chk"
 Charge =  0 Multiplicity = 1

 SCF Done:  E(RB3LYP) =  -765.476722953     A.U. after   15 cycles
 Normal termination of Gaussian 16 at Fri Dec 11 01:05:35 2020.

 ----------------------------------------------------------------------
 # B3LYP/6-311++G(d,p) empiricaldispersion=gd3bj scf=xqc pop=npa geom=c
 heck
 ----------------------------------------------------------------------

 ------------------------------------
 CID_79382515_JID_6806_Energie_kation
 ------------------------------------
 Structure from the checkpoint file:  "JID_6806.chk"
 Charge =  1 Multiplicity = 2

 SCF Done:  E(UB3LYP) =  -765.165489634     A.U. after   33 cycles
 SCF Done:  E(UB3LYP) =  -765.165489634     a.u. after    1 cycles
 Normal termination of Gaussian 16 at Fri Dec 11 01:19:19 2020.
 Gaussian 16:  ES64L-G16RevA.03 25-Dec-2016

 ----------------------------------------------------------------------
 # B3LYP/6-311++G(d,p) empiricaldispersion=gd3bj scf=xqc pop=npa geom=c
 heck
 ----------------------------------------------------------------------

 -----------------------------------
 CID_79382515_JID_6806_Energie_anion
 -----------------------------------
 Structure from the checkpoint file:  "JID_6806.chk"
 Charge = -1 Multiplicity = 2

                         Standard orientation:
 ---------------------------------------------------------------------
 Center     Atomic      Atomic             Coordinates (Angstroms)
 Number     Number       Type             X           Y           Z
 ---------------------------------------------------------------------
      1          6           0       -0.703332   -0.292223    1.978523
      2          6           0       -0.944839   -0.123646    0.478913
      3          6           0       -2.441611    0.061468    0.154463
      4          6           0       -2.471746    1.047752   -1.031992
      5          6           0       -1.326240    1.993107   -0.680380
      6          7           0       -0.327670    1.088516   -0.104826
      7          6           0        0.909777    1.620341    0.180320
      8          8           0        1.134302    2.824446    0.066753
      9          7           0        1.905547    0.735674    0.594449
     10          6           0        2.130427   -0.564003   -0.051056
     11          6           0        3.528537   -1.043980    0.253451
     12          6           0        4.256940   -1.909199   -0.740401
     13          6           0        4.692636   -0.479711   -0.529002
     14          6           0       -3.152108   -1.239345   -0.129640
     15          8           0       -2.635720   -2.327946   -0.260268
     16          8           0       -4.489360   -1.049725   -0.247554
     17          1           0       -1.226618   -1.187722    2.331647
     18          1           0       -1.084093    0.576706    2.527292
     19          1           0        0.359463   -0.393886    2.207395
     20          1           0       -0.594909   -1.017358   -0.046827
     21          1           0       -2.948226    0.536302    1.004008
     22          1           0       -3.435977    1.550010   -1.134883
     23          1           0       -2.253431    0.518737   -1.966802
     24          1           0       -1.640519    2.755234    0.046624
     25          1           0       -0.907001    2.517688   -1.541457
     26          1           0        2.765782    1.264644    0.692329
     27          1           0        1.409103   -1.299064    0.319705
     28          1           0        1.990112   -0.496154   -1.140840
     29          1           0        3.708873   -1.252143    1.306408
     30          1           0        4.890508   -2.704837   -0.359894
     31          1           0        3.748907   -2.152954   -1.669761
     32          1           0        4.471950    0.238323   -1.315163
     33          1           0        5.626934   -0.295603   -0.006969
     34          1           0       -4.870427   -1.924822   -0.450817
 ---------------------------------------------------------------------

 SCF Done:  E(UB3LYP) =  -765.466447752     A.U. after   33 cycles
 SCF Done:  E(UB3LYP) =  -765.466447752     a.u. after    1 cycles

 The electronic state is 2-A.
 Alpha  occ. eigenvalues --  -19.07580 -19.02659 -18.99063 -14.24637 -14.23673
 Alpha  occ. eigenvalues --  -10.21655 -10.20018 -10.12943 -10.12427 -10.11626
 Alpha  occ. eigenvalues --  -10.10832 -10.10172 -10.09488 -10.09332 -10.09306
 Alpha  occ. eigenvalues --  -10.07633  -1.01852  -0.95720  -0.93044  -0.85793
 Alpha  occ. eigenvalues --   -0.83065  -0.77839  -0.72412  -0.68547  -0.63206
 Alpha  occ. eigenvalues --   -0.61269  -0.56561  -0.54283  -0.52362  -0.49982
 Alpha  occ. eigenvalues --   -0.49404  -0.46753  -0.44536  -0.43086  -0.41647
 Alpha  occ. eigenvalues --   -0.39852  -0.39611  -0.38680  -0.37050  -0.36488
 Alpha  occ. eigenvalues --   -0.35745  -0.34961  -0.34418  -0.32659  -0.32325
 Alpha  occ. eigenvalues --   -0.30961  -0.30529  -0.29542  -0.28835  -0.28155
 Alpha  occ. eigenvalues --   -0.27795  -0.27651  -0.25931  -0.25489  -0.23599
 Alpha  occ. eigenvalues --   -0.22330  -0.21444  -0.19576  -0.18506  -0.16235
 Alpha  occ. eigenvalues --   -0.15291   0.03916
 Alpha virt. eigenvalues --    0.05153   0.06793   0.06856   0.07344   0.07972
 Alpha virt. eigenvalues --    0.08093   0.08485   0.10065   0.10250   0.10565
 Alpha virt. eigenvalues --    0.10859   0.11058   0.11647   0.11958   0.12108

  Beta  occ. eigenvalues --  -19.07513 -19.02631 -18.99060 -14.24636 -14.23671
  Beta  occ. eigenvalues --  -10.21633 -10.20016 -10.12939 -10.12419 -10.11617
  Beta  occ. eigenvalues --  -10.10813 -10.10160 -10.09463 -10.09313 -10.09287
  Beta  occ. eigenvalues --  -10.07619  -1.01757  -0.95714  -0.92960  -0.85783
  Beta  occ. eigenvalues --   -0.83057  -0.77817  -0.72376  -0.68526  -0.63178
  Beta  occ. eigenvalues --   -0.61219  -0.56508  -0.54227  -0.52302  -0.49939
  Beta  occ. eigenvalues --   -0.49304  -0.46731  -0.44504  -0.43050  -0.41617
  Beta  occ. eigenvalues --   -0.39805  -0.39574  -0.38645  -0.36979  -0.36463
  Beta  occ. eigenvalues --   -0.35705  -0.34935  -0.34380  -0.32647  -0.32291
  Beta  occ. eigenvalues --   -0.30924  -0.30499  -0.29515  -0.28807  -0.28117
  Beta  occ. eigenvalues --   -0.27776  -0.27620  -0.25905  -0.25457  -0.23506
  Beta  occ. eigenvalues --   -0.22305  -0.21421  -0.19524  -0.18495  -0.16229
  Beta  occ. eigenvalues --   -0.15282
  Beta virt. eigenvalues --    0.06003   0.06515   0.07074   0.07576   0.07964
  Beta virt. eigenvalues --    0.08251   0.08378   0.08736   0.10397   0.10541
  Beta virt. eigenvalues --    0.10755   0.10878   0.11265   0.11733   0.12079

 Mulliken charges and spin densities:
               1          2
     1  C    0.280218  -0.939575
     2  C   -0.633210   0.282035
     3  C    0.421992  -0.025651
     4  C   -0.091947  -0.420115
     5  C    0.011826  -0.142514
     6  N    0.069723   0.047221
     7  C    0.226954  -0.072712
     8  O   -0.359834   0.004267
     9  N   -0.159969   0.010010
    10  C    1.044683  -1.809562
    11  C   -2.295516   2.612099
    12  C    0.771350  -1.187872
    13  C    0.537963  -0.956017
    14  C    0.457746  -0.850526
    15  O   -0.261712   0.005208
    16  O   -0.209990   0.072533
    17  H   -0.049862   0.212177
    18  H    0.079350   0.097441
    19  H    0.265249  -0.103695
    20  H    0.293338  -0.014802
    21  H   -0.211651   0.470294
    22  H   -0.122343   0.323567
    23  H   -0.036853   0.214403
    24  H    0.105063   0.071112
    25  H    0.110941   0.083829
    26  H    0.323505  -0.000573
    27  H    0.062686   0.066184
    28  H    0.040777   0.121262
    29  H   -0.548838   0.793641
    30  H   -0.324085   0.484312
    31  H   -0.058910   0.192064
    32  H    0.032080   0.125766
    33  H   -0.180932   0.335870
    34  H   -0.589794   0.898319
 Sum of Mulliken charges =  -1.00000   1.00000

 Dipole moment (field-independent basis, Debye):
    X=              2.1819    Y=              3.2253    Z=             -0.2676  Tot=              3.9032
 Quadrupole moment (field-independent basis, Debye-Ang):
   XX=           -214.0525   YY=           -152.2337   ZZ=           -122.5867
   XY=             -6.2138   XZ=             -6.6873   YZ=             -0.6570

 Summary of Natural Population Analysis:

                                       Natural Population
                Natural  -----------------------------------------------
    Atom  No    Charge         Core      Valence    Rydberg      Total
 -----------------------------------------------------------------------
      C    1   -0.29288      0.99964     2.28838    0.00487     3.29288
      C    2   -0.00347      0.99958     1.99127    0.01262     3.00347
      C    3   -0.15763      0.99952     2.14547    0.01264     3.15763
      C    4   -0.18652      0.99961     2.17769    0.00922     3.18652
      C    5   -0.07772      0.99963     2.06886    0.00923     3.07772
      N    6   -0.27112      0.99964     2.76249    0.00899     3.77112
      C    7    0.41452      0.99967     1.56328    0.02253     2.58548
      O    8   -0.34022      0.99988     3.33538    0.00496     4.34022
      N    9   -0.33677      0.99968     2.82831    0.00877     3.83677
      C   10   -0.08754      0.99958     2.07846    0.00949     3.08754
      C   11   -0.12248      0.99959     2.11134    0.01154     3.12248
      C   12   -0.19420      0.99962     2.18502    0.00957     3.19420
      C   13   -0.20228      0.99962     2.19440    0.00825     3.20228
      C   14    0.41453      0.99967     1.56029    0.02550     2.58547
      O   15   -0.30437      0.99987     3.29839    0.00611     4.30437
      O   16   -0.34305      0.99988     3.33633    0.00684     4.34305
      H   17    0.10527      0.00000     0.39381    0.00092     0.39473
      H   18    0.09860      0.00000     0.40032    0.00108     0.40140
      H   19    0.10921      0.00000     0.38974    0.00104     0.39079
      H   20    0.10547      0.00000     0.39226    0.00227     0.39453
      H   21    0.11467      0.00000     0.38373    0.00161     0.38533
      H   22    0.11043      0.00000     0.38864    0.00093     0.38957
      H   23    0.10079      0.00000     0.39795    0.00126     0.39921
      H   24    0.09332      0.00000     0.40541    0.00127     0.40668
      H   25    0.10496      0.00000     0.39393    0.00111     0.39504
      H   26    0.19176      0.00000     0.30552    0.00272     0.30824
      H   27    0.09793      0.00000     0.40051    0.00156     0.40207
      H   28    0.08922      0.00000     0.40912    0.00167     0.41078
      H   29    0.10758      0.00000     0.39107    0.00135     0.39242
      H   30    0.10655      0.00000     0.39192    0.00153     0.39345
      H   31    0.10173      0.00000     0.39738    0.00089     0.39827
      H   32    0.10154      0.00000     0.39749    0.00097     0.39846
      H   33    0.10530      0.00000     0.39355    0.00116     0.39470
      H   34    0.24686      0.00000     0.22355    0.02959     0.25314
 =======================================================================
   * Total *   -0.00000     15.99468    44.78129    0.22403    61.00000

 Normal termination of Gaussian 16 at Fri Dec 11 01:32:39 2020.
