 Gaussian 16, Revision A.03,

 -----------------------------------------------------------
 # opt freq B3LYP/6-31G(d) empiricaldispersion=gd3bj scf=xqc
 -----------------------------------------------------------

 -------------------------------
 CID_122010042_JID_9706_neutraal
 -------------------------------
 Symbolic Z-matrix:
 Charge =  0 Multiplicity = 1

 SCF Done:  E(RB3LYP) =  -896.841354179     A.U. after   15 cycles
 SCF Done:  E(RB3LYP) =  -896.846809128     A.U. after   12 cycles
 SCF Done:  E(RB3LYP) =  -896.846585056     A.U. after   12 cycles
 SCF Done:  E(RB3LYP) =  -896.847861325     A.U. after   12 cycles
 SCF Done:  E(RB3LYP) =  -896.848413233     A.U. after   13 cycles
 SCF Done:  E(RB3LYP) =  -896.849150780     A.U. after   13 cycles
 SCF Done:  E(RB3LYP) =  -896.849990527     A.U. after   13 cycles
 SCF Done:  E(RB3LYP) =  -896.849731684     A.U. after   13 cycles
 SCF Done:  E(RB3LYP) =  -896.850558361     A.U. after   13 cycles
 SCF Done:  E(RB3LYP) =  -896.850662137     A.U. after   12 cycles
 SCF Done:  E(RB3LYP) =  -896.850799000     A.U. after    9 cycles
 SCF Done:  E(RB3LYP) =  -896.850799100     A.U. after    8 cycles
 SCF Done:  E(RB3LYP) =  -896.850799152     A.U. after    8 cycles
 SCF Done:  E(RB3LYP) =  -896.850799244     A.U. after    7 cycles
 SCF Done:  E(RB3LYP) =  -896.850799267     A.U. after    7 cycles
 Optimization completed.
    -- Stationary point found.
 Normal termination of Gaussian 16 at Sun Dec 13 16:37:52 2020.

 --------------------------------------------------------------------
 #N Geom=AllCheck Guess=TCheck SCRF=Check GenChk RB3LYP/6-31G(d) Freq
 --------------------------------------------------------------------

 Structure from the checkpoint file:  "JID_9706.chk"
 -------------------------------
 CID_122010042_JID_9706_neutraal
 -------------------------------
 Charge =  0 Multiplicity = 1

 SCF Done:  E(RB3LYP) =  -896.850799267     A.U. after    1 cycles

  Exact polarizability: 171.667 -14.467 147.326   0.201  -8.105 131.132
 Approx polarizability: 213.546 -26.256 227.677   5.174 -25.683 220.019

                      1                      2                      3
                      A                      A                      A
 Frequencies --     24.2207                30.6580                39.9835
 Red. masses --      7.0311                 8.1560                 6.5676
 Frc consts  --      0.0024                 0.0045                 0.0062
 IR Inten    --      3.2991                 0.1665                 2.6894

                      4                      5                      6
                      A                      A                      A
 Frequencies --     43.2215                57.5489                82.3950
 Red. masses --      4.1524                 5.5912                 4.8377
 Frc consts  --      0.0046                 0.0109                 0.0194
 IR Inten    --      0.8819                 3.7971                 0.6567

                      7                      8                      9
                      A                      A                      A
 Frequencies --    104.1473               111.4486               155.4932
 Red. masses --      5.5099                 3.8543                 6.6291
 Frc consts  --      0.0352                 0.0282                 0.0944
 IR Inten    --      0.8354                 0.1088                 7.5904

                     10                     11                     12
                      A                      A                      A
 Frequencies --    189.3144               197.8644               232.5241
 Red. masses --      3.3823                 3.6736                 5.1043
 Frc consts  --      0.0714                 0.0847                 0.1626
 IR Inten    --      4.0414                 3.2355                 2.4827

                     13                     14                     15
                      A                      A                      A
 Frequencies --    263.4507               287.8954               315.8177
 Red. masses --      2.4388                 3.3646                 2.6944
 Frc consts  --      0.0997                 0.1643                 0.1583
 IR Inten    --      1.0149                 0.4013                 2.6748

                     16                     17                     18
                      A                      A                      A
 Frequencies --    344.8536               369.6939               411.3474
 Red. masses --      2.6399                 4.2719                 2.0518
 Frc consts  --      0.1850                 0.3440                 0.2046
 IR Inten    --      1.0454                 0.4744                10.9658

                     19                     20                     21
                      A                      A                      A
 Frequencies --    440.9887               452.7516               491.8743
 Red. masses --      3.3744                 3.5309                 3.3946
 Frc consts  --      0.3866                 0.4264                 0.4839
 IR Inten    --      3.9293                10.5461                11.9092

                     22                     23                     24
                      A                      A                      A
 Frequencies --    498.8228               532.1742               544.1200
 Red. masses --      4.9184                 3.0630                 3.6684
 Frc consts  --      0.7211                 0.5111                 0.6399
 IR Inten    --      4.6505                22.3455                26.7478

                     25                     26                     27
                      A                      A                      A
 Frequencies --    555.5911               561.0604               578.4447
 Red. masses --      2.8824                 3.2357                 2.2347
 Frc consts  --      0.5242                 0.6001                 0.4406
 IR Inten    --      5.0550                13.8014                19.1894

                     28                     29                     30
                      A                      A                      A
 Frequencies --    623.4037               632.0844               690.0279
 Red. masses --      3.2534                 3.5665                 1.6840
 Frc consts  --      0.7449                 0.8395                 0.4724
 IR Inten    --     19.4980                12.8611                66.2038

                     31                     32                     33
                      A                      A                      A
 Frequencies --    742.5714               753.0550               766.0769
 Red. masses --      3.2574                 2.4467                 3.1541
 Frc consts  --      1.0583                 0.8175                 1.0906
 IR Inten    --     19.8352                15.4865                22.7798

                     34                     35                     36
                      A                      A                      A
 Frequencies --    790.6383               808.9182               826.2444
 Red. masses --      2.5139                 2.7484                 2.3671
 Frc consts  --      0.9259                 1.0596                 0.9521
 IR Inten    --     16.3132                43.4795                 6.6057

                     37                     38                     39
                      A                      A                      A
 Frequencies --    860.2786               873.3232               889.6666
 Red. masses --      2.3276                 2.6909                 1.4919
 Frc consts  --      1.0149                 1.2092                 0.6957
 IR Inten    --      4.0377                 5.0943                22.3832

                     40                     41                     42
                      A                      A                      A
 Frequencies --    921.0310               936.1450               950.1914
 Red. masses --      2.2881                 2.2803                 2.1828
 Frc consts  --      1.1436                 1.1774                 1.1611
 IR Inten    --      2.8822                 5.3332                 4.2561

                     43                     44                     45
                      A                      A                      A
 Frequencies --    953.9382               971.5236               993.2863
 Red. masses --      1.8969                 2.1775                 2.5883
 Frc consts  --      1.0171                 1.2109                 1.5046
 IR Inten    --      4.4885                 9.8039                 2.8798

                     46                     47                     48
                      A                      A                      A
 Frequencies --   1011.0693              1037.7435              1055.0062
 Red. masses --      2.2894                 2.1187                 2.0682
 Frc consts  --      1.3789                 1.3443                 1.3563
 IR Inten    --      7.1771                14.1200                 0.8943

                     49                     50                     51
                      A                      A                      A
 Frequencies --   1078.3329              1086.2713              1112.0226
 Red. masses --      2.8319                 1.9988                 1.8563
 Frc consts  --      1.9401                 1.3896                 1.3525
 IR Inten    --      4.9233                 3.4709                16.7346

                     52                     53                     54
                      A                      A                      A
 Frequencies --   1122.4051              1136.5681              1161.0012
 Red. masses --      1.7676                 2.0789                 2.3514
 Frc consts  --      1.3120                 1.5822                 1.8674
 IR Inten    --      0.1905                47.2093                55.7899

                     55                     56                     57
                      A                      A                      A
 Frequencies --   1170.9142              1184.0686              1191.9648
 Red. masses --      1.6957                 1.7435                 1.6741
 Frc consts  --      1.3697                 1.4402                 1.4014
 IR Inten    --     40.6728               161.4875                82.6637

                     58                     59                     60
                      A                      A                      A
 Frequencies --   1217.0471              1234.8689              1265.7810
 Red. masses --      1.7562                 1.5240                 1.3428
 Frc consts  --      1.5327                 1.3692                 1.2676
 IR Inten    --     43.0105                 1.4320                23.1714

                     61                     62                     63
                      A                      A                      A
 Frequencies --   1278.0414              1281.3504              1293.3333
 Red. masses --      1.3189                 2.2949                 1.2555
 Frc consts  --      1.2692                 2.2200                 1.2373
 IR Inten    --      3.7218                16.5530                13.7727

                     64                     65                     66
                      A                      A                      A
 Frequencies --   1319.5862              1329.1420              1334.9965
 Red. masses --      1.8469                 1.3646                 1.3961
 Frc consts  --      1.8949                 1.4203                 1.4660
 IR Inten    --    106.5930                20.4512                25.3508

                     67                     68                     69
                      A                      A                      A
 Frequencies --   1338.4420              1340.9939              1355.7973
 Red. masses --      1.3865                 1.4799                 1.4010
 Frc consts  --      1.4635                 1.5680                 1.5173
 IR Inten    --     19.8733                26.3902                 4.4199

                     70                     71                     72
                      A                      A                      A
 Frequencies --   1366.8242              1379.1999              1383.9774
 Red. masses --      1.2808                 1.3118                 1.3760
 Frc consts  --      1.4097                 1.4702                 1.5528
 IR Inten    --      1.0430                 0.2904                 0.8790

                     73                     74                     75
                      A                      A                      A
 Frequencies --   1394.5738              1405.0616              1414.1176
 Red. masses --      1.6665                 1.4352                 1.4278
 Frc consts  --      1.9095                 1.6694                 1.6822
 IR Inten    --     15.6788                10.8024                 2.3811

                     76                     77                     78
                      A                      A                      A
 Frequencies --   1420.7913              1439.6475              1470.5883
 Red. masses --      1.6332                 1.3553                 1.6507
 Frc consts  --      1.9425                 1.6550                 2.1032
 IR Inten    --     10.5650                10.4398               181.9062

                     79                     80                     81
                      A                      A                      A
 Frequencies --   1498.6354              1509.3682              1515.4893
 Red. masses --      1.4751                 1.0832                 1.1812
 Frc consts  --      1.9520                 1.4540                 1.5984
 IR Inten    --     56.5672                 4.5570                15.2768

                     82                     83                     84
                      A                      A                      A
 Frequencies --   1517.4135              1518.8049              1521.7495
 Red. masses --      1.0930                 1.1785                 1.0848
 Frc consts  --      1.4827                 1.6017                 1.4801
 IR Inten    --      6.9841                 8.4210                 6.8397

                     85                     86                     87
                      A                      A                      A
 Frequencies --   1529.8889              1537.9991              1775.5794
 Red. masses --      1.1238                 1.1070                 7.4550
 Frc consts  --      1.5497                 1.5428                13.8478
 IR Inten    --     13.6700                 1.8608               349.7917

                     88                     89                     90
                      A                      A                      A
 Frequencies --   1839.8234              2352.9485              3029.1728
 Red. masses --      9.9485                12.6331                 1.0806
 Frc consts  --     19.8409                41.2084                 5.8420
 IR Inten    --    226.3489                19.8741                11.3120

                     91                     92                     93
                      A                      A                      A
 Frequencies --   3032.1460              3034.4967              3045.9591
 Red. masses --      1.0726                 1.0706                 1.0711
 Frc consts  --      5.8104                 5.8085                 5.8548
 IR Inten    --     17.1236                18.7277                 7.7024

                     94                     95                     96
                      A                      A                      A
 Frequencies --   3053.0429              3055.2887              3058.4431
 Red. masses --      1.0699                 1.0630                 1.0667
 Frc consts  --      5.8758                 5.8462                 5.8790
 IR Inten    --     17.0625                53.6430                23.5420

                     97                     98                     99
                      A                      A                      A
 Frequencies --   3072.6358              3083.0166              3093.5362
 Red. masses --      1.0754                 1.0735                 1.0843
 Frc consts  --      5.9818                 6.0118                 6.1136
 IR Inten    --     11.7967                 8.8012                15.3827

                    100                    101                    102
                      A                      A                      A
 Frequencies --   3097.5825              3116.9521              3124.1088
 Red. masses --      1.1031                 1.0968                 1.0967
 Frc consts  --      6.2363                 6.2782                 6.3065
 IR Inten    --     46.4065                32.5542                25.1956

                    103                    104                    105
                      A                      A                      A
 Frequencies --   3124.2910              3135.7256              3165.7379
 Red. masses --      1.0952                 1.1040                 1.0928
 Frc consts  --      6.2989                 6.3956                 6.4528
 IR Inten    --     23.5480                20.2298                 3.6038

                    106                    107                    108
                      A                      A                      A
 Frequencies --   3183.9873              3557.7887              3682.8745
 Red. masses --      1.0928                 1.0747                 1.0640
 Frc consts  --      6.5273                 8.0147                 8.5028
 IR Inten    --      4.2220                13.5951                52.2740

 - Thermochemistry -
 -------------------
 Temperature   298.150 Kelvin.  Pressure   1.00000 Atm.
 Atom     1 has atomic number  6 and mass  12.00000

 Molecular mass:   265.14264 amu.
 Principal axes and moments of inertia in atomic units:
                           1         2         3
     Eigenvalues --  2561.432767292.840958113.08452
           X            0.99964  -0.02666  -0.00187
           Y            0.02670   0.99932   0.02541
           Z            0.00119  -0.02545   0.99968
 This molecule is an asymmetric top.
 Rotational symmetry number  1.
 Warning -- assumption of classical behavior for rotation
           may cause significant error
 Rotational temperatures (Kelvin)      0.03381     0.01188     0.01068
 Rotational constants (GHZ):           0.70458     0.24747     0.22245
 Zero-point vibrational energy     851598.4 (Joules/Mol)
                                  203.53689 (Kcal/Mol)
 Warning -- explicit consideration of  27 degrees of freedom as
           vibrations may cause significant error
 Vibrational temperatures:     34.85    44.11    57.53    62.19    82.80
          (Kelvin)            118.55   149.84   160.35   223.72   272.38
                              284.68   334.55   379.05   414.22   454.39
                              496.17   531.91   591.84   634.48   651.41
                              707.70   717.69   765.68   782.87   799.37
                              807.24   832.25   896.94   909.43   992.80
                             1068.39  1083.48  1102.21  1137.55  1163.85
                             1188.78  1237.75  1256.52  1280.03  1325.16
                             1346.90  1367.11  1372.50  1397.81  1429.12
                             1454.70  1493.08  1517.92  1551.48  1562.90
                             1599.95  1614.89  1635.27  1670.42  1684.68
                             1703.61  1714.97  1751.06  1776.70  1821.18
                             1838.82  1843.58  1860.82  1898.59  1912.34
                             1920.76  1925.72  1929.39  1950.69  1966.56
                             1984.36  1991.23  2006.48  2021.57  2034.60
                             2044.20  2071.33  2115.85  2156.20  2171.64
                             2180.45  2183.22  2185.22  2189.46  2201.17
                             2212.84  2554.66  2647.10  3385.37  4358.30
                             4362.58  4365.96  4382.46  4392.65  4395.88
                             4400.42  4420.84  4435.77  4450.91  4456.73
                             4484.60  4494.90  4495.16  4511.61  4554.79
                             4581.05  5118.86  5298.84

 Zero-point correction=                           0.324357 (Hartree/Particle)
 Thermal correction to Energy=                    0.342100
 Thermal correction to Enthalpy=                  0.343044
 Thermal correction to Gibbs Free Energy=         0.276303
 Sum of electronic and zero-point Energies=           -896.526443
 Sum of electronic and thermal Energies=              -896.508700
 Sum of electronic and thermal Enthalpies=            -896.507756
 Sum of electronic and thermal Free Energies=         -896.574497

                     E (Thermal)             CV                S
                      KCal/Mol        Cal/Mol-Kelvin    Cal/Mol-Kelvin
 Total                  214.671             67.363            140.468
 Electronic               0.000              0.000              0.000
 Translational            0.889              2.981             42.625
 Rotational               0.889              2.981             33.382
 Vibrational            212.893             61.402             64.461
 Vibration     1          0.593              1.985              6.254
 Vibration     2          0.594              1.984              5.786
 Vibration     3          0.594              1.981              5.260
 Vibration     4          0.595              1.980              5.106
 Vibration     5          0.596              1.974              4.540
 Vibration     6          0.600              1.961              3.833
 Vibration     7          0.605              1.946              3.375
 Vibration     8          0.607              1.940              3.244
 Vibration     9          0.620              1.897              2.604
 Vibration    10          0.633              1.855              2.235
 Vibration    11          0.637              1.843              2.153
 Vibration    12          0.653              1.791              1.859
 Vibration    13          0.670              1.740              1.639
 Vibration    14          0.685              1.696              1.486
 Vibration    15          0.703              1.643              1.332
 Vibration    16          0.723              1.586              1.190
 Vibration    17          0.742              1.534              1.081
 Vibration    18          0.775              1.446              0.922
 Vibration    19          0.801              1.381              0.824
 Vibration    20          0.811              1.355              0.787
 Vibration    21          0.848              1.268              0.679
 Vibration    22          0.854              1.253              0.661
 Vibration    23          0.887              1.179              0.582
 Vibration    24          0.899              1.153              0.556
 Vibration    25          0.911              1.127              0.533
 Vibration    26          0.917              1.116              0.522
 Vibration    27          0.935              1.078              0.488

 Optimization completed.
    -- Stationary point found.
 Normal termination of Gaussian 16 at Sun Dec 13 17:01:05 2020.

 ----------------------------------------------------------------------
 # B3LYP/6-311++G(d,p) empiricaldispersion=gd3bj scf=xqc pop=npa geom=c
 heck
 ----------------------------------------------------------------------

 ---------------------------------------
 CID_122010042_JID_9706_Energie_neutraal
 ---------------------------------------
 Structure from the checkpoint file:  "JID_9706.chk"
 Charge =  0 Multiplicity = 1

 SCF Done:  E(RB3LYP) =  -897.113637641     A.U. after   15 cycles
 Normal termination of Gaussian 16 at Sun Dec 13 17:11:08 2020.

 ----------------------------------------------------------------------
 # B3LYP/6-311++G(d,p) empiricaldispersion=gd3bj scf=xqc pop=npa geom=c
 heck
 ----------------------------------------------------------------------

 -------------------------------------
 CID_122010042_JID_9706_Energie_kation
 -------------------------------------
 Structure from the checkpoint file:  "JID_9706.chk"
 Charge =  1 Multiplicity = 2

 SCF Done:  E(UB3LYP) =  -896.802890917     A.U. after   27 cycles
 Normal termination of Gaussian 16 at Sun Dec 13 17:35:51 2020.
 Gaussian 16:  ES64L-G16RevA.03 25-Dec-2016

 ----------------------------------------------------------------------
 # B3LYP/6-311++G(d,p) empiricaldispersion=gd3bj scf=xqc pop=npa geom=c
 heck
 ----------------------------------------------------------------------

 ------------------------------------
 CID_122010042_JID_9706_Energie_anion
 ------------------------------------
 Structure from the checkpoint file:  "JID_9706.chk"
 Charge = -1 Multiplicity = 2

                         Standard orientation:
 ---------------------------------------------------------------------
 Center     Atomic      Atomic             Coordinates (Angstroms)
 Number     Number       Type             X           Y           Z
 ---------------------------------------------------------------------
      1          6           0        4.322601   -0.892424   -0.842600
      2          6           0        4.232776    0.384500    0.012241
      3          6           0        2.706436    0.582826    0.284046
      4          6           0        2.011825   -0.762056   -0.177958
      5          6           0        3.171713   -1.756298   -0.318354
      6          7           0        0.964854   -1.254512    0.708663
      7          6           0        0.050080   -0.346733    1.271592
      8          8           0       -0.109425   -0.282183    2.487041
      9          7           0       -0.585812    0.482598    0.378583
     10          6           0       -1.241223    1.689042    0.881488
     11          6           0       -2.761139    1.613113    0.727634
     12          6           0       -3.133163    1.301883   -0.725767
     13          6           0       -2.422643    0.022134   -1.203268
     14          6           0       -0.900180    0.117719   -0.997524
     15          6           0       -2.947736   -1.242361   -0.535565
     16          8           0       -2.279610   -2.206421   -0.233898
     17          8           0       -4.289398   -1.207643   -0.340339
     18          6           0        2.148744    1.732649   -0.424613
     19          7           0        1.705289    2.625300   -1.022185
     20          1           0        4.155921   -0.652229   -1.900075
     21          1           0        5.298181   -1.381459   -0.765998
     22          1           0        4.687262    1.255496   -0.465565
     23          1           0        4.741441    0.232020    0.969591
     24          1           0        2.517891    0.727011    1.353405
     25          1           0        1.593888   -0.589379   -1.173127
     26          1           0        2.912197   -2.597612   -0.966991
     27          1           0        3.430386   -2.162436    0.670019
     28          1           0        1.335535   -1.817532    1.467383
     29          1           0       -0.847369    2.540969    0.308924
     30          1           0       -0.953771    1.804894    1.925961
     31          1           0       -3.209727    2.563293    1.040403
     32          1           0       -3.153009    0.832667    1.391719
     33          1           0       -4.214748    1.200331   -0.844420
     34          1           0       -2.808165    2.129639   -1.370092
     35          1           0       -2.613846   -0.110606   -2.278399
     36          1           0       -0.455562   -0.851007   -1.214622
     37          1           0       -0.487801    0.873129   -1.678995
     38          1           0       -4.520110   -2.064891    0.064921
 ---------------------------------------------------------------------

 SCF Done:  E(UB3LYP) =  -897.105950489     A.U. after   33 cycles
 SCF Done:  E(UB3LYP) =  -897.105950489     a.u. after    1 cycles

 The electronic state is 2-A.
 Alpha  occ. eigenvalues --  -19.08301 -19.02472 -18.99436 -14.24779 -14.23567
 Alpha  occ. eigenvalues --  -14.22318 -10.21380 -10.20225 -10.13819 -10.13161
 Alpha  occ. eigenvalues --  -10.12394 -10.11805 -10.11057 -10.10614 -10.09753
 Alpha  occ. eigenvalues --  -10.09105 -10.08735 -10.08728 -10.08442  -1.02265
 Alpha  occ. eigenvalues --   -0.95985  -0.93184  -0.85728  -0.83551  -0.81983
 Alpha  occ. eigenvalues --   -0.75787  -0.72793  -0.68617  -0.66625  -0.63441
 Alpha  occ. eigenvalues --   -0.59744  -0.58562  -0.53521  -0.52942  -0.51118
 Alpha  occ. eigenvalues --   -0.50337  -0.46406  -0.44721  -0.44006  -0.41822
 Alpha  occ. eigenvalues --   -0.40724  -0.39980  -0.39164  -0.37725  -0.37488
 Alpha  occ. eigenvalues --   -0.36525  -0.36061  -0.34784  -0.33458  -0.32736
 Alpha  occ. eigenvalues --   -0.32478  -0.32294  -0.31153  -0.30641  -0.29916
 Alpha  occ. eigenvalues --   -0.28778  -0.28658  -0.28165  -0.27160  -0.26655
 Alpha  occ. eigenvalues --   -0.26385  -0.25777  -0.24639  -0.24562  -0.23756
 Alpha  occ. eigenvalues --   -0.23670  -0.23507  -0.19495  -0.19121  -0.15880
 Alpha  occ. eigenvalues --   -0.15251   0.03703
 Alpha virt. eigenvalues --    0.05019   0.06298   0.07003   0.07544   0.07779
 Alpha virt. eigenvalues --    0.08237   0.08874   0.09718   0.10021   0.10175
 Alpha virt. eigenvalues --    0.10312   0.10587   0.10770   0.11455   0.11612

  Beta  occ. eigenvalues --  -19.08269 -19.02446 -18.99425 -14.24779 -14.23561
  Beta  occ. eigenvalues --  -14.22305 -10.21326 -10.20220 -10.13811 -10.13155
  Beta  occ. eigenvalues --  -10.12395 -10.11795 -10.11054 -10.10600 -10.09724
  Beta  occ. eigenvalues --  -10.09081 -10.08718 -10.08694 -10.08436  -1.02192
  Beta  occ. eigenvalues --   -0.95969  -0.93127  -0.85717  -0.83536  -0.81964
  Beta  occ. eigenvalues --   -0.75757  -0.72753  -0.68594  -0.66584  -0.63394
  Beta  occ. eigenvalues --   -0.59703  -0.58499  -0.53474  -0.52894  -0.51041
  Beta  occ. eigenvalues --   -0.50271  -0.46370  -0.44691  -0.43970  -0.41777
  Beta  occ. eigenvalues --   -0.40694  -0.39925  -0.39058  -0.37699  -0.37456
  Beta  occ. eigenvalues --   -0.36502  -0.36010  -0.34719  -0.33428  -0.32705
  Beta  occ. eigenvalues --   -0.32441  -0.32267  -0.31114  -0.30608  -0.29884
  Beta  occ. eigenvalues --   -0.28736  -0.28627  -0.28132  -0.27121  -0.26616
  Beta  occ. eigenvalues --   -0.26357  -0.25732  -0.24604  -0.24528  -0.23732
  Beta  occ. eigenvalues --   -0.23572  -0.23465  -0.19464  -0.19088  -0.15863
  Beta  occ. eigenvalues --   -0.15228
  Beta virt. eigenvalues --    0.05863   0.06244   0.06950   0.07336   0.07937
  Beta virt. eigenvalues --    0.08150   0.08795   0.09379   0.10069   0.10154
  Beta virt. eigenvalues --    0.10354   0.10434   0.10761   0.10892   0.11632

 Mulliken charges and spin densities:
               1          2
     1  C    0.420642  -0.845873
     2  C    0.445833  -0.923192
     3  C   -0.088300   1.243406
     4  C   -0.315938  -0.308504
     5  C   -0.351152   0.186522
     6  N    0.076426   0.012069
     7  C   -0.362071  -0.133252
     8  O   -0.272694   0.012127
     9  N    0.320015   0.029590
    10  C   -0.194658  -0.026026
    11  C   -0.213946  -0.044477
    12  C    0.339493  -0.934298
    13  C    0.550823  -0.009160
    14  C   -0.607450  -0.104314
    15  C    0.050870  -0.364207
    16  O   -0.258583   0.011161
    17  O   -0.166927   0.031878
    18  C    0.516532  -1.270677
    19  N   -0.313669   0.058465
    20  H   -0.015659   0.158318
    21  H   -0.601045   0.804592
    22  H   -0.025336   0.231108
    23  H   -0.360222   0.514627
    24  H    0.219386   0.075085
    25  H   -0.024270   0.223306
    26  H   -0.183583   0.386984
    27  H   -0.061115   0.197787
    28  H    0.245066   0.033730
    29  H    0.203533  -0.038120
    30  H    0.164811   0.025344
    31  H    0.047678   0.124390
    32  H    0.179386  -0.013213
    33  H   -0.040444   0.262417
    34  H    0.026224   0.106506
    35  H   -0.738458   1.015974
    36  H    0.294261  -0.104846
    37  H    0.192398  -0.008654
    38  H   -0.097859   0.383426
 Sum of Mulliken charges =  -1.00000   1.00000

 Dipole moment (field-independent basis, Debye):
    X=             -2.7168    Y=              2.1737    Z=              1.8758  Tot=              3.9528
 Quadrupole moment (field-independent basis, Debye-Ang):
   XX=           -209.4193   YY=           -156.6406   ZZ=           -156.1251
   XY=              0.4389   XZ=             -5.3725   YZ=              3.3689

 Summary of Natural Population Analysis:

                                       Natural Population
                Natural  -----------------------------------------------
    Atom  No    Charge         Core      Valence    Rydberg      Total
 -----------------------------------------------------------------------
      C    1   -0.19123      0.99963     2.18303    0.00856     3.19123
      C    2   -0.17990      0.99963     2.17107    0.00921     3.17990
      C    3   -0.17680      0.99950     2.16769    0.00962     3.17680
      C    4    0.00078      0.99956     1.98691    0.01275     2.99922
      C    5   -0.19002      0.99961     2.18096    0.00945     3.19002
      N    6   -0.33412      0.99967     2.82449    0.00996     3.83412
      C    7    0.41859      0.99965     1.55813    0.02362     2.58141
      O    8   -0.33486      0.99988     3.33031    0.00468     4.33486
      N    9   -0.27124      0.99963     2.75986    0.01174     3.77124
      C   10   -0.08602      0.99961     2.07758    0.00882     3.08602
      C   11   -0.19745      0.99962     2.18995    0.00788     3.19745
      C   12   -0.19065      0.99962     2.18120    0.00984     3.19065
      C   13   -0.15948      0.99954     2.14766    0.01228     3.15948
      C   14   -0.08893      0.99959     2.07672    0.01263     3.08893
      C   15    0.41516      0.99968     1.55895    0.02621     2.58484
      O   16   -0.30206      0.99987     3.29611    0.00609     4.30206
      O   17   -0.34729      0.99988     3.34095    0.00647     4.34729
      C   18    0.16820      0.99964     1.81441    0.01775     2.83180
      N   19   -0.19089      0.99979     2.68047    0.01063     3.69089
      H   20    0.09732      0.00000     0.40115    0.00154     0.40268
      H   21    0.10851      0.00000     0.38882    0.00267     0.39149
      H   22    0.10631      0.00000     0.39233    0.00136     0.39369
      H   23    0.10400      0.00000     0.39440    0.00160     0.39600
      H   24    0.12603      0.00000     0.37238    0.00159     0.37397
      H   25    0.09889      0.00000     0.39868    0.00243     0.40111
      H   26    0.10930      0.00000     0.38974    0.00096     0.39070
      H   27    0.09677      0.00000     0.40168    0.00155     0.40323
      H   28    0.18956      0.00000     0.30822    0.00221     0.31044
      H   29    0.09613      0.00000     0.40242    0.00146     0.40387
      H   30    0.11356      0.00000     0.38544    0.00100     0.38644
      H   31    0.09947      0.00000     0.39980    0.00073     0.40053
      H   32    0.10072      0.00000     0.39805    0.00123     0.39928
      H   33    0.10999      0.00000     0.38867    0.00134     0.39001
      H   34    0.09855      0.00000     0.40027    0.00118     0.40145
      H   35    0.12275      0.00000     0.37397    0.00328     0.37725
      H   36    0.11790      0.00000     0.38010    0.00200     0.38210
      H   37    0.10115      0.00000     0.39717    0.00168     0.39885
      H   38    0.24132      0.00000     0.25377    0.00491     0.25868
 =======================================================================
   * Total *    0.00000     18.99359    51.75351    0.25290    71.00000

 Normal termination of Gaussian 16 at Sun Dec 13 18:06:28 2020.
