 Gaussian 16, Revision A.03,

 -----------------------------------------------------------
 # opt freq B3LYP/6-31G(d) empiricaldispersion=gd3bj scf=xqc
 -----------------------------------------------------------

 ------------------------------
 CID_71979982_JID_6687_neutraal
 ------------------------------
 Symbolic Z-matrix:
 Charge =  0 Multiplicity = 1

 SCF Done:  E(RB3LYP) =  -692.229665747     A.U. after   15 cycles
 SCF Done:  E(RB3LYP) =  -692.232775116     A.U. after   13 cycles
 SCF Done:  E(RB3LYP) =  -692.231212489     A.U. after   14 cycles
 SCF Done:  E(RB3LYP) =  -692.232798727     A.U. after   13 cycles
 SCF Done:  E(RB3LYP) =  -692.234539497     A.U. after   10 cycles
 SCF Done:  E(RB3LYP) =  -692.236039394     A.U. after   13 cycles
 SCF Done:  E(RB3LYP) =  -692.236680300     A.U. after   13 cycles
 SCF Done:  E(RB3LYP) =  -692.237294112     A.U. after   12 cycles
 SCF Done:  E(RB3LYP) =  -692.237696868     A.U. after   12 cycles
 SCF Done:  E(RB3LYP) =  -692.237951834     A.U. after   14 cycles
 SCF Done:  E(RB3LYP) =  -692.241068549     A.U. after    9 cycles
 SCF Done:  E(RB3LYP) =  -692.241069923     A.U. after    9 cycles
 SCF Done:  E(RB3LYP) =  -692.241070395     A.U. after    8 cycles
 SCF Done:  E(RB3LYP) =  -692.241070606     A.U. after    7 cycles
 SCF Done:  E(RB3LYP) =  -692.241070649     A.U. after    7 cycles
 Optimization completed.
    -- Stationary point found.
 Normal termination of Gaussian 16 at Thu Dec 10 23:15:32 2020.

 --------------------------------------------------------------------
 #N Geom=AllCheck Guess=TCheck SCRF=Check GenChk RB3LYP/6-31G(d) Freq
 --------------------------------------------------------------------

 Structure from the checkpoint file:  "JID_6687.chk"
 ------------------------------
 CID_71979982_JID_6687_neutraal
 ------------------------------
 Charge =  0 Multiplicity = 1

 SCF Done:  E(RB3LYP) =  -692.241070649     A.U. after    1 cycles

  Exact polarizability: 184.622   6.298 166.422  18.767  -0.312 100.455
 Approx polarizability: 260.858   6.061 256.265  35.171  -1.301 149.273

                      1                      2                      3
                      A                      A                      A
 Frequencies --     18.7009                31.2136                41.9450
 Red. masses --      3.8413                 4.5143                 3.5325
 Frc consts  --      0.0008                 0.0026                 0.0037
 IR Inten    --      0.5692                 0.4247                 0.1583

                      4                      5                      6
                      A                      A                      A
 Frequencies --     59.6454                64.7886                78.9199
 Red. masses --      4.0567                 5.3401                 2.6996
 Frc consts  --      0.0085                 0.0132                 0.0099
 IR Inten    --      0.9905                 1.0908                 1.4813

                      7                      8                      9
                      A                      A                      A
 Frequencies --    122.5084               149.2773               200.2063
 Red. masses --      2.5876                 3.3043                 2.2730
 Frc consts  --      0.0229                 0.0434                 0.0537
 IR Inten    --      0.6414                 0.7635                 0.7982

                     10                     11                     12
                      A                      A                      A
 Frequencies --    212.5289               235.1030               265.3124
 Red. masses --      2.3136                 1.4171                 1.7393
 Frc consts  --      0.0616                 0.0461                 0.0721
 IR Inten    --      2.7799                 0.3985                 1.2351

                     13                     14                     15
                      A                      A                      A
 Frequencies --    292.0223               312.8469               338.9030
 Red. masses --      1.7466                 2.3178                 3.8696
 Frc consts  --      0.0878                 0.1337                 0.2619
 IR Inten    --      1.7652                 1.5913                 1.3547

                     16                     17                     18
                      A                      A                      A
 Frequencies --    350.6990               383.8610               419.3285
 Red. masses --      3.0803                 2.4463                 3.1320
 Frc consts  --      0.2232                 0.2124                 0.3245
 IR Inten    --      2.5894                 3.2726                 0.3401

                     19                     20                     21
                      A                      A                      A
 Frequencies --    434.6395               464.8015               517.3055
 Red. masses --      2.5143                 2.4834                 2.5593
 Frc consts  --      0.2798                 0.3161                 0.4035
 IR Inten    --      5.8395                16.2700                10.7473

                     22                     23                     24
                      A                      A                      A
 Frequencies --    524.0265               556.6508               574.6942
 Red. masses --      2.7997                 2.0457                 2.3974
 Frc consts  --      0.4530                 0.3735                 0.4665
 IR Inten    --     13.5261                34.1846                49.8629

                     25                     26                     27
                      A                      A                      A
 Frequencies --    633.5781               640.3593               649.5674
 Red. masses --      4.2913                 2.8524                 2.2731
 Frc consts  --      1.0149                 0.6891                 0.5651
 IR Inten    --     13.8536                44.6841                16.9660

                     28                     29                     30
                      A                      A                      A
 Frequencies --    683.2122               706.9279               754.5631
 Red. masses --      1.9554                 2.0769                 1.7580
 Frc consts  --      0.5378                 0.6115                 0.5897
 IR Inten    --     70.7485                24.0761                 6.9248

                     31                     32                     33
                      A                      A                      A
 Frequencies --    764.7856               827.9558               845.0197
 Red. masses --      1.7582                 1.2613                 2.8169
 Frc consts  --      0.6059                 0.5094                 1.1851
 IR Inten    --     50.9890                 1.3763                 3.7676

                     34                     35                     36
                      A                      A                      A
 Frequencies --    853.8778               867.3888               879.9890
 Red. masses --      2.2261                 2.4234                 1.4979
 Frc consts  --      0.9563                 1.0742                 0.6834
 IR Inten    --      9.7498                15.0552                 6.8869

                     37                     38                     39
                      A                      A                      A
 Frequencies --    889.6730               908.2062               930.9545
 Red. masses --      2.1710                 1.4813                 1.4472
 Frc consts  --      1.0124                 0.7199                 0.7390
 IR Inten    --      1.7485                 2.6803                 3.4344

                     40                     41                     42
                      A                      A                      A
 Frequencies --    951.9577               977.3695               979.2139
 Red. masses --      1.3225                 1.3305                 1.7729
 Frc consts  --      0.7061                 0.7488                 1.0016
 IR Inten    --      0.3472                 0.2701                 1.0389

                     43                     44                     45
                      A                      A                      A
 Frequencies --   1013.5029              1062.5929              1066.8186
 Red. masses --      5.5610                 2.1268                 1.9530
 Frc consts  --      3.3656                 1.4148                 1.3096
 IR Inten    --      1.8016                 1.5975                 1.0748

                     46                     47                     48
                      A                      A                      A
 Frequencies --   1086.3689              1105.3170              1111.2435
 Red. masses --      1.7671                 1.8121                 1.7314
 Frc consts  --      1.2287                 1.3044                 1.2597
 IR Inten    --      8.5490                 0.3740                11.7301

                     49                     50                     51
                      A                      A                      A
 Frequencies --   1131.8103              1137.7050              1183.4090
 Red. masses --      1.9499                 2.4413                 2.4778
 Frc consts  --      1.4717                 1.8618                 2.0445
 IR Inten    --      7.3111                22.2448                18.3706

                     52                     53                     54
                      A                      A                      A
 Frequencies --   1189.1866              1194.5233              1217.1085
 Red. masses --      1.6776                 1.3213                 1.1400
 Frc consts  --      1.3978                 1.1108                 0.9950
 IR Inten    --     14.0219                18.8653                14.1762

                     55                     56                     57
                      A                      A                      A
 Frequencies --   1257.0494              1276.0298              1299.0345
 Red. masses --      1.4874                 1.4558                 2.2186
 Frc consts  --      1.3848                 1.3966                 2.2058
 IR Inten    --     53.2370                42.2539                55.0199

                     58                     59                     60
                      A                      A                      A
 Frequencies --   1307.5083              1335.0392              1347.8654
 Red. masses --      1.3225                 1.4656                 1.6471
 Frc consts  --      1.3321                 1.5390                 1.7631
 IR Inten    --      7.6865                76.8285                45.2581

                     61                     62                     63
                      A                      A                      A
 Frequencies --   1360.3766              1374.4267              1385.4362
 Red. masses --      1.6723                 1.8372                 1.4709
 Frc consts  --      1.8234                 2.0448                 1.6634
 IR Inten    --     15.2497                 2.5443                 2.7060

                     64                     65                     66
                      A                      A                      A
 Frequencies --   1391.9599              1406.5691              1434.3661
 Red. masses --      1.4042                 1.3087                 1.4460
 Frc consts  --      1.6030                 1.5255                 1.7529
 IR Inten    --      5.8076                 2.7433                32.4552

                     67                     68                     69
                      A                      A                      A
 Frequencies --   1440.6327              1444.6948              1483.2033
 Red. masses --      1.2818                 1.4565                 1.8036
 Frc consts  --      1.5674                 1.7911                 2.3377
 IR Inten    --     11.5582                10.7053                20.3717

                     70                     71                     72
                      A                      A                      A
 Frequencies --   1496.9224              1505.3071              1515.0412
 Red. masses --      1.8187                 1.0986                 1.0801
 Frc consts  --      2.4011                 1.4667                 1.4607
 IR Inten    --     40.6783                 0.8440                 9.6325

                     73                     74                     75
                      A                      A                      A
 Frequencies --   1520.1072              1525.8981              1529.6401
 Red. masses --      1.0822                 1.0927                 1.0611
 Frc consts  --      1.4734                 1.4990                 1.4628
 IR Inten    --      2.9916                 2.9649                 5.3320

                     76                     77                     78
                      A                      A                      A
 Frequencies --   1531.9800              1535.9070              1549.5189
 Red. masses --      1.0635                 1.0512                 1.9646
 Frc consts  --      1.4706                 1.4611                 2.7792
 IR Inten    --     13.1166                12.2608                27.2753

                     79                     80                     81
                      A                      A                      A
 Frequencies --   1559.6520              1648.3704              1669.9487
 Red. masses --      1.8199                 4.6270                 5.6806
 Frc consts  --      2.6083                 7.4074                 9.3337
 IR Inten    --    109.7743                 8.8095               113.8809

                     82                     83                     84
                      A                      A                      A
 Frequencies --   1780.8047              3040.3158              3041.3064
 Red. masses --      7.7809                 1.0392                 1.0455
 Frc consts  --     14.5382                 5.6594                 5.6978
 IR Inten    --    347.1675                29.1119                20.8185

                     85                     86                     87
                      A                      A                      A
 Frequencies --   3049.8084              3056.5049              3061.6810
 Red. masses --      1.0677                 1.0700                 1.0678
 Frc consts  --      5.8514                 5.8894                 5.8975
 IR Inten    --      9.9539                24.5888                29.4248

                     88                     89                     90
                      A                      A                      A
 Frequencies --   3082.3793              3096.5564              3113.0889
 Red. masses --      1.0812                 1.0955                 1.0965
 Frc consts  --      6.0522                 6.1891                 6.2612
 IR Inten    --     19.6576                17.5386                13.7602

                     91                     92                     93
                      A                      A                      A
 Frequencies --   3118.6310              3121.1535              3126.5804
 Red. masses --      1.0923                 1.1004                 1.0996
 Frc consts  --      6.2593                 6.3161                 6.3330
 IR Inten    --     28.9374                44.2097                28.4974

                     94                     95                     96
                      A                      A                      A
 Frequencies --   3138.9511              3145.8723              3167.4188
 Red. masses --      1.0935                 1.1032                 1.0874
 Frc consts  --      6.3480                 6.4327                 6.4278
 IR Inten    --     22.8045                18.3839                14.9639

                     97                     98                     99
                      A                      A                      A
 Frequencies --   3185.6546              3193.5382              3212.3110
 Red. masses --      1.0865                 1.0918                 1.0947
 Frc consts  --      6.4964                 6.5606                 6.6556
 IR Inten    --      1.2308                27.1217                34.1365

                    100                    101                    102
                      A                      A                      A
 Frequencies --   3222.1132              3549.2011              3588.8750
 Red. masses --      1.0924                 1.0747                 1.0756
 Frc consts  --      6.6822                 7.9765                 8.1627
 IR Inten    --      9.4466                 3.8563                15.5856

 - Thermochemistry -
 -------------------
 Temperature   298.150 Kelvin.  Pressure   1.00000 Atm.
 Atom     1 has atomic number  6 and mass  12.00000

 Molecular mass:   220.15756 amu.
 Principal axes and moments of inertia in atomic units:
                           1         2         3
     Eigenvalues --  2384.178205728.332747005.07365
           X            0.99984  -0.00994   0.01488
           Y            0.00998   0.99995  -0.00305
           Z           -0.01485   0.00319   0.99988
 This molecule is an asymmetric top.
 Rotational symmetry number  1.
 Warning -- assumption of classical behavior for rotation
           may cause significant error
 Rotational temperatures (Kelvin)      0.03633     0.01512     0.01236
 Rotational constants (GHZ):           0.75697     0.31506     0.25763
 Zero-point vibrational energy     832118.5 (Joules/Mol)
                                  198.88109 (Kcal/Mol)
 Warning -- explicit consideration of  24 degrees of freedom as
           vibrations may cause significant error
 Vibrational temperatures:     26.91    44.91    60.35    85.82    93.22
          (Kelvin)            113.55   176.26   214.78   288.05   305.78
                              338.26   381.73   420.15   450.12   487.61
                              504.58   552.29   603.32   625.35   668.75
                              744.29   753.96   800.90   826.86   911.58
                              921.33   934.58   982.99  1017.11  1085.65
                             1100.36  1191.24  1215.79  1228.54  1247.98
                             1266.11  1280.04  1306.71  1339.44  1369.65
                             1406.22  1408.87  1458.20  1528.83  1534.91
                             1563.04  1590.30  1598.83  1628.42  1636.90
                             1702.66  1710.97  1718.65  1751.15  1808.61
                             1835.92  1869.02  1881.21  1920.82  1939.28
                             1957.28  1977.49  1993.33  2002.72  2023.74
                             2063.73  2072.75  2078.59  2134.00  2153.74
                             2165.80  2179.81  2187.10  2195.43  2200.81
                             2204.18  2209.83  2229.41  2243.99  2371.64
                             2402.68  2562.18  4374.34  4375.76  4387.99
                             4397.63  4405.08  4434.86  4455.25  4479.04
                             4487.01  4490.64  4498.45  4516.25  4526.21
                             4557.21  4583.45  4594.79  4621.80  4635.90
                             5106.51  5163.59

 Zero-point correction=                           0.316937 (Hartree/Particle)
 Thermal correction to Energy=                    0.333586
 Thermal correction to Enthalpy=                  0.334531
 Thermal correction to Gibbs Free Energy=         0.270562
 Sum of electronic and zero-point Energies=           -691.924133
 Sum of electronic and thermal Energies=              -691.907484
 Sum of electronic and thermal Enthalpies=            -691.906540
 Sum of electronic and thermal Free Energies=         -691.970509

                     E (Thermal)             CV                S
                      KCal/Mol        Cal/Mol-Kelvin    Cal/Mol-Kelvin
 Total                  209.329             62.853            134.634
 Electronic               0.000              0.000              0.000
 Translational            0.889              2.981             42.070
 Rotational               0.889              2.981             32.925
 Vibrational            207.551             56.892             59.638
 Vibration     1          0.593              1.986              6.768
 Vibration     2          0.594              1.983              5.751
 Vibration     3          0.595              1.980              5.165
 Vibration     4          0.597              1.974              4.469
 Vibration     5          0.597              1.971              4.306
 Vibration     6          0.600              1.963              3.918
 Vibration     7          0.610              1.930              3.060
 Vibration     8          0.618              1.903              2.681
 Vibration     9          0.638              1.840              2.131
 Vibration    10          0.644              1.822              2.022
 Vibration    11          0.655              1.787              1.840
 Vibration    12          0.671              1.737              1.627
 Vibration    13          0.687              1.689              1.462
 Vibration    14          0.701              1.649              1.347
 Vibration    15          0.719              1.598              1.217
 Vibration    16          0.728              1.574              1.163
 Vibration    17          0.753              1.505              1.024
 Vibration    18          0.782              1.428              0.894
 Vibration    19          0.795              1.395              0.844
 Vibration    20          0.822              1.328              0.752
 Vibration    21          0.872              1.212              0.616
 Vibration    22          0.879              1.197              0.601
 Vibration    23          0.912              1.125              0.531
 Vibration    24          0.931              1.086              0.495

 Optimization completed.
    -- Stationary point found.
 Normal termination of Gaussian 16 at Thu Dec 10 23:27:20 2020.

 ----------------------------------------------------------------------
 # B3LYP/6-311++G(d,p) empiricaldispersion=gd3bj scf=xqc pop=npa geom=c
 heck
 ----------------------------------------------------------------------

 --------------------------------------
 CID_71979982_JID_6687_Energie_neutraal
 --------------------------------------
 Structure from the checkpoint file:  "JID_6687.chk"
 Charge =  0 Multiplicity = 1

 SCF Done:  E(RB3LYP) =  -692.439757278     A.U. after   15 cycles
 Normal termination of Gaussian 16 at Thu Dec 10 23:32:28 2020.

 ----------------------------------------------------------------------
 # B3LYP/6-311++G(d,p) empiricaldispersion=gd3bj scf=xqc pop=npa geom=c
 heck
 ----------------------------------------------------------------------

 ------------------------------------
 CID_71979982_JID_6687_Energie_kation
 ------------------------------------
 Structure from the checkpoint file:  "JID_6687.chk"
 Charge =  1 Multiplicity = 2

 SCF Done:  E(UB3LYP) =  -692.164135650     A.U. after   23 cycles
 Normal termination of Gaussian 16 at Thu Dec 10 23:43:04 2020.
 Gaussian 16:  ES64L-G16RevA.03 25-Dec-2016

 ----------------------------------------------------------------------
 # B3LYP/6-311++G(d,p) empiricaldispersion=gd3bj scf=xqc pop=npa geom=c
 heck
 ----------------------------------------------------------------------

 -----------------------------------
 CID_71979982_JID_6687_Energie_anion
 -----------------------------------
 Structure from the checkpoint file:  "JID_6687.chk"
 Charge = -1 Multiplicity = 2

                         Standard orientation:
 ---------------------------------------------------------------------
 Center     Atomic      Atomic             Coordinates (Angstroms)
 Number     Number       Type             X           Y           Z
 ---------------------------------------------------------------------
      1          6           0        2.417590   -1.747521    1.684133
      2          6           0        2.592991   -2.255387    0.251009
      3          6           0        1.981032   -1.309659   -0.790219
      4          6           0        2.741944    0.011886   -0.848977
      5          8           0        3.965348    0.045808   -0.773570
      6          7           0        2.025853    1.168108   -1.040715
      7          6           0        0.593029    1.375099   -0.916573
      8          6           0        0.106838    1.560269    0.541172
      9          6           0        0.680710    2.822669    1.179397
     10          7           0       -1.350538    1.602066    0.614813
     11          6           0       -2.133832    0.498138    0.263266
     12          6           0       -3.407558    0.697737   -0.299085
     13          6           0       -4.227501   -0.382479   -0.608329
     14          6           0       -3.798869   -1.691789   -0.378838
     15          6           0       -2.537207   -1.897037    0.178715
     16          6           0       -1.711101   -0.822056    0.502187
     17          1           0        2.908353   -0.776635    1.814765
     18          1           0        2.857638   -2.441478    2.408338
     19          1           0        1.356600   -1.631174    1.941690
     20          1           0        3.658501   -2.367072    0.028774
     21          1           0        2.129108   -3.243667    0.145510
     22          1           0        2.057315   -1.757634   -1.790092
     23          1           0        0.914964   -1.170054   -0.593621
     24          1           0        2.619681    1.988776   -1.046328
     25          1           0        0.329751    2.269416   -1.494834
     26          1           0        0.057434    0.540605   -1.374057
     27          1           0        0.453515    0.700149    1.123537
     28          1           0        0.356466    3.718768    0.632701
     29          1           0        0.344638    2.915041    2.215855
     30          1           0        1.774449    2.798414    1.169226
     31          1           0       -1.729753    2.476552    0.267478
     32          1           0       -3.749700    1.712667   -0.491279
     33          1           0       -5.206875   -0.197627   -1.041510
     34          1           0       -4.436801   -2.533750   -0.628470
     35          1           0       -2.185682   -2.906864    0.372925
     36          1           0       -0.748000   -1.011345    0.962117
 ---------------------------------------------------------------------

 SCF Done:  E(UB3LYP) =  -692.430046931     A.U. after   33 cycles
 SCF Done:  E(UB3LYP) =  -692.430046932     a.u. after    1 cycles

 The electronic state is 2-A.
 Alpha  occ. eigenvalues --  -18.99725 -14.24716 -14.22882 -10.18383 -10.12338
 Alpha  occ. eigenvalues --  -10.12243 -10.11686 -10.09131 -10.08565 -10.08425
 Alpha  occ. eigenvalues --  -10.08286 -10.07815 -10.07747 -10.07596 -10.07469
 Alpha  occ. eigenvalues --  -10.07198  -0.94901  -0.85174  -0.82966  -0.75524
 Alpha  occ. eigenvalues --   -0.71134  -0.68752  -0.65597  -0.63075  -0.62276
 Alpha  occ. eigenvalues --   -0.60746  -0.54327  -0.52714  -0.51568  -0.49379
 Alpha  occ. eigenvalues --   -0.46636  -0.44480  -0.41644  -0.40974  -0.40371
 Alpha  occ. eigenvalues --   -0.39020  -0.37732  -0.35927  -0.35296  -0.35043
 Alpha  occ. eigenvalues --   -0.33344  -0.32988  -0.32614  -0.32133  -0.31438
 Alpha  occ. eigenvalues --   -0.29940  -0.29585  -0.28759  -0.27606  -0.26676
 Alpha  occ. eigenvalues --   -0.26435  -0.25901  -0.25656  -0.25390  -0.24850
 Alpha  occ. eigenvalues --   -0.21347  -0.17306  -0.16693  -0.16427  -0.11291
 Alpha  occ. eigenvalues --    0.04032
 Alpha virt. eigenvalues --    0.05666   0.06428   0.07205   0.07528   0.07682
 Alpha virt. eigenvalues --    0.08224   0.08643   0.08956   0.09382   0.09697
 Alpha virt. eigenvalues --    0.10137   0.10663   0.11496   0.11741   0.12112

  Beta  occ. eigenvalues --  -18.99723 -14.24703 -14.22856 -10.18383 -10.12341
  Beta  occ. eigenvalues --  -10.12240 -10.11659 -10.09124 -10.08558 -10.08410
  Beta  occ. eigenvalues --  -10.08272 -10.07804 -10.07736 -10.07573 -10.07465
  Beta  occ. eigenvalues --  -10.07154  -0.94895  -0.85141  -0.82937  -0.75497
  Beta  occ. eigenvalues --   -0.71119  -0.68721  -0.65560  -0.63040  -0.62248
  Beta  occ. eigenvalues --   -0.60685  -0.54284  -0.52674  -0.51523  -0.49332
  Beta  occ. eigenvalues --   -0.46600  -0.44436  -0.41614  -0.40944  -0.40322
  Beta  occ. eigenvalues --   -0.38988  -0.37711  -0.35897  -0.35280  -0.35009
  Beta  occ. eigenvalues --   -0.33303  -0.32946  -0.32573  -0.32109  -0.31422
  Beta  occ. eigenvalues --   -0.29913  -0.29549  -0.28726  -0.27577  -0.26638
  Beta  occ. eigenvalues --   -0.26401  -0.25861  -0.25642  -0.25359  -0.24828
  Beta  occ. eigenvalues --   -0.21321  -0.17295  -0.16676  -0.16381  -0.11264
  Beta virt. eigenvalues --    0.05890   0.06809   0.06963   0.07443   0.07612
  Beta virt. eigenvalues --    0.08222   0.08764   0.08972   0.09222   0.09536
  Beta virt. eigenvalues --    0.10139   0.10189   0.10931   0.11585   0.12180

 Mulliken charges and spin densities:
               1          2
     1  C   -0.159837  -0.281118
     2  C   -0.388125  -0.166991
     3  C    0.277167   0.010816
     4  C   -0.099766  -0.160571
     5  O   -0.339667   0.021360
     6  N   -0.208592   0.113211
     7  C    0.275361  -0.726838
     8  C   -1.427664   1.089271
     9  C    1.892385  -2.547467
    10  N    0.121629   0.149994
    11  C    0.209748  -0.793541
    12  C   -1.578670   1.546400
    13  C    0.729476  -1.070435
    14  C    0.417251  -0.765962
    15  C   -1.289939   1.334265
    16  C    1.468070  -1.030477
    17  H    0.110727   0.054576
    18  H   -0.016674   0.167965
    19  H   -0.111079   0.237327
    20  H    0.199222  -0.025502
    21  H    0.003420   0.137257
    22  H   -0.010452   0.213281
    23  H    0.300442  -0.218360
    24  H    0.079107   0.226949
    25  H   -0.870555   1.065818
    26  H    0.373237  -0.161439
    27  H    0.437402  -0.247561
    28  H   -0.486346   0.656235
    29  H   -0.235005   0.399120
    30  H    0.025457   0.127710
    31  H    0.256196  -0.009534
    32  H   -0.962014   1.114579
    33  H   -0.090960   0.257021
    34  H   -0.083723   0.226324
    35  H   -0.323168   0.496904
    36  H    0.505940  -0.440588
 Sum of Mulliken charges =  -1.00000   1.00000

 Dipole moment (field-independent basis, Debye):
    X=              1.9429    Y=             -5.5242    Z=              1.5745  Tot=              6.0638
 Quadrupole moment (field-independent basis, Debye-Ang):
   XX=           -177.9238   YY=           -163.2147   ZZ=           -131.7288
   XY=              3.1202   XZ=              0.2397   YZ=              5.6282

 Summary of Natural Population Analysis:

                                       Natural Population
                Natural  -----------------------------------------------
    Atom  No    Charge         Core      Valence    Rydberg      Total
 -----------------------------------------------------------------------
      C    1   -0.28772      0.99966     2.28363    0.00443     3.28772
      C    2   -0.19116      0.99964     2.18259    0.00893     3.19116
      C    3   -0.23779      0.99958     2.23043    0.00778     3.23779
      C    4    0.34538      0.99967     1.63278    0.02217     2.65462
      O    5   -0.33008      0.99988     3.32442    0.00578     4.33008
      N    6   -0.31692      0.99967     2.80689    0.01036     3.81692
      C    7   -0.09710      0.99958     2.08500    0.01251     3.09710
      C    8   -0.01630      0.99959     2.00507    0.01165     3.01630
      C    9   -0.28768      0.99964     2.28155    0.00649     3.28768
      N   10   -0.31593      0.99967     2.80387    0.01239     3.81593
      C   11    0.08986      0.99949     1.89862    0.01204     2.91014
      C   12   -0.11952      0.99952     2.10957    0.01043     3.11952
      C   13   -0.09161      0.99957     2.08160    0.01044     3.09161
      C   14   -0.12630      0.99956     2.11679    0.00995     3.12630
      C   15   -0.09025      0.99957     2.08122    0.00946     3.09025
      C   16   -0.13425      0.99951     2.12683    0.00791     3.13425
      H   17    0.10126      0.00000     0.39774    0.00100     0.39874
      H   18    0.09865      0.00000     0.40062    0.00073     0.40135
      H   19    0.09378      0.00000     0.40492    0.00130     0.40622
      H   20    0.10467      0.00000     0.39414    0.00119     0.39533
      H   21    0.09520      0.00000     0.40380    0.00100     0.40480
      H   22    0.11223      0.00000     0.38681    0.00096     0.38777
      H   23    0.10466      0.00000     0.39344    0.00190     0.39534
      H   24    0.19540      0.00000     0.30222    0.00238     0.30460
      H   25    0.10483      0.00000     0.39278    0.00239     0.39517
      H   26    0.10328      0.00000     0.39495    0.00178     0.39672
      H   27    0.09304      0.00000     0.40374    0.00321     0.40696
      H   28    0.10314      0.00000     0.39419    0.00267     0.39686
      H   29    0.10534      0.00000     0.39364    0.00102     0.39466
      H   30    0.10178      0.00000     0.39707    0.00114     0.39822
      H   31    0.18753      0.00000     0.30761    0.00486     0.31247
      H   32    0.10384      0.00000     0.39423    0.00193     0.39616
      H   33    0.10040      0.00000     0.39865    0.00095     0.39960
      H   34    0.09956      0.00000     0.39957    0.00087     0.40044
      H   35    0.09949      0.00000     0.39948    0.00103     0.40051
      H   36    0.09930      0.00000     0.39836    0.00234     0.40070
 =======================================================================
   * Total *   -0.00000     15.99380    43.80882    0.19738    60.00000

 Normal termination of Gaussian 16 at Thu Dec 10 23:58:20 2020.
