 Gaussian 16, Revision A.03,

 -----------------------------------------------------------
 # opt freq B3LYP/6-31G(d) empiricaldispersion=gd3bj scf=xqc
 -----------------------------------------------------------

 ------------------------------
 CID_55148549_JID_9657_neutraal
 ------------------------------
 Symbolic Z-matrix:
 Charge =  0 Multiplicity = 1

 SCF Done:  E(RB3LYP) =  -865.935068798     A.U. after   15 cycles
 SCF Done:  E(RB3LYP) =  -865.940492639     A.U. after   13 cycles
 SCF Done:  E(RB3LYP) =  -865.938809827     A.U. after   13 cycles
 SCF Done:  E(RB3LYP) =  -865.941827849     A.U. after   13 cycles
 SCF Done:  E(RB3LYP) =  -865.942013840     A.U. after   12 cycles
 SCF Done:  E(RB3LYP) =  -865.942617092     A.U. after   12 cycles
 SCF Done:  E(RB3LYP) =  -865.942897122     A.U. after   11 cycles
 SCF Done:  E(RB3LYP) =  -865.943069166     A.U. after   12 cycles
 SCF Done:  E(RB3LYP) =  -865.943118045     A.U. after   10 cycles
 SCF Done:  E(RB3LYP) =  -865.943148417     A.U. after   11 cycles
 SCF Done:  E(RB3LYP) =  -865.943255578     A.U. after   12 cycles
 SCF Done:  E(RB3LYP) =  -865.943269453     A.U. after   10 cycles
 SCF Done:  E(RB3LYP) =  -865.943271672     A.U. after    9 cycles
 SCF Done:  E(RB3LYP) =  -865.943271751     A.U. after    7 cycles
 SCF Done:  E(RB3LYP) =  -865.943271766     A.U. after    6 cycles
 Optimization completed.
    -- Stationary point found.
 Normal termination of Gaussian 16 at Sun Dec 13 17:11:59 2020.

 --------------------------------------------------------------------
 #N Geom=AllCheck Guess=TCheck SCRF=Check GenChk RB3LYP/6-31G(d) Freq
 --------------------------------------------------------------------

 Structure from the checkpoint file:  "JID_9657.chk"
 ------------------------------
 CID_55148549_JID_9657_neutraal
 ------------------------------
 Charge =  0 Multiplicity = 1

 SCF Done:  E(RB3LYP) =  -865.943271766     A.U. after    1 cycles

  Exact polarizability: 197.768 -13.673 157.117  -9.594 -18.267 149.982
 Approx polarizability: 275.803 -14.917 222.856 -16.832 -41.597 234.842

                      1                      2                      3
                      A                      A                      A
 Frequencies --     18.7964                25.4499                36.4693
 Red. masses --      3.1872                 4.3519                 3.8173
 Frc consts  --      0.0007                 0.0017                 0.0030
 IR Inten    --      0.2856                 0.0103                 0.0911

                      4                      5                      6
                      A                      A                      A
 Frequencies --     44.2553                51.3474                65.3704
 Red. masses --      4.1423                 3.9929                 3.1336
 Frc consts  --      0.0048                 0.0062                 0.0079
 IR Inten    --      1.1778                 0.3797                 0.2537

                      7                      8                      9
                      A                      A                      A
 Frequencies --     74.5556                92.4698               121.4909
 Red. masses --      3.0736                 3.5056                 3.5528
 Frc consts  --      0.0101                 0.0177                 0.0309
 IR Inten    --      0.6506                 0.1433                 1.8261

                     10                     11                     12
                      A                      A                      A
 Frequencies --    147.4855               172.3599               186.2582
 Red. masses --      3.1563                 3.9096                 2.8235
 Frc consts  --      0.0405                 0.0684                 0.0577
 IR Inten    --      0.8837                 0.3888                 3.9554

                     13                     14                     15
                      A                      A                      A
 Frequencies --    215.4582               224.8569               242.3727
 Red. masses --      1.7027                 1.3305                 1.4642
 Frc consts  --      0.0466                 0.0396                 0.0507
 IR Inten    --      1.6453                 0.6287                 2.1793

                     16                     17                     18
                      A                      A                      A
 Frequencies --    264.0045               277.5903               283.0458
 Red. masses --      3.3091                 2.2137                 2.1145
 Frc consts  --      0.1359                 0.1005                 0.0998
 IR Inten    --      4.4750                 1.9923                 4.1274

                     19                     20                     21
                      A                      A                      A
 Frequencies --    289.3942               335.6530               344.7402
 Red. masses --      1.3423                 3.4815                 3.3033
 Frc consts  --      0.0662                 0.2311                 0.2313
 IR Inten    --      1.4874                 7.1496                 5.1202

                     22                     23                     24
                      A                      A                      A
 Frequencies --    371.7561               387.0902               428.2212
 Red. masses --      2.3184                 3.2762                 1.8278
 Frc consts  --      0.1888                 0.2892                 0.1975
 IR Inten    --      0.9053                 2.0083                 0.7591

                     25                     26                     27
                      A                      A                      A
 Frequencies --    453.5685               475.4145               496.2043
 Red. masses --      3.1503                 4.3122                 4.5015
 Frc consts  --      0.3818                 0.5742                 0.6530
 IR Inten    --      1.7619                 2.4369                 3.7575

                     28                     29                     30
                      A                      A                      A
 Frequencies --    523.5362               550.7695               587.2294
 Red. masses --      4.6239                 4.1697                 4.3157
 Frc consts  --      0.7467                 0.7452                 0.8768
 IR Inten    --      4.4334                 0.2967                 7.3051

                     31                     32                     33
                      A                      A                      A
 Frequencies --    606.1640               626.2020               691.9279
 Red. masses --      4.7473                 4.7205                 4.2786
 Frc consts  --      1.0277                 1.0906                 1.2069
 IR Inten    --     10.0057                 0.4168                 9.0379

                     34                     35                     36
                      A                      A                      A
 Frequencies --    730.7261               767.9314               778.5150
 Red. masses --      2.1224                 1.5318                 1.7196
 Frc consts  --      0.6677                 0.5322                 0.6141
 IR Inten    --      8.6650                69.1716                36.7577

                     37                     38                     39
                      A                      A                      A
 Frequencies --    799.7075               819.1238               834.4759
 Red. masses --      4.1265                 1.1011                 3.6544
 Frc consts  --      1.5549                 0.4353                 1.4993
 IR Inten    --      9.0537                 0.5929                14.1492

                     40                     41                     42
                      A                      A                      A
 Frequencies --    845.6114               868.0186               878.8176
 Red. masses --      1.9715                 1.3821                 3.0433
 Frc consts  --      0.8306                 0.6136                 1.3848
 IR Inten    --     29.4979                 1.2221                18.3700

                     43                     44                     45
                      A                      A                      A
 Frequencies --    897.8534               934.8654               940.8471
 Red. masses --      1.6190                 1.3976                 1.2471
 Frc consts  --      0.7690                 0.7197                 0.6504
 IR Inten    --      3.3419                 1.3647                 1.6738

                     46                     47                     48
                      A                      A                      A
 Frequencies --    953.1212               957.2074               975.3703
 Red. masses --      1.7264                 3.8492                 1.2601
 Frc consts  --      0.9240                 2.0779                 0.7063
 IR Inten    --      3.7582                14.8248                 0.3646

                     49                     50                     51
                      A                      A                      A
 Frequencies --    978.3987              1004.5814              1041.8057
 Red. masses --      1.4384                 2.2483                 2.2761
 Frc consts  --      0.8113                 1.3368                 1.4555
 IR Inten    --      0.4070                11.4342                 5.4778

                     52                     53                     54
                      A                      A                      A
 Frequencies --   1068.6390              1070.1539              1077.5876
 Red. masses --      2.6292                 2.1594                 2.5866
 Frc consts  --      1.7690                 1.4570                 1.7697
 IR Inten    --     43.9851                30.7845                16.5584

                     55                     56                     57
                      A                      A                      A
 Frequencies --   1087.8959              1132.8402              1148.6543
 Red. masses --      3.2770                 2.5840                 2.2414
 Frc consts  --      2.2851                 1.9538                 1.7424
 IR Inten    --     35.7081                52.6079                21.2400

                     58                     59                     60
                      A                      A                      A
 Frequencies --   1150.9122              1174.9548              1190.7458
 Red. masses --      2.1388                 2.6211                 1.9440
 Frc consts  --      1.6692                 2.1320                 1.6240
 IR Inten    --      7.6280                40.3979                15.3177

                     61                     62                     63
                      A                      A                      A
 Frequencies --   1192.7626              1194.1568              1206.4982
 Red. masses --      1.5489                 1.0939                 1.7826
 Frc consts  --      1.2983                 0.9191                 1.5288
 IR Inten    --      4.6718                 3.0049                 3.1004

                     64                     65                     66
                      A                      A                      A
 Frequencies --   1213.0783              1245.5945              1269.0220
 Red. masses --      2.1918                 2.2656                 1.2487
 Frc consts  --      1.9004                 2.0711                 1.1848
 IR Inten    --     25.6812                62.0851                18.2816

                     67                     68                     69
                      A                      A                      A
 Frequencies --   1290.4496              1306.7413              1311.2326
 Red. masses --      1.7158                 1.1491                 1.5495
 Frc consts  --      1.6835                 1.1561                 1.5696
 IR Inten    --    142.2550                14.6172                20.1346

                     70                     71                     72
                      A                      A                      A
 Frequencies --   1319.3505              1339.0019              1348.6500
 Red. masses --      2.5185                 1.4927                 1.2997
 Frc consts  --      2.5830                 1.5768                 1.3928
 IR Inten    --    222.7487                 8.8199                 3.5960

                     73                     74                     75
                      A                      A                      A
 Frequencies --   1356.8029              1390.9069              1394.4724
 Red. masses --      3.0002                 1.3637                 1.3436
 Frc consts  --      3.2541                 1.5544                 1.5394
 IR Inten    --      0.9022                 2.1687                 9.0948

                     76                     77                     78
                      A                      A                      A
 Frequencies --   1409.0172              1416.4469              1421.6274
 Red. masses --      1.3183                 1.3921                 1.4794
 Frc consts  --      1.5421                 1.6455                 1.7615
 IR Inten    --     14.1710                 4.4565                17.0014

                     79                     80                     81
                      A                      A                      A
 Frequencies --   1430.5866              1449.5635              1453.7567
 Red. masses --      1.3069                 1.2432                 1.3670
 Frc consts  --      1.5759                 1.5391                 1.7022
 IR Inten    --      6.8974                 5.7262                 6.3853

                     82                     83                     84
                      A                      A                      A
 Frequencies --   1499.5825              1503.3455              1511.5312
 Red. masses --      1.7324                 1.2347                 1.1966
 Frc consts  --      2.2953                 1.6441                 1.6108
 IR Inten    --     12.1962                 4.0061                16.6098

                     85                     86                     87
                      A                      A                      A
 Frequencies --   1514.9548              1518.3882              1518.7331
 Red. masses --      1.1055                 1.0420                 1.0550
 Frc consts  --      1.4948                 1.4154                 1.4337
 IR Inten    --      4.4747                 5.5268                 2.7122

                     88                     89                     90
                      A                      A                      A
 Frequencies --   1524.8471              1525.9061              1530.6880
 Red. masses --      1.0989                 1.0799                 1.1543
 Frc consts  --      1.5055                 1.4815                 1.5935
 IR Inten    --     16.7390                14.9762                14.9684

                     91                     92                     93
                      A                      A                      A
 Frequencies --   1535.8996              1540.8446              1543.9156
 Red. masses --      1.0806                 1.1758                 1.4889
 Frc consts  --      1.5019                 1.6447                 2.0911
 IR Inten    --      6.1123                 4.6961                37.7424

                     94                     95                     96
                      A                      A                      A
 Frequencies --   1546.1965              1647.7585              1663.6735
 Red. masses --      1.1893                 6.1737                 6.1603
 Frc consts  --      1.6752                 9.8761                10.0458
 IR Inten    --     15.9890                13.6253                 7.6495

                     97                     98                     99
                      A                      A                      A
 Frequencies --   1830.9991              2966.2053              3023.4417
 Red. masses --     11.7803                 1.0744                 1.0632
 Frc consts  --     23.2693                 5.5693                 5.7264
 IR Inten    --    233.1693                42.2814                17.8226

                    100                    101                    102
                      A                      A                      A
 Frequencies --   3029.0648              3034.9179              3040.6493
 Red. masses --      1.0759                 1.0366                 1.0399
 Frc consts  --      5.8160                 5.6253                 5.6649
 IR Inten    --     19.6748                34.4904                37.6133

                    103                    104                    105
                      A                      A                      A
 Frequencies --   3060.8020              3067.7012              3073.2958
 Red. masses --      1.0364                 1.1039                 1.0582
 Frc consts  --      5.7209                 6.1210                 5.8890
 IR Inten    --     18.5550                35.3712                31.1044

                    106                    107                    108
                      A                      A                      A
 Frequencies --   3077.3482              3096.2420              3098.0403
 Red. masses --      1.0586                 1.0853                 1.1000
 Frc consts  --      5.9067                 6.1302                 6.2206
 IR Inten    --     22.5287                 3.9089                19.5279

                    109                    110                    111
                      A                      A                      A
 Frequencies --   3103.4490              3109.6984              3113.0162
 Red. masses --      1.1003                 1.1026                 1.1012
 Frc consts  --      6.2437                 6.2820                 6.2874
 IR Inten    --     74.7040                14.0232                64.6180

                    112                    113                    114
                      A                      A                      A
 Frequencies --   3117.1083              3117.6488              3132.4606
 Red. masses --      1.1067                 1.1064                 1.1025
 Frc consts  --      6.3354                 6.3358                 6.3741
 IR Inten    --      5.8395                13.4058                28.5816

                    115                    116                    117
                      A                      A                      A
 Frequencies --   3146.0051              3187.4860              3201.8786
 Red. masses --      1.1052                 1.0855                 1.0906
 Frc consts  --      6.4450                 6.4981                 6.5879
 IR Inten    --     22.1143                 1.3880                23.8646

                    118                    119                    120
                      A                      A                      A
 Frequencies --   3214.5586              3221.3195              3495.6566
 Red. masses --      1.0932                 1.0936                 1.0735
 Frc consts  --      6.6556                 6.6861                 7.7287
 IR Inten    --     19.0495                 9.0207                 0.3332

 - Thermochemistry -
 -------------------
 Temperature   298.150 Kelvin.  Pressure   1.00000 Atm.
 Atom     1 has atomic number  6 and mass  12.00000

 Molecular mass:   265.16779 amu.
 Principal axes and moments of inertia in atomic units:
                           1         2         3
     Eigenvalues --  3706.744907711.225219073.57094
           X            0.99988  -0.01354   0.00780
           Y            0.01338   0.99973   0.01911
           Z           -0.00806  -0.01900   0.99979
 This molecule is an asymmetric top.
 Rotational symmetry number  1.
 Warning -- assumption of classical behavior for rotation
           may cause significant error
 Rotational temperatures (Kelvin)      0.02337     0.01123     0.00955
 Rotational constants (GHZ):           0.48688     0.23404     0.19890
 Zero-point vibrational energy     959798.9 (Joules/Mol)
                                  229.39744 (Kcal/Mol)
 Warning -- explicit consideration of  31 degrees of freedom as
           vibrations may cause significant error
 Vibrational temperatures:     27.04    36.62    52.47    63.67    73.88
          (Kelvin)             94.05   107.27   133.04   174.80   212.20
                              247.99   267.98   310.00   323.52   348.72
                              379.84   399.39   407.24   416.37   482.93
                              496.00   534.87   556.94   616.11   652.58
                              684.02   713.93   753.25   792.43   844.89
                              872.13   900.97   995.53  1051.35  1104.88
                             1120.11  1150.60  1178.54  1200.62  1216.65
                             1248.89  1264.42  1291.81  1345.06  1353.67
                             1371.33  1377.21  1403.34  1407.70  1445.37
                             1498.93  1537.53  1539.71  1550.41  1565.24
                             1629.90  1652.66  1655.91  1690.50  1713.22
                             1716.12  1718.13  1735.88  1745.35  1792.13
                             1825.84  1856.67  1880.11  1886.57  1898.25
                             1926.53  1940.41  1952.14  2001.20  2006.33
                             2027.26  2037.95  2045.40  2058.30  2085.60
                             2091.63  2157.56  2162.98  2174.76  2179.68
                             2184.62  2185.12  2193.91  2195.44  2202.32
                             2209.82  2216.93  2221.35  2224.63  2370.76
                             2393.66  2634.40  4267.71  4350.06  4358.15
                             4366.57  4374.82  4403.81  4413.74  4421.79
                             4427.62  4454.80  4457.39  4465.17  4474.16
                             4478.94  4484.82  4485.60  4506.91  4526.40
                             4586.08  4606.79  4625.03  4634.76  5029.47

 Zero-point correction=                           0.365568 (Hartree/Particle)
 Thermal correction to Energy=                    0.385904
 Thermal correction to Enthalpy=                  0.386848
 Thermal correction to Gibbs Free Energy=         0.314015
 Sum of electronic and zero-point Energies=           -865.577704
 Sum of electronic and thermal Energies=              -865.557368
 Sum of electronic and thermal Enthalpies=            -865.556424
 Sum of electronic and thermal Free Energies=         -865.629257

                     E (Thermal)             CV                S
                      KCal/Mol        Cal/Mol-Kelvin    Cal/Mol-Kelvin
 Total                  242.158             75.100            153.290
 Electronic               0.000              0.000              0.000
 Translational            0.889              2.981             42.625
 Rotational               0.889              2.981             33.916
 Vibrational            240.381             69.138             76.749
 Vibration     1          0.593              1.986              6.757
 Vibration     2          0.593              1.985              6.156
 Vibration     3          0.594              1.982              5.442
 Vibration     4          0.595              1.980              5.059
 Vibration     5          0.596              1.977              4.765
 Vibration     6          0.597              1.971              4.288
 Vibration     7          0.599              1.966              4.029
 Vibration     8          0.602              1.955              3.607
 Vibration     9          0.609              1.931              3.077
 Vibration    10          0.617              1.905              2.704
 Vibration    11          0.626              1.876              2.410
 Vibration    12          0.632              1.859              2.265
 Vibration    13          0.645              1.817              1.997
 Vibration    14          0.650              1.803              1.920
 Vibration    15          0.659              1.775              1.785
 Vibration    16          0.671              1.739              1.635
 Vibration    17          0.679              1.715              1.548
 Vibration    18          0.682              1.705              1.515
 Vibration    19          0.686              1.693              1.478
 Vibration    20          0.717              1.604              1.233
 Vibration    21          0.723              1.586              1.190
 Vibration    22          0.743              1.530              1.073
 Vibration    23          0.756              1.498              1.011
 Vibration    24          0.790              1.409              0.864
 Vibration    25          0.812              1.353              0.785
 Vibration    26          0.832              1.305              0.723
 Vibration    27          0.852              1.258              0.668
 Vibration    28          0.878              1.198              0.602
 Vibration    29          0.906              1.138              0.543
 Vibration    30          0.944              1.059              0.472
 Vibration    31          0.965              1.019              0.439

                           ! Non-Optimized Parameters !
 Normal termination of Gaussian 16 at Sun Dec 13 17:35:11 2020.

 ----------------------------------------------------------------------
 # B3LYP/6-311++G(d,p) empiricaldispersion=gd3bj scf=xqc pop=npa geom=c
 heck
 ----------------------------------------------------------------------

 --------------------------------------
 CID_55148549_JID_9657_Energie_neutraal
 --------------------------------------
 Structure from the checkpoint file:  "JID_9657.chk"
 Charge =  0 Multiplicity = 1

 SCF Done:  E(RB3LYP) =  -866.189379737     A.U. after   16 cycles
 Normal termination of Gaussian 16 at Sun Dec 13 17:46:43 2020.

 ----------------------------------------------------------------------
 # B3LYP/6-311++G(d,p) empiricaldispersion=gd3bj scf=xqc pop=npa geom=c
 heck
 ----------------------------------------------------------------------

 ------------------------------------
 CID_55148549_JID_9657_Energie_kation
 ------------------------------------
 Structure from the checkpoint file:  "JID_9657.chk"
 Charge =  1 Multiplicity = 2

 SCF Done:  E(UB3LYP) =  -865.902651210     A.U. after   24 cycles
 Normal termination of Gaussian 16 at Sun Dec 13 18:11:11 2020.
 Gaussian 16:  ES64L-G16RevA.03 25-Dec-2016

 ----------------------------------------------------------------------
 # B3LYP/6-311++G(d,p) empiricaldispersion=gd3bj scf=xqc pop=npa geom=c
 heck
 ----------------------------------------------------------------------

 -----------------------------------
 CID_55148549_JID_9657_Energie_anion
 -----------------------------------
 Structure from the checkpoint file:  "JID_9657.chk"
 Charge = -1 Multiplicity = 2

                         Standard orientation:
 ---------------------------------------------------------------------
 Center     Atomic      Atomic             Coordinates (Angstroms)
 Number     Number       Type             X           Y           Z
 ---------------------------------------------------------------------
      1          6           0        0.336936    2.069835    2.175693
      2          6           0        1.635476    2.276623    1.420424
      3          8           0        1.452094    1.715107    0.099658
      4          6           0        2.544970    1.614736   -0.669698
      5          8           0        3.627803    2.087597   -0.405170
      6          6           0        2.257028    0.833696   -1.952163
      7          8           0        1.234106   -0.135881   -1.814099
      8          6           0        1.403966   -1.056097   -0.792287
      9          6           0        2.612882   -1.714123   -0.575590
     10          6           0        2.720821   -2.628404    0.475123
     11          6           0        1.627060   -2.869873    1.301983
     12          6           0        0.422192   -2.198783    1.075423
     13          6           0        0.288089   -1.288922    0.026592
     14          6           0       -0.987121   -0.519953   -0.238994
     15          7           0       -2.009006   -0.760729    0.773316
     16          6           0       -3.107713    0.201377    0.758176
     17          6           0       -3.924501    0.331831   -0.545392
     18          6           0       -4.529185   -1.010964   -0.967987
     19          6           0       -5.010950    1.398518   -0.371017
     20          1           0        0.077948    1.007664    2.223877
     21          1           0       -0.486060    2.603163    1.688533
     22          1           0        0.436720    2.453872    3.196610
     23          1           0        1.898130    3.334456    1.319348
     24          1           0        2.477138    1.764875    1.896098
     25          1           0        1.906294    1.529247   -2.721535
     26          1           0        3.206547    0.406774   -2.292230
     27          1           0        3.464253   -1.520379   -1.219683
     28          1           0        3.662635   -3.142970    0.642548
     29          1           0        1.709438   -3.570455    2.127881
     30          1           0       -0.421386   -2.348106    1.740573
     31          1           0       -0.746479    0.548185   -0.230293
     32          1           0       -1.324042   -0.734398   -1.268043
     33          1           0       -2.378896   -1.703679    0.671703
     34          1           0       -3.790640   -0.068192    1.576024
     35          1           0       -2.686602    1.183552    1.012634
     36          1           0       -3.245089    0.667029   -1.341823
     37          1           0       -5.206166   -1.395020   -0.193195
     38          1           0       -5.106635   -0.910928   -1.893769
     39          1           0       -3.755770   -1.767601   -1.143835
     40          1           0       -4.578981    2.365489   -0.086572
     41          1           0       -5.579525    1.543662   -1.296509
     42          1           0       -5.721515    1.107299    0.413619
 ---------------------------------------------------------------------

 SCF Done:  E(UB3LYP) =  -866.176672310     A.U. after   33 cycles
 SCF Done:  E(UB3LYP) =  -866.176672309     a.u. after    1 cycles

 The electronic state is 2-A.
 Alpha  occ. eigenvalues --  -19.08203 -19.06533 -19.02919 -14.20478 -10.21643
 Alpha  occ. eigenvalues --  -10.15492 -10.14385 -10.14088 -10.10006 -10.09483
 Alpha  occ. eigenvalues --  -10.09114 -10.09076 -10.09014 -10.08548 -10.08385
 Alpha  occ. eigenvalues --  -10.07752 -10.07439 -10.06646 -10.06455  -1.02659
 Alpha  occ. eigenvalues --   -0.98024  -0.93904  -0.81781  -0.76936  -0.70576
 Alpha  occ. eigenvalues --   -0.69895  -0.67824  -0.66623  -0.63284  -0.59734
 Alpha  occ. eigenvalues --   -0.59264  -0.56174  -0.55315  -0.51752  -0.50401
 Alpha  occ. eigenvalues --   -0.48645  -0.46868  -0.45777  -0.42158  -0.41873
 Alpha  occ. eigenvalues --   -0.40763  -0.39794  -0.39416  -0.38116  -0.37254
 Alpha  occ. eigenvalues --   -0.36133  -0.35458  -0.34807  -0.34719  -0.33080
 Alpha  occ. eigenvalues --   -0.32344  -0.32084  -0.31291  -0.30656  -0.29965
 Alpha  occ. eigenvalues --   -0.29385  -0.28899  -0.28064  -0.27669  -0.27316
 Alpha  occ. eigenvalues --   -0.26412  -0.26216  -0.25820  -0.25404  -0.24179
 Alpha  occ. eigenvalues --   -0.23304  -0.22365  -0.22033  -0.19686  -0.16572
 Alpha  occ. eigenvalues --   -0.14740  -0.13274   0.04094
 Alpha virt. eigenvalues --    0.05903   0.05984   0.06516   0.06672   0.07326
 Alpha virt. eigenvalues --    0.07859   0.07927   0.08144   0.08576   0.09011
 Alpha virt. eigenvalues --    0.09268   0.09935   0.10382   0.10625   0.11013

  Beta  occ. eigenvalues --  -19.08194 -19.06532 -19.02894 -14.20469 -10.21601
  Beta  occ. eigenvalues --  -10.15476 -10.14384 -10.14074 -10.10000 -10.09468
  Beta  occ. eigenvalues --  -10.09101 -10.09062 -10.09005 -10.08540 -10.08378
  Beta  occ. eigenvalues --  -10.07745 -10.07411 -10.06616 -10.06425  -1.02618
  Beta  occ. eigenvalues --   -0.98018  -0.93865  -0.81763  -0.76914  -0.70548
  Beta  occ. eigenvalues --   -0.69853  -0.67794  -0.66599  -0.63240  -0.59695
  Beta  occ. eigenvalues --   -0.59210  -0.56125  -0.55267  -0.51718  -0.50366
  Beta  occ. eigenvalues --   -0.48595  -0.46811  -0.45751  -0.42081  -0.41841
  Beta  occ. eigenvalues --   -0.40733  -0.39765  -0.39380  -0.38077  -0.37213
  Beta  occ. eigenvalues --   -0.36098  -0.35431  -0.34776  -0.34689  -0.33041
  Beta  occ. eigenvalues --   -0.32317  -0.32017  -0.31253  -0.30621  -0.29929
  Beta  occ. eigenvalues --   -0.29354  -0.28873  -0.28034  -0.27643  -0.27254
  Beta  occ. eigenvalues --   -0.26377  -0.26184  -0.25788  -0.25375  -0.24143
  Beta  occ. eigenvalues --   -0.23266  -0.22301  -0.22018  -0.19658  -0.16521
  Beta  occ. eigenvalues --   -0.14697  -0.13255
  Beta virt. eigenvalues --    0.05858   0.06345   0.06602   0.06938   0.07110
  Beta virt. eigenvalues --    0.07570   0.08027   0.08160   0.08507   0.08845
  Beta virt. eigenvalues --    0.09412   0.09552   0.10196   0.10606   0.10855

 Mulliken charges and spin densities:
               1          2
     1  C   -0.033536  -0.656679
     2  C    0.324780  -0.290388
     3  O    0.019378   0.013338
     4  C    0.170429  -0.071302
     5  O   -0.256644   0.022359
     6  C   -0.128824  -0.314504
     7  O    0.007846  -0.023075
     8  C   -1.261054   1.048227
     9  C    0.219303   0.004455
    10  C    0.639755  -0.973373
    11  C   -0.425779  -0.073040
    12  C    0.232818  -0.510809
    13  C   -0.033002   0.190235
    14  C   -0.075403  -0.477847
    15  N   -0.065382   0.099985
    16  C    0.620006  -1.019732
    17  C   -1.006154   1.480145
    18  C    0.493800  -1.120496
    19  C    0.113594  -0.713230
    20  H    0.270042  -0.104789
    21  H   -0.260183   0.445503
    22  H   -0.299881   0.452524
    23  H   -0.048531   0.225900
    24  H    0.043335   0.128070
    25  H   -0.466031   0.659664
    26  H    0.159070   0.041981
    27  H   -0.001297   0.148528
    28  H    0.030828   0.121550
    29  H   -0.155370   0.318845
    30  H    0.008661   0.152285
    31  H    0.443722  -0.165434
    32  H    0.135453   0.060430
    33  H    0.125146   0.115933
    34  H   -0.177600   0.353599
    35  H    0.659394  -0.575779
    36  H   -0.020178   0.171677
    37  H   -0.054327   0.200112
    38  H   -0.281510   0.424113
    39  H   -0.090363   0.225751
    40  H   -0.386797   0.527813
    41  H   -0.202206   0.345367
    42  H    0.012692   0.112087
 Sum of Mulliken charges =  -1.00000   1.00000

 Dipole moment (field-independent basis, Debye):
    X=              4.3110    Y=             -3.3959    Z=              0.6428  Tot=              5.5254
 Quadrupole moment (field-independent basis, Debye-Ang):
   XX=           -204.3311   YY=           -169.5535   ZZ=           -158.2974
   XY=             -1.4787   XZ=             -7.1263   YZ=              0.7205

 Summary of Natural Population Analysis:

                                       Natural Population
                Natural  -----------------------------------------------
    Atom  No    Charge         Core      Valence    Rydberg      Total
 -----------------------------------------------------------------------
      C    1   -0.29749      0.99966     2.29208    0.00576     3.29749
      C    2   -0.01408      0.99958     2.00329    0.01121     3.01408
      O    3   -0.27971      0.99985     3.26896    0.01090     4.27971
      C    4    0.40135      0.99970     1.57385    0.02510     2.59865
      O    5   -0.30276      0.99987     3.29742    0.00547     4.30276
      C    6   -0.05210      0.99952     2.03983    0.01274     3.05210
      O    7   -0.28111      0.99986     3.27143    0.00982     4.28111
      C    8    0.15579      0.99932     1.83098    0.01392     2.84421
      C    9   -0.13143      0.99950     2.12401    0.00791     3.13143
      C   10   -0.09851      0.99957     2.08941    0.00953     3.09851
      C   11   -0.10843      0.99956     2.09962    0.00925     3.10843
      C   12   -0.09899      0.99952     2.08909    0.01039     3.09899
      C   13   -0.02446      0.99945     2.01445    0.01056     3.02446
      C   14   -0.10196      0.99957     2.09127    0.01111     3.10196
      N   15   -0.33913      0.99975     2.82782    0.01156     3.83913
      C   16   -0.07986      0.99960     2.06966    0.01060     3.07986
      C   17   -0.12820      0.99961     2.11789    0.01070     3.12820
      C   18   -0.28689      0.99965     2.28147    0.00577     3.28689
      C   19   -0.28221      0.99965     2.27741    0.00515     3.28221
      H   20    0.10841      0.00000     0.38982    0.00177     0.39159
      H   21    0.10291      0.00000     0.39556    0.00153     0.39709
      H   22    0.10187      0.00000     0.39714    0.00099     0.39813
      H   23    0.09024      0.00000     0.40866    0.00110     0.40976
      H   24    0.09180      0.00000     0.40709    0.00112     0.40820
      H   25    0.10956      0.00000     0.38840    0.00205     0.39044
      H   26    0.09236      0.00000     0.40647    0.00118     0.40764
      H   27    0.10343      0.00000     0.39549    0.00108     0.39657
      H   28    0.09902      0.00000     0.40019    0.00079     0.40098
      H   29    0.09963      0.00000     0.39956    0.00082     0.40037
      H   30    0.10839      0.00000     0.39015    0.00146     0.39161
      H   31    0.11078      0.00000     0.38638    0.00284     0.38922
      H   32    0.09173      0.00000     0.40645    0.00183     0.40827
      H   33    0.17082      0.00000     0.32612    0.00306     0.32918
      H   34    0.09095      0.00000     0.40790    0.00115     0.40905
      H   35    0.09386      0.00000     0.40443    0.00172     0.40614
      H   36    0.09437      0.00000     0.40352    0.00211     0.40563
      H   37    0.09555      0.00000     0.40325    0.00120     0.40445
      H   38    0.10132      0.00000     0.39760    0.00108     0.39868
      H   39    0.09752      0.00000     0.40132    0.00116     0.40248
      H   40    0.10110      0.00000     0.39753    0.00137     0.39890
      H   41    0.09982      0.00000     0.39903    0.00115     0.40018
      H   42    0.09477      0.00000     0.40403    0.00120     0.40523
 =======================================================================
   * Total *    0.00000     18.99280    52.77601    0.23119    72.00000

 Normal termination of Gaussian 16 at Sun Dec 13 18:45:31 2020.
