 Gaussian 16, Revision A.03,

 -----------------------------------------------------------
 # opt freq B3LYP/6-31G(d) empiricaldispersion=gd3bj scf=xqc
 -----------------------------------------------------------

 ------------------------------
 CID_17901899_JID_6412_neutraal
 ------------------------------
 Symbolic Z-matrix:
 Charge =  0 Multiplicity = 1

 SCF Done:  E(RB3LYP) =  -731.733875623     A.U. after   14 cycles
 SCF Done:  E(RB3LYP) =  -731.739227954     A.U. after   12 cycles
 SCF Done:  E(RB3LYP) =  -731.739438859     A.U. after   12 cycles
 SCF Done:  E(RB3LYP) =  -731.740162246     A.U. after   12 cycles
 SCF Done:  E(RB3LYP) =  -731.741196587     A.U. after   12 cycles
 SCF Done:  E(RB3LYP) =  -731.741605386     A.U. after   11 cycles
 SCF Done:  E(RB3LYP) =  -731.741834855     A.U. after   12 cycles
 SCF Done:  E(RB3LYP) =  -731.741895996     A.U. after   11 cycles
 SCF Done:  E(RB3LYP) =  -731.741905628     A.U. after   10 cycles
 SCF Done:  E(RB3LYP) =  -731.741921975     A.U. after   10 cycles
 SCF Done:  E(RB3LYP) =  -731.741931122     A.U. after    9 cycles
 SCF Done:  E(RB3LYP) =  -731.741932582     A.U. after    8 cycles
 SCF Done:  E(RB3LYP) =  -731.741934348     A.U. after    8 cycles
 SCF Done:  E(RB3LYP) =  -731.741935072     A.U. after    7 cycles
 SCF Done:  E(RB3LYP) =  -731.741935293     A.U. after    7 cycles
 SCF Done:  E(RB3LYP) =  -731.741935345     A.U. after    7 cycles
 Optimization completed.
    -- Stationary point found.
 Normal termination of Gaussian 16 at Thu Dec 10 22:46:54 2020.

 --------------------------------------------------------------------
 #N Geom=AllCheck Guess=TCheck SCRF=Check GenChk RB3LYP/6-31G(d) Freq
 --------------------------------------------------------------------

 Structure from the checkpoint file:  "JID_6412.chk"
 ------------------------------
 CID_17901899_JID_6412_neutraal
 ------------------------------
 Charge =  0 Multiplicity = 1

 SCF Done:  E(RB3LYP) =  -731.741935345     A.U. after    1 cycles

  Exact polarizability: 169.925   0.843 140.908   2.444  -1.060 122.578
 Approx polarizability: 202.571  -1.569 196.960   7.061 -10.343 192.084

                      1                      2                      3
                      A                      A                      A
 Frequencies --     29.7473                42.2610                49.4115
 Red. masses --      3.9965                 2.6165                 3.1516
 Frc consts  --      0.0021                 0.0028                 0.0045
 IR Inten    --      0.4053                 0.1280                 0.1324

                      4                      5                      6
                      A                      A                      A
 Frequencies --     54.5524                78.6647               102.7327
 Red. masses --      3.3570                 3.1179                 4.8542
 Frc consts  --      0.0059                 0.0114                 0.0302
 IR Inten    --      0.0664                 0.9609                 1.1940

                      7                      8                      9
                      A                      A                      A
 Frequencies --    104.9270               130.3189               137.5951
 Red. masses --      1.8048                 2.8196                 2.8707
 Frc consts  --      0.0117                 0.0282                 0.0320
 IR Inten    --      0.0167                 1.0415                 0.4257

                     10                     11                     12
                      A                      A                      A
 Frequencies --    180.5304               203.6290               219.0091
 Red. masses --      3.6874                 2.5090                 1.6321
 Frc consts  --      0.0708                 0.0613                 0.0461
 IR Inten    --      2.1436                 1.3629                 1.2064

                     13                     14                     15
                      A                      A                      A
 Frequencies --    249.5228               259.6534               260.9316
 Red. masses --      1.3563                 1.5016                 1.2231
 Frc consts  --      0.0498                 0.0596                 0.0491
 IR Inten    --      1.0166                 1.9123                 1.8303

                     16                     17                     18
                      A                      A                      A
 Frequencies --    284.1488               309.7518               338.8458
 Red. masses --      2.5386                 1.7191                 2.7067
 Frc consts  --      0.1208                 0.0972                 0.1831
 IR Inten    --      1.0655                 3.1790                 2.8065

                     19                     20                     21
                      A                      A                      A
 Frequencies --    362.5187               384.2232               410.0198
 Red. masses --      2.5966                 2.2681                 3.5947
 Frc consts  --      0.2011                 0.1973                 0.3561
 IR Inten    --     20.1668                 5.7509                13.0573

                     22                     23                     24
                      A                      A                      A
 Frequencies --    434.6156               438.5369               479.4996
 Red. masses --      2.6063                 2.5045                 2.9416
 Frc consts  --      0.2901                 0.2838                 0.3985
 IR Inten    --      1.1512                 2.2400                 4.9064

                     25                     26                     27
                      A                      A                      A
 Frequencies --    512.5818               523.7161               653.3671
 Red. masses --      2.3054                 2.3488                 2.6345
 Frc consts  --      0.3569                 0.3796                 0.6626
 IR Inten    --      3.2955                 4.9237                 1.8042

                     28                     29                     30
                      A                      A                      A
 Frequencies --    685.1736               737.9225               769.3502
 Red. masses --      2.1221                 6.3816                 1.8946
 Frc consts  --      0.5870                 2.0474                 0.6607
 IR Inten    --      7.4844                 6.1751                17.6667

                     31                     32                     33
                      A                      A                      A
 Frequencies --    786.2431               794.3737               828.5117
 Red. masses --      1.6243                 2.2125                 1.7637
 Frc consts  --      0.5916                 0.8226                 0.7133
 IR Inten    --     34.6889                 3.7912                 2.9468

                     34                     35                     36
                      A                      A                      A
 Frequencies --    838.8728               845.4569               877.9853
 Red. masses --      1.8787                 1.8963                 2.7559
 Frc consts  --      0.7789                 0.7986                 1.2516
 IR Inten    --      9.7837                34.8236                10.1244

                     37                     38                     39
                      A                      A                      A
 Frequencies --    898.5994               915.3594               953.7996
 Red. masses --      2.6539                 2.5426                 2.3609
 Frc consts  --      1.2626                 1.2552                 1.2655
 IR Inten    --      0.0707                 2.0462                 4.5838

                     40                     41                     42
                      A                      A                      A
 Frequencies --    969.1459               975.5636              1014.1564
 Red. masses --      2.1528                 2.1810                 2.1943
 Frc consts  --      1.1913                 1.2230                 1.3297
 IR Inten    --     11.3139                 1.6850                17.2440

                     43                     44                     45
                      A                      A                      A
 Frequencies --   1039.1768              1058.4526              1059.5852
 Red. masses --      2.6617                 2.5376                 1.9900
 Frc consts  --      1.6935                 1.6750                 1.3164
 IR Inten    --      1.6568                23.2921                38.3639

                     46                     47                     48
                      A                      A                      A
 Frequencies --   1074.4297              1079.7965              1080.4404
 Red. masses --      2.0584                 2.1664                 1.8211
 Frc consts  --      1.4001                 1.4883                 1.2525
 IR Inten    --     68.7783                14.1225                23.5627

                     49                     50                     51
                      A                      A                      A
 Frequencies --   1103.5134              1132.2667              1136.7074
 Red. masses --      2.2008                 1.9523                 1.3459
 Frc consts  --      1.5790                 1.4747                 1.0246
 IR Inten    --      2.7070                29.6571                 0.3594

                     52                     53                     54
                      A                      A                      A
 Frequencies --   1139.8563              1178.7815              1200.1041
 Red. masses --      1.9603                 2.1922                 1.6576
 Frc consts  --      1.5006                 1.7947                 1.4066
 IR Inten    --     31.9402                16.0961                66.6096

                     55                     56                     57
                      A                      A                      A
 Frequencies --   1207.8950              1217.7820              1226.2747
 Red. masses --      1.7296                 1.8936                 1.9713
 Frc consts  --      1.4868                 1.6545                 1.7466
 IR Inten    --     15.5112               197.1630                 9.6726

                     58                     59                     60
                      A                      A                      A
 Frequencies --   1239.8721              1267.8036              1275.1528
 Red. masses --      1.3944                 2.1441                 1.2258
 Frc consts  --      1.2629                 2.0305                 1.1743
 IR Inten    --      0.9200               154.1039                17.1948

                     61                     62                     63
                      A                      A                      A
 Frequencies --   1296.9923              1314.1609              1325.8927
 Red. masses --      1.9431                 1.9633                 1.4754
 Frc consts  --      1.9259                 1.9977                 1.5282
 IR Inten    --     27.4336                17.1706                 3.8241

                     64                     65                     66
                      A                      A                      A
 Frequencies --   1335.4791              1341.9536              1357.6562
 Red. masses --      1.3723                 1.1273                 1.3539
 Frc consts  --      1.4420                 1.1961                 1.4704
 IR Inten    --      5.0582                12.2901                 0.3075

                     67                     68                     69
                      A                      A                      A
 Frequencies --   1361.3321              1369.5530              1375.0039
 Red. masses --      1.3621                 1.3077                 1.4728
 Frc consts  --      1.4872                 1.4451                 1.6406
 IR Inten    --      8.5098                12.3694                 5.2096

                     70                     71                     72
                      A                      A                      A
 Frequencies --   1417.9062              1420.6361              1428.6100
 Red. masses --      1.2721                 1.2902                 1.4093
 Frc consts  --      1.5068                 1.5341                 1.6947
 IR Inten    --      2.6506                17.2369                 8.5301

                     73                     74                     75
                      A                      A                      A
 Frequencies --   1443.0138              1465.6226              1492.3226
 Red. masses --      1.3173                 1.1537                 1.1589
 Frc consts  --      1.6161                 1.4601                 1.5206
 IR Inten    --     12.1970                 9.0704                 0.3774

                     76                     77                     78
                      A                      A                      A
 Frequencies --   1504.7444              1508.7039              1511.0640
 Red. masses --      1.1158                 1.0748                 1.0710
 Frc consts  --      1.4886                 1.4415                 1.4408
 IR Inten    --      2.8583                 5.5970                 5.0880

                     79                     80                     81
                      A                      A                      A
 Frequencies --   1515.0160              1515.8062              1518.4568
 Red. masses --      1.0829                 1.0535                 1.0893
 Frc consts  --      1.4645                 1.4262                 1.4798
 IR Inten    --      7.8281                 8.1544                13.1240

                     82                     83                     84
                      A                      A                      A
 Frequencies --   1518.9044              1526.9880              1529.8172
 Red. masses --      1.0805                 1.0935                 1.0976
 Frc consts  --      1.4687                 1.5023                 1.5134
 IR Inten    --      1.3520                 5.0795                 9.3064

                     85                     86                     87
                      A                      A                      A
 Frequencies --   1532.5864              1534.2968              1538.2258
 Red. masses --      1.1288                 1.0650                 1.0561
 Frc consts  --      1.5621                 1.4771                 1.4723
 IR Inten    --     12.2589                 3.9967                 5.9978

                     88                     89                     90
                      A                      A                      A
 Frequencies --   1546.2606              1554.1752              1800.4619
 Red. masses --      1.0710                 1.0971                11.6358
 Frc consts  --      1.5087                 1.5613                22.2236
 IR Inten    --     12.3020                 3.3238               176.6546

                     91                     92                     93
                      A                      A                      A
 Frequencies --   2912.6581              2925.0932              2948.2416
 Red. masses --      1.0632                 1.0635                 1.0704
 Frc consts  --      5.3141                 5.3612                 5.4816
 IR Inten    --     50.9023                95.4669               113.1681

                     94                     95                     96
                      A                      A                      A
 Frequencies --   3014.9566              3061.7565              3063.5589
 Red. masses --      1.0701                 1.0363                 1.0874
 Frc consts  --      5.7309                 5.7239                 6.0129
 IR Inten    --     35.3732                15.3871                36.3936

                     97                     98                     99
                      A                      A                      A
 Frequencies --   3065.4606              3072.2815              3072.7637
 Red. masses --      1.0597                 1.0620                 1.0699
 Frc consts  --      5.8673                 5.9059                 5.9521
 IR Inten    --     15.0668                39.5776                43.0480

                    100                    101                    102
                      A                      A                      A
 Frequencies --   3080.0498              3082.4913              3094.1457
 Red. masses --      1.0743                 1.0619                 1.0588
 Frc consts  --      6.0049                 5.9446                 5.9724
 IR Inten    --     69.2224                56.3240                28.1911

                    103                    104                    105
                      A                      A                      A
 Frequencies --   3096.3227              3102.1406              3103.1204
 Red. masses --      1.0638                 1.0952                 1.1012
 Frc consts  --      6.0091                 6.2099                 6.2477
 IR Inten    --      9.0239                23.2083                17.0009

                    106                    107                    108
                      A                      A                      A
 Frequencies --   3113.4110              3117.4256              3127.5552
 Red. masses --      1.1045                 1.1039                 1.1018
 Frc consts  --      6.3082                 6.3206                 6.3500
 IR Inten    --      1.0141                39.0108                26.5095

                    109                    110                    111
                      A                      A                      A
 Frequencies --   3128.9363              3140.3868              3140.8852
 Red. masses --      1.1050                 1.1045                 1.1045
 Frc consts  --      6.3741                 6.4178                 6.4200
 IR Inten    --     29.5560                11.1552                47.8761

                    112                    113                    114
                      A                      A                      A
 Frequencies --   3159.9595              3172.9091              3526.4115
 Red. masses --      1.1073                 1.0966                 1.0740
 Frc consts  --      6.5142                 6.5045                 7.8693
 IR Inten    --     28.3330                 2.4809                 2.3635

 - Thermochemistry -
 -------------------
 Temperature   298.150 Kelvin.  Pressure   1.00000 Atm.
 Atom     1 has atomic number  6 and mass  12.00000

 Molecular mass:   228.18378 amu.
 Principal axes and moments of inertia in atomic units:
                           1         2         3
     Eigenvalues --  2122.553046202.721867289.40672
           X            0.99999   0.00511   0.00181
           Y           -0.00516   0.99970   0.02385
           Z           -0.00168  -0.02386   0.99971
 This molecule is an asymmetric top.
 Rotational symmetry number  1.
 Warning -- assumption of classical behavior for rotation
           may cause significant error
 Rotational temperatures (Kelvin)      0.04081     0.01396     0.01188
 Rotational constants (GHZ):           0.85027     0.29096     0.24758
 Zero-point vibrational energy     951439.6 (Joules/Mol)
                                  227.39952 (Kcal/Mol)
 Warning -- explicit consideration of  26 degrees of freedom as
           vibrations may cause significant error
 Vibrational temperatures:     42.80    60.80    71.09    78.49   113.18
          (Kelvin)            147.81   150.97   187.50   197.97   259.74
                              292.98   315.11   359.01   373.58   375.42
                              408.83   445.66   487.52   521.58   552.81
                              589.93   625.31   630.96   689.89   737.49
                              753.51   940.05   985.81  1061.71  1106.92
                             1131.23  1142.93  1192.04  1206.95  1216.42
                             1263.23  1292.88  1317.00  1372.30  1394.38
                             1403.62  1459.14  1495.14  1522.88  1524.51
                             1545.86  1553.59  1554.51  1587.71  1629.08
                             1635.47  1640.00  1696.00  1726.68  1737.89
                             1752.12  1764.34  1783.90  1824.09  1834.66
                             1866.08  1890.78  1907.66  1921.46  1930.77
                             1953.36  1958.65  1970.48  1978.32  2040.05
                             2043.98  2055.45  2076.18  2108.70  2147.12
                             2164.99  2170.69  2174.08  2179.77  2180.91
                             2184.72  2185.36  2197.00  2201.07  2205.05
                             2207.51  2213.16  2224.72  2236.11  2590.46
                             4190.67  4208.56  4241.86  4337.85  4405.18
                             4407.78  4410.51  4420.33  4421.02  4431.50
                             4435.02  4451.79  4454.92  4463.29  4464.70
                             4479.50  4485.28  4499.85  4501.84  4518.32
                             4519.03  4546.48  4565.11  5073.72

 Zero-point correction=                           0.362384 (Hartree/Particle)
 Thermal correction to Energy=                    0.380397
 Thermal correction to Enthalpy=                  0.381341
 Thermal correction to Gibbs Free Energy=         0.315463
 Sum of electronic and zero-point Energies=           -731.379551
 Sum of electronic and thermal Energies=              -731.361538
 Sum of electronic and thermal Enthalpies=            -731.360594
 Sum of electronic and thermal Free Energies=         -731.426473

                     E (Thermal)             CV                S
                      KCal/Mol        Cal/Mol-Kelvin    Cal/Mol-Kelvin
 Total                  238.703             66.868            138.653
 Electronic               0.000              0.000              0.000
 Translational            0.889              2.981             42.177
 Rotational               0.889              2.981             32.928
 Vibrational            236.925             60.906             63.548
 Vibration     1          0.594              1.984              5.846
 Vibration     2          0.595              1.980              5.150
 Vibration     3          0.595              1.978              4.841
 Vibration     4          0.596              1.976              4.645
 Vibration     5          0.600              1.964              3.924
 Vibration     6          0.605              1.947              3.402
 Vibration     7          0.605              1.945              3.361
 Vibration     8          0.612              1.923              2.941
 Vibration     9          0.614              1.916              2.837
 Vibration    10          0.629              1.866              2.323
 Vibration    11          0.639              1.835              2.100
 Vibration    12          0.647              1.812              1.967
 Vibration    13          0.662              1.764              1.734
 Vibration    14          0.668              1.746              1.664
 Vibration    15          0.669              1.744              1.656
 Vibration    16          0.683              1.703              1.509
 Vibration    17          0.699              1.655              1.364
 Vibration    18          0.719              1.598              1.218
 Vibration    19          0.736              1.549              1.111
 Vibration    20          0.753              1.504              1.022
 Vibration    21          0.774              1.448              0.927
 Vibration    22          0.795              1.395              0.844
 Vibration    23          0.799              1.386              0.831
 Vibration    24          0.836              1.296              0.711
 Vibration    25          0.868              1.222              0.627
 Vibration    26          0.879              1.197              0.601

 Optimization completed.
    -- Stationary point found.
 Normal termination of Gaussian 16 at Thu Dec 10 23:01:08 2020.

 ----------------------------------------------------------------------
 # B3LYP/6-311++G(d,p) empiricaldispersion=gd3bj scf=xqc pop=npa geom=c
 heck
 ----------------------------------------------------------------------

 --------------------------------------
 CID_17901899_JID_6412_Energie_neutraal
 --------------------------------------
 Structure from the checkpoint file:  "JID_6412.chk"
 Charge =  0 Multiplicity = 1

 SCF Done:  E(RB3LYP) =  -731.952155415     A.U. after   14 cycles
 Normal termination of Gaussian 16 at Thu Dec 10 23:07:20 2020.

 ----------------------------------------------------------------------
 # B3LYP/6-311++G(d,p) empiricaldispersion=gd3bj scf=xqc pop=npa geom=c
 heck
 ----------------------------------------------------------------------

 ------------------------------------
 CID_17901899_JID_6412_Energie_kation
 ------------------------------------
 Structure from the checkpoint file:  "JID_6412.chk"
 Charge =  1 Multiplicity = 2

 SCF Done:  E(UB3LYP) =  -731.672439043     A.U. after   24 cycles
 Normal termination of Gaussian 16 at Thu Dec 10 23:21:14 2020.
 Gaussian 16:  ES64L-G16RevA.03 25-Dec-2016

 ----------------------------------------------------------------------
 # B3LYP/6-311++G(d,p) empiricaldispersion=gd3bj scf=xqc pop=npa geom=c
 heck
 ----------------------------------------------------------------------

 -----------------------------------
 CID_17901899_JID_6412_Energie_anion
 -----------------------------------
 Structure from the checkpoint file:  "JID_6412.chk"
 Charge = -1 Multiplicity = 2

                         Standard orientation:
 ---------------------------------------------------------------------
 Center     Atomic      Atomic             Coordinates (Angstroms)
 Number     Number       Type             X           Y           Z
 ---------------------------------------------------------------------
      1          6           0       -4.223523   -1.852736   -0.817645
      2          6           0       -4.189215   -0.553945   -0.028965
      3          8           0       -2.945419    0.154365   -0.246104
      4          6           0       -1.889669   -0.242131    0.497912
      5          8           0       -1.946476   -1.133650    1.321106
      6          6           0       -0.633793    0.601930    0.237402
      7          6           0       -0.385097    0.929166   -1.248819
      8          6           0        0.543992    2.161421   -1.225390
      9          6           0        0.280052    2.861712    0.136948
     10          6           0       -0.811740    2.021951    0.831471
     11          7           0        0.539432   -0.006399    0.859901
     12          6           0        0.989602   -1.296093    0.309473
     13          6           0        2.258388   -1.227675   -0.549405
     14          7           0        3.484229   -1.003904    0.216126
     15          6           0        4.656230   -1.459247   -0.516456
     16          6           0        3.650704    0.388080    0.620264
     17          1           0       -4.056291   -1.662892   -1.882819
     18          1           0       -5.200759   -2.334878   -0.701758
     19          1           0       -3.454874   -2.539394   -0.453653
     20          1           0       -4.959049    0.143820   -0.366392
     21          1           0       -4.306121   -0.737126    1.041774
     22          1           0        0.030705    0.083552   -1.803131
     23          1           0       -1.345030    1.177161   -1.708216
     24          1           0        0.343212    2.819512   -2.076851
     25          1           0        1.590733    1.853948   -1.294444
     26          1           0       -0.037486    3.902439    0.017120
     27          1           0        1.190764    2.865456    0.741077
     28          1           0       -1.811246    2.389567    0.576065
     29          1           0       -0.726526    2.017063    1.923650
     30          1           0        0.317822   -0.140514    1.842241
     31          1           0        1.201749   -1.970344    1.144822
     32          1           0        0.194536   -1.774846   -0.281193
     33          1           0        2.356395   -2.204072   -1.040293
     34          1           0        2.141776   -0.480001   -1.357460
     35          1           0        4.819849   -0.909977   -1.465955
     36          1           0        5.549236   -1.324676    0.103896
     37          1           0        4.562142   -2.525035   -0.751382
     38          1           0        3.810325    1.062368   -0.246791
     39          1           0        2.759315    0.726286    1.148260
     40          1           0        4.522756    0.474389    1.278489
 ---------------------------------------------------------------------

 SCF Done:  E(UB3LYP) =  -731.937277551     A.U. after   32 cycles

 The electronic state is 2-A.
 Alpha  occ. eigenvalues --  -19.07451 -19.02170 -14.21430 -14.20681 -10.20674
 Alpha  occ. eigenvalues --  -10.13308 -10.12642 -10.09985 -10.09803 -10.09710
 Alpha  occ. eigenvalues --  -10.08686 -10.08055 -10.07485 -10.07373 -10.07171
 Alpha  occ. eigenvalues --  -10.07090  -1.01525  -0.92991  -0.83734  -0.82143
 Alpha  occ. eigenvalues --   -0.73392  -0.68251  -0.65493  -0.62499  -0.61836
 Alpha  occ. eigenvalues --   -0.61143  -0.56496  -0.54506  -0.49913  -0.48655
 Alpha  occ. eigenvalues --   -0.48145  -0.45498  -0.43552  -0.40977  -0.39783
 Alpha  occ. eigenvalues --   -0.38836  -0.38096  -0.37296  -0.36654  -0.36526
 Alpha  occ. eigenvalues --   -0.36311  -0.34278  -0.32257  -0.31897  -0.31388
 Alpha  occ. eigenvalues --   -0.30078  -0.29712  -0.29350  -0.28716  -0.28055
 Alpha  occ. eigenvalues --   -0.27280  -0.26843  -0.26582  -0.25597  -0.25209
 Alpha  occ. eigenvalues --   -0.24987  -0.24288  -0.23478  -0.22699  -0.21358
 Alpha  occ. eigenvalues --   -0.18965  -0.14770  -0.12575   0.04207
 Alpha virt. eigenvalues --    0.05650   0.06440   0.07231   0.07742   0.07944
 Alpha virt. eigenvalues --    0.08553   0.08814   0.08989   0.09273   0.09559
 Alpha virt. eigenvalues --    0.10075   0.10760   0.11122   0.11728   0.11891

  Beta  occ. eigenvalues --  -19.07448 -19.02164 -14.21421 -14.20669 -10.20673
  Beta  occ. eigenvalues --  -10.13281 -10.12642 -10.09978 -10.09792 -10.09688
  Beta  occ. eigenvalues --  -10.08673 -10.08041 -10.07475 -10.07361 -10.07158
  Beta  occ. eigenvalues --  -10.07055  -1.01516  -0.92980  -0.83718  -0.82127
  Beta  occ. eigenvalues --   -0.73374  -0.68212  -0.65470  -0.62473  -0.61809
  Beta  occ. eigenvalues --   -0.61111  -0.56441  -0.54470  -0.49872  -0.48611
  Beta  occ. eigenvalues --   -0.48107  -0.45468  -0.43528  -0.40953  -0.39758
  Beta  occ. eigenvalues --   -0.38809  -0.38072  -0.37271  -0.36628  -0.36496
  Beta  occ. eigenvalues --   -0.36282  -0.34255  -0.32227  -0.31878  -0.31366
  Beta  occ. eigenvalues --   -0.30056  -0.29665  -0.29321  -0.28688  -0.28030
  Beta  occ. eigenvalues --   -0.27259  -0.26814  -0.26561  -0.25573  -0.25183
  Beta  occ. eigenvalues --   -0.24965  -0.24268  -0.23459  -0.22679  -0.21337
  Beta  occ. eigenvalues --   -0.18955  -0.14730  -0.12527
  Beta virt. eigenvalues --    0.05990   0.06662   0.07070   0.07619   0.08107
  Beta virt. eigenvalues --    0.08330   0.08739   0.09091   0.09266   0.09563
  Beta virt. eigenvalues --    0.09941   0.10357   0.11008   0.11394   0.11964

 Mulliken charges and spin densities:
               1          2
     1  C    0.595384  -0.991892
     2  C    0.218924  -0.291663
     3  O   -0.008050   0.050395
     4  C   -0.614210   0.099048
     5  O   -0.179032   0.001861
     6  C    0.076603   0.060689
     7  C    0.179524  -0.660274
     8  C    0.495463  -0.675908
     9  C   -0.294205  -0.117616
    10  C    0.187392  -0.533273
    11  N   -0.000344   0.048799
    12  C   -0.563750   0.361560
    13  C   -0.146983  -0.482975
    14  N    0.011100   0.146440
    15  C    0.432923  -0.685155
    16  C   -0.053966  -0.398004
    17  H   -0.027222   0.170398
    18  H   -0.490105   0.642139
    19  H   -0.162626   0.332526
    20  H   -0.782253   0.964350
    21  H    0.157944   0.000089
    22  H   -0.151139   0.313088
    23  H    0.108186   0.111095
    24  H   -0.317934   0.499277
    25  H    0.172659  -0.054404
    26  H   -0.147934   0.308060
    27  H    0.043777   0.081522
    28  H   -0.089952   0.250835
    29  H    0.025017   0.131557
    30  H    0.217516   0.074464
    31  H    0.094026   0.074497
    32  H    0.190566  -0.045871
    33  H   -0.195012   0.361630
    34  H    0.250584  -0.171689
    35  H   -0.167807   0.275223
    36  H   -0.046770   0.167019
    37  H   -0.129240   0.253245
    38  H   -0.085564   0.191205
    39  H    0.084558   0.110604
    40  H    0.111954   0.027109
 Sum of Mulliken charges =  -1.00000   1.00000

 Dipole moment (field-independent basis, Debye):
    X=              4.2107    Y=              0.6372    Z=              2.6635  Tot=              5.0230
 Quadrupole moment (field-independent basis, Debye-Ang):
   XX=           -207.9122   YY=           -150.5310   ZZ=           -136.4326
   XY=             -0.0502   XZ=             -4.6916   YZ=              2.9755

 Summary of Natural Population Analysis:

                                       Natural Population
                Natural  -----------------------------------------------
    Atom  No    Charge         Core      Valence    Rydberg      Total
 -----------------------------------------------------------------------
      C    1   -0.29902      0.99966     2.29411    0.00525     3.29902
      C    2   -0.01556      0.99957     2.00419    0.01180     3.01556
      O    3   -0.28241      0.99986     3.27305    0.00951     4.28241
      C    4    0.41245      0.99959     1.56154    0.02642     2.58755
      O    5   -0.31268      0.99987     3.30752    0.00528     4.31268
      C    6    0.02293      0.99951     1.96279    0.01477     2.97707
      C    7   -0.19349      0.99959     2.18429    0.00961     3.19349
      C    8   -0.19372      0.99964     2.18617    0.00791     3.19372
      C    9   -0.19137      0.99964     2.18386    0.00787     3.19137
      C   10   -0.18335      0.99959     2.17457    0.00919     3.18335
      N   11   -0.34881      0.99971     2.83739    0.01171     3.84881
      C   12   -0.09392      0.99961     2.08244    0.01188     3.09392
      C   13   -0.08941      0.99960     2.07694    0.01288     3.08941
      N   14   -0.27861      0.99973     2.76644    0.01245     3.77861
      C   15   -0.17355      0.99965     2.16687    0.00703     3.17355
      C   16   -0.18110      0.99964     2.17423    0.00724     3.18110
      H   17    0.10171      0.00000     0.39698    0.00131     0.39829
      H   18    0.10410      0.00000     0.39433    0.00158     0.39590
      H   19    0.10419      0.00000     0.39464    0.00117     0.39581
      H   20    0.09397      0.00000     0.40367    0.00235     0.40603
      H   21    0.09294      0.00000     0.40581    0.00125     0.40706
      H   22    0.10331      0.00000     0.39548    0.00120     0.39669
      H   23    0.11095      0.00000     0.38718    0.00188     0.38905
      H   24    0.09937      0.00000     0.39959    0.00105     0.40063
      H   25    0.09931      0.00000     0.39903    0.00167     0.40069
      H   26    0.09907      0.00000     0.40000    0.00093     0.40093
      H   27    0.09927      0.00000     0.39949    0.00124     0.40073
      H   28    0.10491      0.00000     0.39356    0.00153     0.39509
      H   29    0.10059      0.00000     0.39849    0.00092     0.39941
      H   30    0.18165      0.00000     0.31619    0.00216     0.31835
      H   31    0.09913      0.00000     0.39935    0.00152     0.40087
      H   32    0.08880      0.00000     0.40950    0.00171     0.41120
      H   33    0.09510      0.00000     0.40347    0.00143     0.40490
      H   34    0.08146      0.00000     0.41668    0.00186     0.41854
      H   35    0.07854      0.00000     0.41949    0.00196     0.42146
      H   36    0.09300      0.00000     0.40569    0.00131     0.40700
      H   37    0.09403      0.00000     0.40456    0.00141     0.40597
      H   38    0.07679      0.00000     0.42161    0.00160     0.42321
      H   39    0.10960      0.00000     0.38875    0.00165     0.39040
      H   40    0.08985      0.00000     0.40904    0.00110     0.41015
 =======================================================================
   * Total *    0.00000     15.99446    46.79897    0.20657    63.00000

 Normal termination of Gaussian 16 at Thu Dec 10 23:39:35 2020.
