 Gaussian 16, Revision A.03,

 -----------------------------------------------------------
 # opt freq B3LYP/6-31G(d) empiricaldispersion=gd3bj scf=xqc
 -----------------------------------------------------------

 -------------------------------
 CID_133680481_JID_3567_neutraal
 -------------------------------
 Symbolic Z-matrix:
 Charge =  0 Multiplicity = 1

 SCF Done:  E(RB3LYP) =  -611.348296208     A.U. after   16 cycles
 SCF Done:  E(RB3LYP) =  -611.354176699     A.U. after   13 cycles
 SCF Done:  E(RB3LYP) =  -611.355323820     A.U. after   12 cycles
 SCF Done:  E(RB3LYP) =  -611.355998580     A.U. after   12 cycles
 SCF Done:  E(RB3LYP) =  -611.356200744     A.U. after   12 cycles
 SCF Done:  E(RB3LYP) =  -611.356322084     A.U. after   12 cycles
 SCF Done:  E(RB3LYP) =  -611.356368672     A.U. after   11 cycles
 SCF Done:  E(RB3LYP) =  -611.356427637     A.U. after   11 cycles
 SCF Done:  E(RB3LYP) =  -611.356446428     A.U. after   10 cycles
 SCF Done:  E(RB3LYP) =  -611.356512180     A.U. after   12 cycles
 SCF Done:  E(RB3LYP) =  -611.358242394     A.U. after    8 cycles
 SCF Done:  E(RB3LYP) =  -611.358242874     A.U. after    9 cycles
 SCF Done:  E(RB3LYP) =  -611.358243195     A.U. after    9 cycles
 SCF Done:  E(RB3LYP) =  -611.358243355     A.U. after    8 cycles
 SCF Done:  E(RB3LYP) =  -611.358243393     A.U. after    7 cycles
 Optimization completed.
    -- Stationary point found.
 Normal termination of Gaussian 16 at Wed Dec  9 23:51:43 2020.

 --------------------------------------------------------------------
 #N Geom=AllCheck Guess=TCheck SCRF=Check GenChk RB3LYP/6-31G(d) Freq
 --------------------------------------------------------------------

 Structure from the checkpoint file:  "JID_3567.chk"
 -------------------------------
 CID_133680481_JID_3567_neutraal
 -------------------------------
 Charge =  0 Multiplicity = 1

 SCF Done:  E(RB3LYP) =  -611.358243393     A.U. after    1 cycles

  Exact polarizability: 161.283  -5.056 111.534  -0.612  -5.754  73.111
 Approx polarizability: 228.741  -7.909 177.583  -0.200 -16.458 109.245

                      1                      2                      3
                      A                      A                      A
 Frequencies --     13.8797                43.1564                56.1573
 Red. masses --      4.6393                 3.6607                 3.1211
 Frc consts  --      0.0005                 0.0040                 0.0058
 IR Inten    --      1.0463                 1.1137                 2.6327

                      4                      5                      6
                      A                      A                      A
 Frequencies --     89.9015               137.3390               153.8430
 Red. masses --      2.5550                 2.8220                 3.9074
 Frc consts  --      0.0122                 0.0314                 0.0545
 IR Inten    --      1.2516                 0.4557                 1.4191

                      7                      8                      9
                      A                      A                      A
 Frequencies --    185.9091               195.0569               275.6909
 Red. masses --      1.4642                 4.6960                 1.2610
 Frc consts  --      0.0298                 0.1053                 0.0565
 IR Inten    --      6.1672                 0.4082                 1.8889

                     10                     11                     12
                      A                      A                      A
 Frequencies --    316.4809               348.2309               363.3732
 Red. masses --      1.8796                 4.0463                 2.7820
 Frc consts  --      0.1109                 0.2891                 0.2164
 IR Inten    --      0.6827                 2.9293                 3.4572

                     13                     14                     15
                      A                      A                      A
 Frequencies --    389.5470               392.0449               438.6782
 Red. masses --      3.3547                 3.8214                 3.6333
 Frc consts  --      0.2999                 0.3461                 0.4119
 IR Inten    --      7.6204                 1.7852                14.3633

                     16                     17                     18
                      A                      A                      A
 Frequencies --    469.1593               494.3795               545.8171
 Red. masses --      4.4863                 2.7391                 2.7022
 Frc consts  --      0.5818                 0.3944                 0.4743
 IR Inten    --      7.7407                24.6873                10.8413

                     19                     20                     21
                      A                      A                      A
 Frequencies --    645.1693               652.6583               677.5626
 Red. masses --      6.6628                 2.8663                 1.3447
 Frc consts  --      1.6340                 0.7194                 0.3637
 IR Inten    --      2.5773                 9.3164                46.6773

                     22                     23                     24
                      A                      A                      A
 Frequencies --    741.4801               752.4792               787.5560
 Red. masses --      3.6570                 1.4937                 2.7093
 Frc consts  --      1.1846                 0.4983                 0.9901
 IR Inten    --     17.4461                66.2521                19.1594

                     25                     26                     27
                      A                      A                      A
 Frequencies --    818.7712               836.2503               837.6435
 Red. masses --      2.4112                 3.2638                 1.9540
 Frc consts  --      0.9524                 1.3448                 0.8078
 IR Inten    --     13.7233                13.0281                15.2675

                     28                     29                     30
                      A                      A                      A
 Frequencies --    852.4156               919.1249               933.2066
 Red. masses --      1.9662                 1.8086                 2.4626
 Frc consts  --      0.8418                 0.9002                 1.2636
 IR Inten    --     43.6411                 5.1381                13.4092

                     31                     32                     33
                      A                      A                      A
 Frequencies --    999.9646              1002.3828              1025.7320
 Red. masses --      2.5844                 1.4069                 1.7642
 Frc consts  --      1.5226                 0.8329                 1.0936
 IR Inten    --     25.5948                 0.8359                25.8120

                     34                     35                     36
                      A                      A                      A
 Frequencies --   1054.2521              1129.1274              1132.2612
 Red. masses --      2.3130                 2.7008                 1.7956
 Frc consts  --      1.5147                 2.0288                 1.3563
 IR Inten    --     45.3767                13.8509                40.3613

                     37                     38                     39
                      A                      A                      A
 Frequencies --   1156.9941              1190.8254              1212.3541
 Red. masses --      1.9434                 1.2933                 2.6599
 Frc consts  --      1.5328                 1.0805                 2.3034
 IR Inten    --      7.3278                 6.0937                81.1001

                     40                     41                     42
                      A                      A                      A
 Frequencies --   1224.4317              1236.4314              1242.6006
 Red. masses --      1.2176                 1.5357                 3.3789
 Frc consts  --      1.0756                 1.3832                 3.0739
 IR Inten    --      9.0721                17.9420                95.0107

                     43                     44                     45
                      A                      A                      A
 Frequencies --   1282.8970              1310.3647              1356.3478
 Red. masses --      1.4514                 1.7850                 1.4922
 Frc consts  --      1.4074                 1.8058                 1.6174
 IR Inten    --     88.1596                20.1609                 4.8073

                     46                     47                     48
                      A                      A                      A
 Frequencies --   1377.9081              1404.3922              1418.4812
 Red. masses --      1.5146                 1.3111                 1.2002
 Frc consts  --      1.6943                 1.5236                 1.4229
 IR Inten    --      7.9396                 1.1284                13.8653

                     49                     50                     51
                      A                      A                      A
 Frequencies --   1434.9636              1464.7624              1480.6806
 Red. masses --      1.3169                 2.1885                 2.1158
 Frc consts  --      1.5976                 2.7665                 2.7331
 IR Inten    --     21.4162                 8.9712                26.9667

                     52                     53                     54
                      A                      A                      A
 Frequencies --   1498.0265              1511.7137              1515.7388
 Red. masses --      1.1561                 1.2738                 1.0541
 Frc consts  --      1.5285                 1.7151                 1.4268
 IR Inten    --      1.9461                 2.9291                 5.6689

                     55                     56                     57
                      A                      A                      A
 Frequencies --   1521.9062              1532.2861              1547.3037
 Red. masses --      1.0863                 1.2567                 1.0782
 Frc consts  --      1.4825                 1.7385                 1.5210
 IR Inten    --      2.5773                15.0829                 1.3445

                     58                     59                     60
                      A                      A                      A
 Frequencies --   1552.3349              1605.4813              1699.8431
 Red. masses --      1.0509                 4.5632                 5.2332
 Frc consts  --      1.4920                 6.9299                 8.9091
 IR Inten    --      6.9030                41.7596               148.6321

                     61                     62                     63
                      A                      A                      A
 Frequencies --   1792.1743              2962.2359              3020.1063
 Red. masses --      8.1540                 1.0741                 1.0435
 Frc consts  --     15.4305                 5.5528                 5.6077
 IR Inten    --    520.9325                71.5640                64.6687

                     64                     65                     66
                      A                      A                      A
 Frequencies --   3053.1893              3056.7876              3096.9943
 Red. masses --      1.0788                 1.0431                 1.0894
 Frc consts  --      5.9252                 5.7428                 6.1565
 IR Inten    --     35.3572                16.7563                41.5609

                     67                     68                     69
                      A                      A                      A
 Frequencies --   3121.2707              3122.4620              3135.5160
 Red. masses --      1.0903                 1.0989                 1.1028
 Frc consts  --      6.2585                 6.3124                 6.3878
 IR Inten    --     14.7981                29.5274                17.7536

                     70                     71                     72
                      A                      A                      A
 Frequencies --   3138.6848              3192.1920              3213.6195
 Red. masses --      1.1056                 1.0896                 1.0926
 Frc consts  --      6.4171                 6.5415                 6.6482
 IR Inten    --     38.9988                 9.2644                11.1574

                     73                     74                     75
                      A                      A                      A
 Frequencies --   3235.7835              3531.3266              3604.3081
 Red. masses --      1.0938                 1.0741                 1.0776
 Frc consts  --      6.7474                 7.8915                 8.2481
 IR Inten    --      2.6629                 1.1641                52.7190

 - Thermochemistry -
 -------------------
 Temperature   298.150 Kelvin.  Pressure   1.00000 Atm.
 Atom     1 has atomic number  6 and mass  12.00000

 Molecular mass:   182.10553 amu.
 Principal axes and moments of inertia in atomic units:
                           1         2         3
     Eigenvalues --   838.921735390.372625835.68391
           X            0.99998  -0.00387   0.00503
           Y            0.00381   0.99993   0.01160
           Z           -0.00507  -0.01158   0.99992
 This molecule is an asymmetric top.
 Rotational symmetry number  1.
 Warning -- assumption of classical behavior for rotation
           may cause significant error
 Rotational temperatures (Kelvin)      0.10324     0.01607     0.01484
 Rotational constants (GHZ):           2.15126     0.33481     0.30926
 Zero-point vibrational energy     602693.0 (Joules/Mol)
                                  144.04709 (Kcal/Mol)
 Warning -- explicit consideration of  18 degrees of freedom as
           vibrations may cause significant error
 Vibrational temperatures:     19.97    62.09    80.80   129.35   197.60
          (Kelvin)            221.35   267.48   280.64   396.66   455.35
                              501.03   522.81   560.47   564.07   631.16
                              675.02   711.30   785.31   928.25   939.03
                              974.86  1066.82  1082.65  1133.12  1178.03
                             1203.18  1205.18  1226.44  1322.42  1342.68
                             1438.73  1442.21  1475.80  1516.83  1624.56
                             1629.07  1664.66  1713.33  1744.31  1761.68
                             1778.95  1787.83  1845.80  1885.32  1951.48
                             1982.50  2020.61  2040.88  2064.59  2107.47
                             2130.37  2155.33  2175.02  2180.81  2189.68
                             2204.62  2226.22  2233.46  2309.93  2445.70
                             2578.54  4262.00  4345.26  4392.86  4398.04
                             4455.88  4490.81  4492.53  4511.31  4515.87
                             4592.85  4623.68  4655.57  5080.79  5185.80

 Zero-point correction=                           0.229554 (Hartree/Particle)
 Thermal correction to Energy=                    0.242742
 Thermal correction to Enthalpy=                  0.243687
 Thermal correction to Gibbs Free Energy=         0.187869
 Sum of electronic and zero-point Energies=           -611.128690
 Sum of electronic and thermal Energies=              -611.115501
 Sum of electronic and thermal Enthalpies=            -611.114557
 Sum of electronic and thermal Free Energies=         -611.170374

                     E (Thermal)             CV                S
                      KCal/Mol        Cal/Mol-Kelvin    Cal/Mol-Kelvin
 Total                  152.323             48.874            117.478
 Electronic               0.000              0.000              0.000
 Translational            0.889              2.981             41.505
 Rotational               0.889              2.981             31.646
 Vibrational            150.546             42.912             44.328
 Vibration     1          0.593              1.986              7.360
 Vibration     2          0.595              1.980              5.109
 Vibration     3          0.596              1.975              4.588
 Vibration     4          0.602              1.956              3.662
 Vibration     5          0.614              1.916              2.841
 Vibration     6          0.619              1.898              2.624
 Vibration     7          0.632              1.859              2.268
 Vibration     8          0.636              1.847              2.179
 Vibration     9          0.677              1.718              1.560
 Vibration    10          0.703              1.642              1.328
 Vibration    11          0.726              1.579              1.174
 Vibration    12          0.737              1.548              1.108
 Vibration    13          0.757              1.493              1.002
 Vibration    14          0.759              1.487              0.992
 Vibration    15          0.799              1.386              0.831
 Vibration    16          0.826              1.318              0.740
 Vibration    17          0.850              1.262              0.672
 Vibration    18          0.901              1.149              0.553

                           ! Non-Optimized Parameters !
 Normal termination of Gaussian 16 at Wed Dec  9 23:58:27 2020.

 ----------------------------------------------------------------------
 # B3LYP/6-311++G(d,p) empiricaldispersion=gd3bj scf=xqc pop=npa geom=c
 heck
 ----------------------------------------------------------------------

 ---------------------------------------
 CID_133680481_JID_3567_Energie_neutraal
 ---------------------------------------
 Structure from the checkpoint file:  "JID_3567.chk"
 Charge =  0 Multiplicity = 1

 SCF Done:  E(RB3LYP) =  -611.540903039     A.U. after   16 cycles
 Normal termination of Gaussian 16 at Thu Dec 10 00:02:00 2020.

 ----------------------------------------------------------------------
 # B3LYP/6-311++G(d,p) empiricaldispersion=gd3bj scf=xqc pop=npa geom=c
 heck
 ----------------------------------------------------------------------

 -------------------------------------
 CID_133680481_JID_3567_Energie_kation
 -------------------------------------
 Structure from the checkpoint file:  "JID_3567.chk"
 Charge =  1 Multiplicity = 2

 SCF Done:  E(UB3LYP) =  -611.262730985     A.U. after   23 cycles
 Normal termination of Gaussian 16 at Thu Dec 10 00:08:58 2020.
 Gaussian 16:  ES64L-G16RevA.03 25-Dec-2016

 ----------------------------------------------------------------------
 # B3LYP/6-311++G(d,p) empiricaldispersion=gd3bj scf=xqc pop=npa geom=c
 heck
 ----------------------------------------------------------------------

 ------------------------------------
 CID_133680481_JID_3567_Energie_anion
 ------------------------------------
 Structure from the checkpoint file:  "JID_3567.chk"
 Charge = -1 Multiplicity = 2

                         Standard orientation:
 ---------------------------------------------------------------------
 Center     Atomic      Atomic             Coordinates (Angstroms)
 Number     Number       Type             X           Y           Z
 ---------------------------------------------------------------------
      1          6           0        3.579628   -1.313883    0.208297
      2          6           0        2.987246   -0.238350   -0.705670
      3          6           0        1.486845   -0.431486   -0.971997
      4          7           0        0.685444   -0.573157    0.252319
      5          6           0       -0.705187   -0.341761    0.124410
      6          6           0       -1.646182   -1.303689    0.361245
      7          7           0       -2.983434   -0.999350    0.314906
      8          6           0       -3.530243    0.250300   -0.019531
      9          8           0       -4.747705    0.410751   -0.055779
     10          6           0       -2.510237    1.252910   -0.284790
     11          6           0       -1.180356    0.971076   -0.203129
     12          8           0        3.301218    1.091199   -0.302610
     13          6           0        3.033089    1.447087    1.046401
     14          1           0        3.111225   -1.317063    1.197665
     15          1           0        4.652523   -1.146183    0.342773
     16          1           0        3.442114   -2.305666   -0.238138
     17          1           0        3.474560   -0.322150   -1.685210
     18          1           0        1.132613    0.451842   -1.509349
     19          1           0        1.350580   -1.294694   -1.648221
     20          1           0        0.859078   -1.474065    0.687823
     21          1           0       -1.395136   -2.329093    0.611859
     22          1           0       -3.671946   -1.715517    0.511276
     23          1           0       -2.868778    2.245975   -0.529903
     24          1           0       -0.445210    1.753616   -0.372711
     25          1           0        1.989596    1.266614    1.323827
     26          1           0        3.683792    0.910001    1.751738
     27          1           0        3.255203    2.515103    1.121689
 ---------------------------------------------------------------------

 SCF Done:  E(UB3LYP) =  -611.539416608     A.U. after   33 cycles
 SCF Done:  E(UB3LYP) =  -611.539416607     a.u. after    1 cycles

 The electronic state is 2-A.
 Alpha  occ. eigenvalues --  -19.02297 -18.95434 -14.23588 -14.20500 -10.14269
 Alpha  occ. eigenvalues --  -10.12400 -10.10776 -10.09408 -10.08845 -10.08768
 Alpha  occ. eigenvalues --  -10.06245 -10.05911 -10.04485  -0.93311  -0.90956
 Alpha  occ. eigenvalues --   -0.83268  -0.80892  -0.69108  -0.66951  -0.62383
 Alpha  occ. eigenvalues --   -0.59627  -0.56951  -0.53178  -0.50388  -0.47257
 Alpha  occ. eigenvalues --   -0.43052  -0.41602  -0.39377  -0.37446  -0.36614
 Alpha  occ. eigenvalues --   -0.35883  -0.34046  -0.33761  -0.31889  -0.31713
 Alpha  occ. eigenvalues --   -0.31094  -0.30141  -0.29409  -0.27918  -0.26490
 Alpha  occ. eigenvalues --   -0.25740  -0.24805  -0.23195  -0.20947  -0.19344
 Alpha  occ. eigenvalues --   -0.16662  -0.14028  -0.13568  -0.08315   0.04183
 Alpha virt. eigenvalues --    0.06110   0.07321   0.07926   0.08413   0.09591
 Alpha virt. eigenvalues --    0.10098   0.10915   0.11187   0.11617   0.12284
 Alpha virt. eigenvalues --    0.12811   0.13321   0.13817   0.14339   0.15019

  Beta  occ. eigenvalues --  -19.02297 -18.95413 -14.23427 -14.20487 -10.14266
  Beta  occ. eigenvalues --  -10.12393 -10.10768 -10.09401 -10.08859 -10.08590
  Beta  occ. eigenvalues --  -10.06198 -10.05717 -10.04350  -0.93307  -0.90858
  Beta  occ. eigenvalues --   -0.83071  -0.80791  -0.68923  -0.66756  -0.62134
  Beta  occ. eigenvalues --   -0.59576  -0.56859  -0.52742  -0.50277  -0.47212
  Beta  occ. eigenvalues --   -0.42904  -0.41521  -0.39304  -0.37354  -0.36533
  Beta  occ. eigenvalues --   -0.35771  -0.33926  -0.33658  -0.31826  -0.31530
  Beta  occ. eigenvalues --   -0.30710  -0.30054  -0.29372  -0.27837  -0.26442
  Beta  occ. eigenvalues --   -0.25689  -0.24719  -0.22940  -0.20781  -0.18681
  Beta  occ. eigenvalues --   -0.16262  -0.13754  -0.13497  -0.07674
  Beta virt. eigenvalues --    0.06758   0.07952   0.08178   0.08409   0.08695
  Beta virt. eigenvalues --    0.10040   0.10172   0.11156   0.11511   0.11813
  Beta virt. eigenvalues --    0.12577   0.13006   0.13362   0.13891   0.14541

 Mulliken charges and spin densities:
               1          2
     1  C    1.381402  -1.946124
     2  C   -1.451701   1.433514
     3  C    0.277603  -0.821463
     4  N    0.136005  -0.017587
     5  C   -0.085046  -0.825525
     6  C   -0.278793   0.415066
     7  N   -0.304407   0.109498
     8  C   -0.133430  -0.081621
     9  O   -0.437310   0.011526
    10  C   -0.530037   0.217881
    11  C    1.082362  -0.121318
    12  O   -0.097172  -0.012471
    13  C    0.045221  -0.356241
    14  H   -0.350103   0.504543
    15  H   -0.202770   0.365682
    16  H   -0.399221   0.549575
    17  H   -0.133443   0.322899
    18  H    0.148184   0.032428
    19  H    0.005670   0.125712
    20  H    0.289032  -0.057779
    21  H   -0.797500   0.946969
    22  H    0.240948   0.059178
    23  H    0.157070  -0.003830
    24  H    0.143388  -0.015840
    25  H    0.177737   0.039548
    26  H   -0.000108   0.115931
    27  H    0.116418   0.009847
 Sum of Mulliken charges =  -1.00000   1.00000

 Dipole moment (field-independent basis, Debye):
    X=              2.0949    Y=              3.0970    Z=             -1.0008  Tot=              3.8706
 Quadrupole moment (field-independent basis, Debye-Ang):
   XX=           -167.4548   YY=           -109.8051   ZZ=            -98.9441
   XY=             15.3355   XZ=             -0.8373   YZ=              4.4619

 Summary of Natural Population Analysis:

                                       Natural Population
                Natural  -----------------------------------------------
    Atom  No    Charge         Core      Valence    Rydberg      Total
 -----------------------------------------------------------------------
      C    1   -0.30735      0.99964     2.30165    0.00605     3.30735
      C    2    0.06407      0.99955     1.91955    0.01683     2.93593
      C    3   -0.09485      0.99958     2.08387    0.01139     3.09485
      N    4   -0.33725      0.99970     2.82457    0.01299     3.83725
      C    5    0.02405      0.99946     1.96467    0.01182     2.97595
      C    6    0.04507      0.99951     1.94284    0.01258     2.95493
      N    7   -0.26583      0.99967     2.75719    0.00897     3.76583
      C    8    0.30458      0.99963     1.67338    0.02241     2.69542
      O    9   -0.34780      0.99988     3.34190    0.00602     4.34780
      C   10   -0.12713      0.99953     2.11831    0.00930     3.12713
      C   11   -0.05221      0.99953     2.04420    0.00848     3.05221
      O   12   -0.30624      0.99989     3.29666    0.00969     4.30624
      C   13   -0.10365      0.99960     2.09551    0.00854     3.10365
      H   14    0.10187      0.00000     0.39641    0.00173     0.39813
      H   15    0.10289      0.00000     0.39597    0.00114     0.39711
      H   16    0.10652      0.00000     0.39172    0.00176     0.39348
      H   17    0.08875      0.00000     0.40979    0.00146     0.41125
      H   18    0.10087      0.00000     0.39788    0.00125     0.39913
      H   19    0.08408      0.00000     0.41447    0.00145     0.41592
      H   20    0.18111      0.00000     0.31483    0.00406     0.31889
      H   21    0.09598      0.00000     0.40230    0.00172     0.40402
      H   22    0.19349      0.00000     0.30390    0.00261     0.30651
      H   23    0.09937      0.00000     0.39985    0.00079     0.40063
      H   24    0.09590      0.00000     0.40276    0.00134     0.40410
      H   25    0.09384      0.00000     0.40478    0.00138     0.40616
      H   26    0.07642      0.00000     0.42217    0.00140     0.42358
      H   27    0.08345      0.00000     0.41562    0.00093     0.41655
 =======================================================================
   * Total *    0.00000     12.99517    35.83675    0.16808    49.00000

 Normal termination of Gaussian 16 at Thu Dec 10 00:19:01 2020.
