 Gaussian 16, Revision A.03,

 -----------------------------------------------------------
 # opt freq B3LYP/6-31G(d) empiricaldispersion=gd3bj scf=xqc
 -----------------------------------------------------------

 ------------------------------
 CID_84120446_JID_5143_neutraal
 ------------------------------
 Symbolic Z-matrix:
 Charge =  0 Multiplicity = 1

 SCF Done:  E(RB3LYP) =  -634.247188978     A.U. after   15 cycles
 SCF Done:  E(RB3LYP) =  -634.251072961     A.U. after   12 cycles
 SCF Done:  E(RB3LYP) =  -634.251588669     A.U. after   12 cycles
 SCF Done:  E(RB3LYP) =  -634.251739194     A.U. after   11 cycles
 SCF Done:  E(RB3LYP) =  -634.251774608     A.U. after   10 cycles
 SCF Done:  E(RB3LYP) =  -634.251782458     A.U. after    9 cycles
 SCF Done:  E(RB3LYP) =  -634.251784384     A.U. after    8 cycles
 SCF Done:  E(RB3LYP) =  -634.251784938     A.U. after    8 cycles
 SCF Done:  E(RB3LYP) =  -634.251785064     A.U. after    7 cycles
 Optimization completed.
    -- Stationary point found.
 Normal termination of Gaussian 16 at Thu Dec 10 14:45:42 2020.

 --------------------------------------------------------------------
 #N Geom=AllCheck Guess=TCheck SCRF=Check GenChk RB3LYP/6-31G(d) Freq
 --------------------------------------------------------------------

 Structure from the checkpoint file:  "JID_5143.chk"
 ------------------------------
 CID_84120446_JID_5143_neutraal
 ------------------------------
 Charge =  0 Multiplicity = 1

 SCF Done:  E(RB3LYP) =  -634.251785064     A.U. after    1 cycles

  Exact polarizability: 171.834  -2.893 138.957   4.323   6.008 113.315
 Approx polarizability: 227.358  -4.169 205.168   9.889  17.511 170.630

                      1                      2                      3
                      A                      A                      A
 Frequencies --     34.8798                60.6219                82.3167
 Red. masses --      3.7214                 3.6042                 3.0366
 Frc consts  --      0.0027                 0.0078                 0.0121
 IR Inten    --      0.6923                 1.3178                 1.1757

                      4                      5                      6
                      A                      A                      A
 Frequencies --     97.0589               113.8987               119.4377
 Red. masses --      3.3736                 3.3485                 1.2556
 Frc consts  --      0.0187                 0.0256                 0.0106
 IR Inten    --      1.7249                 0.9263                 0.1423

                      7                      8                      9
                      A                      A                      A
 Frequencies --    155.2552               187.8607               201.4909
 Red. masses --      2.5567                 2.3469                 3.2424
 Frc consts  --      0.0363                 0.0488                 0.0776
 IR Inten    --      3.4886                 1.3845                 0.2232

                     10                     11                     12
                      A                      A                      A
 Frequencies --    243.8531               255.4217               272.2138
 Red. masses --      2.6987                 2.1909                 3.1198
 Frc consts  --      0.0945                 0.0842                 0.1362
 IR Inten    --      1.0806                 0.3826                 0.6363

                     13                     14                     15
                      A                      A                      A
 Frequencies --    300.1357               347.0663               366.7138
 Red. masses --      1.2442                 2.1099                 1.6947
 Frc consts  --      0.0660                 0.1497                 0.1343
 IR Inten    --     80.6475                22.3616                 2.6718

                     16                     17                     18
                      A                      A                      A
 Frequencies --    407.6180               448.5500               458.4954
 Red. masses --      2.8471                 3.3282                 2.5640
 Frc consts  --      0.2787                 0.3945                 0.3176
 IR Inten    --      1.6399                 2.5306                 3.0042

                     19                     20                     21
                      A                      A                      A
 Frequencies --    498.6295               500.6046               545.3237
 Red. masses --      2.0484                 3.1680                 2.3783
 Frc consts  --      0.3001                 0.4678                 0.4167
 IR Inten    --      1.5597                 8.6210                 0.4282

                     22                     23                     24
                      A                      A                      A
 Frequencies --    643.4926               680.6947               730.6356
 Red. masses --      3.5417                 3.1108                 3.7405
 Frc consts  --      0.8641                 0.8492                 1.1765
 IR Inten    --      3.0408                 4.9449                 3.9148

                     25                     26                     27
                      A                      A                      A
 Frequencies --    752.7571               760.8573               787.1552
 Red. masses --      3.8105                 3.2642                 1.5197
 Frc consts  --      1.2722                 1.1133                 0.5548
 IR Inten    --      2.8721                 2.3408                 8.3091

                     28                     29                     30
                      A                      A                      A
 Frequencies --    799.1991               822.3514               864.8473
 Red. masses --      1.5088                 3.3178                 1.9463
 Frc consts  --      0.5678                 1.3219                 0.8577
 IR Inten    --      0.4040                 0.3080                63.0219

                     31                     32                     33
                      A                      A                      A
 Frequencies --    878.3333               885.6944               889.4321
 Red. masses --      2.4867                 1.6436                 2.1709
 Frc consts  --      1.1303                 0.7596                 1.0118
 IR Inten    --      1.3619                 2.4264                 1.7458

                     34                     35                     36
                      A                      A                      A
 Frequencies --    900.7169               925.8304               960.8356
 Red. masses --      1.4544                 2.1293                 1.3755
 Frc consts  --      0.6952                 1.0753                 0.7482
 IR Inten    --     65.6718                 2.6576                 2.7719

                     37                     38                     39
                      A                      A                      A
 Frequencies --   1004.3717              1040.7054              1051.0531
 Red. masses --      2.5513                 2.4839                 1.8314
 Frc consts  --      1.5164                 1.5851                 1.1920
 IR Inten    --      7.0691                14.2769                 0.2157

                     40                     41                     42
                      A                      A                      A
 Frequencies --   1055.1280              1086.2170              1095.6321
 Red. masses --      1.6533                 1.6106                 2.5312
 Frc consts  --      1.0845                 1.1196                 1.7902
 IR Inten    --      0.1127                 9.3586                 8.1484

                     43                     44                     45
                      A                      A                      A
 Frequencies --   1104.8946              1126.3475              1130.8124
 Red. masses --      2.0401                 2.0995                 1.9006
 Frc consts  --      1.4674                 1.5694                 1.4320
 IR Inten    --      0.1409                 4.1012                 6.1713

                     46                     47                     48
                      A                      A                      A
 Frequencies --   1143.8736              1160.0069              1175.5232
 Red. masses --      1.0485                 1.3029                 1.4725
 Frc consts  --      0.8083                 1.0329                 1.1989
 IR Inten    --      0.5175                 0.2977                 1.1368

                     49                     50                     51
                      A                      A                      A
 Frequencies --   1180.5859              1197.5489              1246.2992
 Red. masses --      1.2882                 2.5745                 1.4554
 Frc consts  --      1.0579                 2.1753                 1.3320
 IR Inten    --      0.7840                 3.8171                15.8499

                     52                     53                     54
                      A                      A                      A
 Frequencies --   1272.7271              1275.6895              1303.2449
 Red. masses --      1.6431                 1.3610                 1.2738
 Frc consts  --      1.5681                 1.3050                 1.2747
 IR Inten    --     13.4604                17.6239                 1.0609

                     55                     56                     57
                      A                      A                      A
 Frequencies --   1311.5622              1343.3741              1343.7502
 Red. masses --      1.3794                 1.4109                 2.0344
 Frc consts  --      1.3981                 1.5001                 2.1643
 IR Inten    --      6.4674                 1.2128                 6.5754

                     58                     59                     60
                      A                      A                      A
 Frequencies --   1358.2210              1369.3043              1372.5158
 Red. masses --      1.4894                 1.3234                 1.3625
 Frc consts  --      1.6189                 1.4619                 1.5123
 IR Inten    --      2.5587                 0.4764                 2.2819

                     61                     62                     63
                      A                      A                      A
 Frequencies --   1389.2437              1403.0983              1405.3615
 Red. masses --      1.5295                 1.4821                 1.4485
 Frc consts  --      1.7392                 1.7191                 1.6856
 IR Inten    --      4.2985                15.5784                 1.1573

                     64                     65                     66
                      A                      A                      A
 Frequencies --   1408.0441              1415.5136              1432.8956
 Red. masses --      1.3703                 1.9312                 2.1906
 Frc consts  --      1.6007                 2.2798                 2.6499
 IR Inten    --      0.5367                16.2910                12.0530

                     67                     68                     69
                      A                      A                      A
 Frequencies --   1441.8513              1447.5714              1477.0318
 Red. masses --      2.4649                 2.3062                 1.3463
 Frc consts  --      3.0192                 2.8472                 1.7305
 IR Inten    --      0.5026                 7.8111                20.0558

                     70                     71                     72
                      A                      A                      A
 Frequencies --   1503.8122              1506.0096              1512.3944
 Red. masses --      1.1049                 1.0864                 1.0506
 Frc consts  --      1.4722                 1.4517                 1.4159
 IR Inten    --      2.8097                 0.3980                 9.7171

                     73                     74                     75
                      A                      A                      A
 Frequencies --   1513.8113              1516.8707              1520.7696
 Red. masses --      1.0994                 1.0956                 1.0864
 Frc consts  --      1.4844                 1.4853                 1.4804
 IR Inten    --      2.1101                 5.3827                 6.8480

                     76                     77                     78
                      A                      A                      A
 Frequencies --   1534.3938              1540.6908              1542.8758
 Red. masses --      1.1821                 1.1037                 1.2891
 Frc consts  --      1.6398                 1.5436                 1.8080
 IR Inten    --     35.2582                 3.6008                26.4343

                     79                     80                     81
                      A                      A                      A
 Frequencies --   1552.0446              1614.0827              1691.2213
 Red. masses --      1.8827                 6.6982                 1.0901
 Frc consts  --      2.6720                10.2816                 1.8370
 IR Inten    --     29.4429                 8.5324                31.4188

                     82                     83                     84
                      A                      A                      A
 Frequencies --   2935.6948              3008.6172              3016.2843
 Red. masses --      1.0737                 1.0674                 1.0650
 Frc consts  --      5.4522                 5.6928                 5.7090
 IR Inten    --     98.8888                29.7574                22.0429

                     85                     86                     87
                      A                      A                      A
 Frequencies --   3020.5783              3041.8896              3042.1285
 Red. masses --      1.0643                 1.0683                 1.0686
 Frc consts  --      5.7214                 5.8241                 5.8267
 IR Inten    --     48.5329                75.1035                49.5475

                     88                     89                     90
                      A                      A                      A
 Frequencies --   3047.9176              3058.8276              3062.0711
 Red. masses --      1.0661                 1.0361                 1.0986
 Frc consts  --      5.8352                 5.7119                 6.0692
 IR Inten    --     13.0626                56.3216                80.5208

                     91                     92                     93
                      A                      A                      A
 Frequencies --   3064.4290              3066.3736              3069.0406
 Red. masses --      1.0932                 1.0881                 1.0930
 Frc consts  --      6.0487                 6.0281                 6.0655
 IR Inten    --     83.8623                15.9659                24.1021

                     94                     95                     96
                      A                      A                      A
 Frequencies --   3071.1613              3099.9308              3111.1539
 Red. masses --      1.0865                 1.0984                 1.0962
 Frc consts  --      6.0381                 6.2190                 6.2513
 IR Inten    --     73.5526                22.0076                 6.9628

                     97                     98                     99
                      A                      A                      A
 Frequencies --   3111.4581              3118.2421              3154.6187
 Red. masses --      1.0960                 1.1053                 1.1026
 Frc consts  --      6.2515                 6.3321                 6.4648
 IR Inten    --     48.6683                19.9854                11.3938

                    100                    101                    102
                      A                      A                      A
 Frequencies --   3251.3054              3470.5098              3555.9930
 Red. masses --      1.0963                 1.0497                 1.0923
 Frc consts  --      6.8279                 7.4494                 8.1376
 IR Inten    --      5.7658                 3.5780                 0.3820

 - Thermochemistry -
 -------------------
 Temperature   298.150 Kelvin.  Pressure   1.00000 Atm.
 Atom     1 has atomic number  6 and mass  12.00000

 Molecular mass:   207.17355 amu.
 Principal axes and moments of inertia in atomic units:
                           1         2         3
     Eigenvalues --  1893.740294314.599485215.79756
           X            1.00000  -0.00055   0.00034
           Y            0.00055   0.99996  -0.00845
           Z           -0.00034   0.00845   0.99996
 This molecule is an asymmetric top.
 Rotational symmetry number  1.
 Warning -- assumption of classical behavior for rotation
           may cause significant error
 Rotational temperatures (Kelvin)      0.04574     0.02007     0.01661
 Rotational constants (GHZ):           0.95300     0.41829     0.34601
 Zero-point vibrational energy     858185.9 (Joules/Mol)
                                  205.11136 (Kcal/Mol)
 Warning -- explicit consideration of  21 degrees of freedom as
           vibrations may cause significant error
 Vibrational temperatures:     50.18    87.22   118.44   139.65   163.87
          (Kelvin)            171.84   223.38   270.29   289.90   350.85
                              367.49   391.65   431.83   499.35   527.62
                              586.47   645.36   659.67   717.42   720.26
                              784.60   925.84   979.37  1051.22  1083.05
                             1094.70  1132.54  1149.87  1183.18  1244.32
                             1263.73  1274.32  1279.69  1295.93  1332.06
                             1382.43  1445.07  1497.34  1512.23  1518.09
                             1562.82  1576.37  1589.70  1620.56  1626.99
                             1645.78  1668.99  1691.32  1698.60  1723.01
                             1793.15  1831.17  1835.43  1875.08  1887.05
                             1932.82  1933.36  1954.18  1970.12  1974.74
                             1998.81  2018.75  2022.00  2025.86  2036.61
                             2061.62  2074.50  2082.73  2125.12  2163.65
                             2166.81  2176.00  2178.04  2182.44  2188.05
                             2207.65  2216.71  2219.85  2233.05  2322.31
                             2433.29  4223.81  4328.73  4339.76  4345.94
                             4376.60  4376.94  4385.27  4400.97  4405.64
                             4409.03  4411.83  4415.66  4418.72  4460.11
                             4476.26  4476.69  4486.45  4538.79  4677.90
                             4993.29  5116.28

 Zero-point correction=                           0.326866 (Hartree/Particle)
 Thermal correction to Energy=                    0.341802
 Thermal correction to Enthalpy=                  0.342746
 Thermal correction to Gibbs Free Energy=         0.284697
 Sum of electronic and zero-point Energies=           -633.924919
 Sum of electronic and thermal Energies=              -633.909983
 Sum of electronic and thermal Enthalpies=            -633.909039
 Sum of electronic and thermal Free Energies=         -633.967088

                     E (Thermal)             CV                S
                      KCal/Mol        Cal/Mol-Kelvin    Cal/Mol-Kelvin
 Total                  214.484             57.516            122.176
 Electronic               0.000              0.000              0.000
 Translational            0.889              2.981             41.889
 Rotational               0.889              2.981             32.122
 Vibrational            212.707             51.555             48.165
 Vibration     1          0.594              1.983              5.531
 Vibration     2          0.597              1.973              4.437
 Vibration     3          0.600              1.961              3.835
 Vibration     4          0.603              1.951              3.513
 Vibration     5          0.607              1.938              3.201
 Vibration     6          0.609              1.933              3.109
 Vibration     7          0.620              1.897              2.607
 Vibration     8          0.633              1.857              2.249
 Vibration     9          0.638              1.838              2.119
 Vibration    10          0.659              1.773              1.775
 Vibration    11          0.666              1.754              1.693
 Vibration    12          0.675              1.725              1.582
 Vibration    13          0.693              1.673              1.416
 Vibration    14          0.725              1.581              1.179
 Vibration    15          0.740              1.541              1.094
 Vibration    16          0.772              1.454              0.935
 Vibration    17          0.808              1.364              0.800
 Vibration    18          0.817              1.342              0.770
 Vibration    19          0.854              1.253              0.662
 Vibration    20          0.856              1.249              0.657
 Vibration    21          0.900              1.150              0.554

                           ! Non-Optimized Parameters !
 Normal termination of Gaussian 16 at Thu Dec 10 14:57:26 2020.

 ----------------------------------------------------------------------
 # B3LYP/6-311++G(d,p) empiricaldispersion=gd3bj scf=xqc pop=npa geom=c
 heck
 ----------------------------------------------------------------------

 --------------------------------------
 CID_84120446_JID_5143_Energie_neutraal
 --------------------------------------
 Structure from the checkpoint file:  "JID_5143.chk"
 Charge =  0 Multiplicity = 1

 SCF Done:  E(RB3LYP) =  -634.426615546     A.U. after   15 cycles
 Normal termination of Gaussian 16 at Thu Dec 10 15:02:33 2020.

 ----------------------------------------------------------------------
 # B3LYP/6-311++G(d,p) empiricaldispersion=gd3bj scf=xqc pop=npa geom=c
 heck
 ----------------------------------------------------------------------

 ------------------------------------
 CID_84120446_JID_5143_Energie_kation
 ------------------------------------
 Structure from the checkpoint file:  "JID_5143.chk"
 Charge =  1 Multiplicity = 2

 SCF Done:  E(UB3LYP) =  -634.145122194     A.U. after   21 cycles
 Normal termination of Gaussian 16 at Thu Dec 10 15:13:12 2020.
 Gaussian 16:  ES64L-G16RevA.03 25-Dec-2016

 ----------------------------------------------------------------------
 # B3LYP/6-311++G(d,p) empiricaldispersion=gd3bj scf=xqc pop=npa geom=c
 heck
 ----------------------------------------------------------------------

 -----------------------------------
 CID_84120446_JID_5143_Energie_anion
 -----------------------------------
 Structure from the checkpoint file:  "JID_5143.chk"
 Charge = -1 Multiplicity = 2

                         Standard orientation:
 ---------------------------------------------------------------------
 Center     Atomic      Atomic             Coordinates (Angstroms)
 Number     Number       Type             X           Y           Z
 ---------------------------------------------------------------------
      1          6           0        3.293510   -1.862212   -0.070320
      2          7           0        1.914353   -1.422377   -0.143187
      3          6           0        0.874518   -2.114432   -0.696953
      4          7           0       -0.266186   -1.471454   -0.580572
      5          6           0        0.030380   -0.291834    0.085773
      6          6           0        1.383289   -0.244162    0.375401
      7          6           0        2.232377    0.799059    1.032228
      8          6           0        2.852854    1.795428    0.035926
      9          7           0        1.794816    2.545727   -0.638382
     10          6           0       -1.007497    0.739000    0.442052
     11          6           0       -1.800869    1.258346   -0.781037
     12          6           0       -2.835380    0.254324   -1.307113
     13          6           0       -3.785591   -0.199119   -0.190338
     14          6           0       -3.006215   -0.774241    1.000093
     15          6           0       -1.988029    0.242083    1.532372
     16          1           0        3.960642   -1.147389   -0.562302
     17          1           0        3.613329   -1.982751    0.970262
     18          1           0        3.379982   -2.826894   -0.575002
     19          1           0        1.017272   -3.078899   -1.167406
     20          1           0        1.617432    1.365386    1.738127
     21          1           0        3.034561    0.328479    1.615336
     22          1           0        3.477423    2.506470    0.590215
     23          1           0        3.525726    1.246301   -0.650063
     24          1           0        2.198205    3.199001   -1.306954
     25          1           0        1.218533    1.897770   -1.174048
     26          1           0       -0.459427    1.595843    0.849833
     27          1           0       -2.318248    2.179522   -0.475773
     28          1           0       -1.104986    1.542261   -1.580892
     29          1           0       -2.313766   -0.618811   -1.711794
     30          1           0       -3.405063    0.710106   -2.127758
     31          1           0       -4.494195   -0.943287   -0.575652
     32          1           0       -4.384961    0.659667    0.149963
     33          1           0       -2.478859   -1.680196    0.681422
     34          1           0       -3.696611   -1.061548    1.803937
     35          1           0       -1.419891   -0.183683    2.368825
     36          1           0       -2.528066    1.115949    1.926205
 ---------------------------------------------------------------------

 SCF Done:  E(UB3LYP) =  -634.416627160     A.U. after   31 cycles

 The electronic state is 2-A.
 Alpha  occ. eigenvalues --  -14.26443 -14.19072 -14.18671 -10.11573 -10.10387
 Alpha  occ. eigenvalues --  -10.09470 -10.09018 -10.08067 -10.07586 -10.07548
 Alpha  occ. eigenvalues --  -10.07200 -10.06942 -10.06838 -10.06548 -10.06320
 Alpha  occ. eigenvalues --   -0.91218  -0.78576  -0.78254  -0.73512  -0.68374
 Alpha  occ. eigenvalues --   -0.65297  -0.64455  -0.61804  -0.59611  -0.52902
 Alpha  occ. eigenvalues --   -0.51695  -0.51216  -0.48021  -0.45977  -0.43469
 Alpha  occ. eigenvalues --   -0.40252  -0.39405  -0.38559  -0.37365  -0.36331
 Alpha  occ. eigenvalues --   -0.35096  -0.34479  -0.34135  -0.32841  -0.32164
 Alpha  occ. eigenvalues --   -0.30422  -0.29653  -0.28372  -0.27993  -0.27767
 Alpha  occ. eigenvalues --   -0.27379  -0.26696  -0.25762  -0.25084  -0.24670
 Alpha  occ. eigenvalues --   -0.22623  -0.20877  -0.20613  -0.16465  -0.16375
 Alpha  occ. eigenvalues --   -0.14448  -0.11573   0.04298
 Alpha virt. eigenvalues --    0.06373   0.06927   0.07635   0.08446   0.08497
 Alpha virt. eigenvalues --    0.08957   0.09326   0.10056   0.10878   0.11104
 Alpha virt. eigenvalues --    0.11387   0.11472   0.12030   0.12658   0.13126

  Beta  occ. eigenvalues --  -14.26438 -14.19049 -14.18671 -10.11559 -10.10304
  Beta  occ. eigenvalues --  -10.09470 -10.08980 -10.08063 -10.07568 -10.07547
  Beta  occ. eigenvalues --  -10.07199 -10.06938 -10.06835 -10.06547 -10.06319
  Beta  occ. eigenvalues --   -0.91205  -0.78548  -0.78222  -0.73507  -0.68349
  Beta  occ. eigenvalues --   -0.65277  -0.64450  -0.61725  -0.59557  -0.52885
  Beta  occ. eigenvalues --   -0.51619  -0.51208  -0.48010  -0.45913  -0.43447
  Beta  occ. eigenvalues --   -0.40195  -0.39355  -0.38545  -0.37310  -0.36287
  Beta  occ. eigenvalues --   -0.35077  -0.34466  -0.34102  -0.32807  -0.32144
  Beta  occ. eigenvalues --   -0.30354  -0.29617  -0.28366  -0.27971  -0.27758
  Beta  occ. eigenvalues --   -0.27334  -0.26651  -0.25726  -0.25075  -0.24666
  Beta  occ. eigenvalues --   -0.22618  -0.20870  -0.20608  -0.16456  -0.16352
  Beta  occ. eigenvalues --   -0.14411  -0.11551
  Beta virt. eigenvalues --    0.06216   0.07232   0.07759   0.07855   0.08627
  Beta virt. eigenvalues --    0.08960   0.09260   0.09818   0.10436   0.10995
  Beta virt. eigenvalues --    0.11429   0.11632   0.11735   0.12170   0.12882

 Mulliken charges and spin densities:
               1          2
     1  C    2.153886  -2.476612
     2  N   -0.224937   0.278785
     3  C    0.363598  -0.026570
     4  N   -0.193709   0.067777
     5  C   -0.442245  -0.163768
     6  C    0.604769  -0.485627
     7  C   -1.701837   1.294085
     8  C    1.581448  -1.983794
     9  N   -0.493502   0.097585
    10  C    0.659791  -0.132638
    11  C   -0.264345  -0.246396
    12  C   -0.447976   0.156723
    13  C   -0.386383  -0.171363
    14  C   -0.351410   0.088725
    15  C   -0.430563  -0.178050
    16  H   -0.556398   0.741467
    17  H   -0.670328   0.863131
    18  H   -0.615014   0.762979
    19  H   -0.272658   0.452970
    20  H   -0.026606   0.194164
    21  H   -0.136862   0.288921
    22  H   -0.468808   0.645249
    23  H   -0.308666   0.437139
    24  H   -0.017192   0.279159
    25  H    0.228338  -0.013715
    26  H    0.306020  -0.069591
    27  H    0.105646   0.039718
    28  H    0.071145   0.048496
    29  H    0.155929   0.017426
    30  H    0.111205   0.029743
    31  H    0.116765   0.029640
    32  H    0.095282   0.007768
    33  H    0.148749   0.010986
    34  H    0.112530   0.028894
    35  H    0.113016   0.035954
    36  H    0.081324   0.050639
 Sum of Mulliken charges =  -1.00000   1.00000

 Dipole moment (field-independent basis, Debye):
    X=            -11.0458    Y=              1.8984    Z=              0.8049  Tot=             11.2366
 Quadrupole moment (field-independent basis, Debye-Ang):
   XX=           -180.9470   YY=           -144.9999   ZZ=           -123.5111
   XY=              6.9990   XZ=              0.2482   YZ=             -0.9605

 Summary of Natural Population Analysis:

                                       Natural Population
                Natural  -----------------------------------------------
    Atom  No    Charge         Core      Valence    Rydberg      Total
 -----------------------------------------------------------------------
      C    1   -0.17512      0.99963     2.16692    0.00856     3.17512
      N    2   -0.20317      0.99962     2.69213    0.01142     3.70317
      C    3    0.11069      0.99961     1.87272    0.01698     2.88931
      N    4   -0.27225      0.99970     2.76227    0.01028     3.77225
      C    5    0.05175      0.99944     1.93197    0.01684     2.94825
      C    6    0.06217      0.99945     1.92486    0.01352     2.93783
      C    7   -0.21119      0.99960     2.20204    0.00956     3.21119
      C    8   -0.08205      0.99963     2.07130    0.01111     3.08205
      N    9   -0.42617      0.99977     2.91579    0.01061     3.92617
      C   10   -0.12631      0.99955     2.11555    0.01121     3.12631
      C   11   -0.18040      0.99962     2.17292    0.00786     3.18040
      C   12   -0.19758      0.99963     2.19015    0.00780     3.19758
      C   13   -0.18768      0.99964     2.18041    0.00764     3.18768
      C   14   -0.19705      0.99963     2.18946    0.00796     3.19705
      C   15   -0.18145      0.99962     2.17419    0.00765     3.18145
      H   16    0.10499      0.00000     0.39098    0.00403     0.39501
      H   17    0.10162      0.00000     0.39543    0.00294     0.39838
      H   18    0.10556      0.00000     0.39115    0.00330     0.39444
      H   19    0.09209      0.00000     0.40667    0.00124     0.40791
      H   20    0.10708      0.00000     0.39144    0.00147     0.39292
      H   21    0.10982      0.00000     0.38861    0.00157     0.39018
      H   22    0.09019      0.00000     0.40803    0.00178     0.40981
      H   23    0.08055      0.00000     0.41633    0.00313     0.41945
      H   24    0.17606      0.00000     0.32214    0.00180     0.32394
      H   25    0.17495      0.00000     0.32286    0.00219     0.32505
      H   26    0.11026      0.00000     0.38756    0.00219     0.38974
      H   27    0.09092      0.00000     0.40793    0.00116     0.40908
      H   28    0.09924      0.00000     0.39954    0.00121     0.40076
      H   29    0.11051      0.00000     0.38785    0.00164     0.38949
      H   30    0.09130      0.00000     0.40769    0.00102     0.40870
      H   31    0.09448      0.00000     0.40448    0.00104     0.40552
      H   32    0.08639      0.00000     0.41218    0.00144     0.41361
      H   33    0.10819      0.00000     0.39024    0.00158     0.39181
      H   34    0.09150      0.00000     0.40746    0.00105     0.40850
      H   35    0.10030      0.00000     0.39874    0.00097     0.39970
      H   36    0.08983      0.00000     0.40898    0.00119     0.41017
 =======================================================================
   * Total *    0.00000     14.99414    41.80896    0.19690    57.00000

 Normal termination of Gaussian 16 at Thu Dec 10 15:27:28 2020.
