 Gaussian 16, Revision A.03,

 -----------------------------------------------------------
 # opt freq B3LYP/6-31G(d) empiricaldispersion=gd3bj scf=xqc
 -----------------------------------------------------------

 ------------------------------
 CID_88765420_JID_1592_neutraal
 ------------------------------
 Symbolic Z-matrix:
 Charge =  0 Multiplicity = 1

 SCF Done:  E(RB3LYP) =  -1230.62270941     A.U. after   15 cycles
 SCF Done:  E(RB3LYP) =  -1230.62681210     A.U. after   14 cycles
 SCF Done:  E(RB3LYP) =  -1230.62753288     A.U. after   13 cycles
 SCF Done:  E(RB3LYP) =  -1230.62817912     A.U. after   14 cycles
 SCF Done:  E(RB3LYP) =  -1230.62919153     A.U. after   13 cycles
 SCF Done:  E(RB3LYP) =  -1230.63008208     A.U. after   14 cycles
 SCF Done:  E(RB3LYP) =  -1230.63006671     A.U. after   13 cycles
 SCF Done:  E(RB3LYP) =  -1230.63053797     A.U. after   12 cycles
 SCF Done:  E(RB3LYP) =  -1230.63077763     A.U. after   12 cycles
 SCF Done:  E(RB3LYP) =  -1230.63081816     A.U. after   12 cycles
 SCF Done:  E(RB3LYP) =  -1230.63086792     A.U. after   10 cycles
 SCF Done:  E(RB3LYP) =  -1230.63087032     A.U. after   10 cycles
 SCF Done:  E(RB3LYP) =  -1230.63087217     A.U. after   10 cycles
 SCF Done:  E(RB3LYP) =  -1230.63087287     A.U. after    9 cycles
 SCF Done:  E(RB3LYP) =  -1230.63087307     A.U. after    8 cycles
 Optimization completed.
    -- Stationary point found.
 Normal termination of Gaussian 16 at Tue Dec  8 20:28:27 2020.

 --------------------------------------------------------------------
 #N Geom=AllCheck Guess=TCheck SCRF=Check GenChk RB3LYP/6-31G(d) Freq
 --------------------------------------------------------------------

 Structure from the checkpoint file:  "JID_1592.chk"
 ------------------------------
 CID_88765420_JID_1592_neutraal
 ------------------------------
 Charge =  0 Multiplicity = 1

 SCF Done:  E(RB3LYP) =  -1230.63087307     A.U. after    1 cycles

  Exact polarizability: 132.055  -4.777 107.103  -0.377  -7.653  70.354
 Approx polarizability: 187.390 -14.679 192.848   6.592 -33.273 126.407

                      1                      2                      3
                      A                      A                      A
 Frequencies --     37.4876                57.0558               101.1572
 Red. masses --      8.9883                 7.6658                 5.2664
 Frc consts  --      0.0074                 0.0147                 0.0318
 IR Inten    --      3.9776                 1.5500                 0.5413

                      4                      5                      6
                      A                      A                      A
 Frequencies --    115.1922               137.7835               202.8329
 Red. masses --      1.0815                 7.8149                 4.6276
 Frc consts  --      0.0085                 0.0874                 0.1122
 IR Inten    --      0.2700                 7.5314                 8.3778

                      7                      8                      9
                      A                      A                      A
 Frequencies --    253.5708               296.2296               326.8378
 Red. masses --      7.1478                 4.1220                 1.0895
 Frc consts  --      0.2708                 0.2131                 0.0686
 IR Inten    --      4.7182                16.9610                15.2042

                     10                     11                     12
                      A                      A                      A
 Frequencies --    362.5923               377.9647               407.6221
 Red. masses --      5.5516                 5.5907                 4.6724
 Frc consts  --      0.4300                 0.4706                 0.4574
 IR Inten    --      1.5801                 5.4138                 6.8760

                     13                     14                     15
                      A                      A                      A
 Frequencies --    479.2986               531.4456               557.1649
 Red. masses --      1.8250                 2.2723                 4.4375
 Frc consts  --      0.2470                 0.3781                 0.8116
 IR Inten    --     79.5876               175.0738                38.0185

                     16                     17                     18
                      A                      A                      A
 Frequencies --    596.7962               616.6951               626.4177
 Red. masses --      5.4872                 3.4879                 5.5295
 Frc consts  --      1.1515                 0.7815                 1.2784
 IR Inten    --      6.0858                16.6447                14.6085

                     19                     20                     21
                      A                      A                      A
 Frequencies --    648.9897               671.1244               752.3102
 Red. masses --      6.2705                 1.5815                 4.0977
 Frc consts  --      1.5561                 0.4197                 1.3664
 IR Inten    --      5.7254                 7.9746                12.5881

                     22                     23                     24
                      A                      A                      A
 Frequencies --    799.7016               824.2536               907.4551
 Red. masses --      3.3083                 5.7002                 5.3858
 Frc consts  --      1.2466                 2.2817                 2.6130
 IR Inten    --     20.9433                 1.4762                22.8595

                     25                     26                     27
                      A                      A                      A
 Frequencies --    966.0140              1012.4080              1069.3891
 Red. masses --      1.3797                 1.8321                 1.4235
 Frc consts  --      0.7586                 1.1064                 0.9592
 IR Inten    --     24.6763                 5.4287                 1.1081

                     28                     29                     30
                      A                      A                      A
 Frequencies --   1126.1314              1155.4537              1197.3578
 Red. masses --      6.6297                 1.8718                 5.0413
 Frc consts  --      4.9536                 1.4724                 4.2583
 IR Inten    --      6.3499                 0.7744                38.2938

                     31                     32                     33
                      A                      A                      A
 Frequencies --   1232.0331              1240.3786              1283.7259
 Red. masses --      1.5340                 3.0056                 1.2839
 Frc consts  --      1.3719                 2.7245                 1.2466
 IR Inten    --     58.0891                18.9238                 4.1874

                     34                     35                     36
                      A                      A                      A
 Frequencies --   1356.3872              1436.1956              1494.0519
 Red. masses --      3.2731                 1.2595                 1.6574
 Frc consts  --      3.5480                 1.5307                 2.1797
 IR Inten    --    127.3407                 0.9968                26.9595

                     37                     38                     39
                      A                      A                      A
 Frequencies --   1504.8400              1506.6086              1550.0257
 Red. masses --      5.1884                 1.0443                 2.8920
 Frc consts  --      6.9225                 1.3967                 4.0939
 IR Inten    --      7.1676                10.4525                12.2830

                     40                     41                     42
                      A                      A                      A
 Frequencies --   1659.8212              1810.1147              2606.7299
 Red. masses --      1.2205                 9.3129                 1.0371
 Frc consts  --      1.9811                17.9782                 4.1522
 IR Inten    --    136.9524               243.4616                58.6258

                     43                     44                     45
                      A                      A                      A
 Frequencies --   3062.3302              3091.3021              3120.3507
 Red. masses --      1.0365                 1.0834                 1.1019
 Frc consts  --      5.7271                 6.0997                 6.3210
 IR Inten    --     12.2724                 3.6952                 7.5852

                     46                     47                     48
                      A                      A                      A
 Frequencies --   3161.9457              3518.3625              3672.0849
 Red. masses --      1.1016                 1.0520                 1.0990
 Frc consts  --      6.4891                 7.6730                 8.7312
 IR Inten    --      2.9675                86.7387                89.3487

 - Thermochemistry -
 -------------------
 Temperature   298.150 Kelvin.  Pressure   1.00000 Atm.
 Atom     1 has atomic number  6 and mass  12.00000

 Molecular mass:   189.00306 amu.
 Principal axes and moments of inertia in atomic units:
                           1         2         3
     Eigenvalues --  1212.878083138.475833909.51519
           X            0.99988   0.01215  -0.00979
           Y           -0.01218   0.99992  -0.00240
           Z            0.00976   0.00252   0.99995
 This molecule is an asymmetric top.
 Rotational symmetry number  1.
 Warning -- assumption of classical behavior for rotation
           may cause significant error
 Rotational temperatures (Kelvin)      0.07141     0.02760     0.02215
 Rotational constants (GHZ):           1.48798     0.57504     0.46163
 Zero-point vibrational energy     332095.4 (Joules/Mol)
                                   79.37271 (Kcal/Mol)
 Warning -- explicit consideration of  17 degrees of freedom as
           vibrations may cause significant error
 Vibrational temperatures:     53.94    82.09   145.54   165.74   198.24
          (Kelvin)            291.83   364.83   426.21   470.25   521.69
                              543.81   586.48   689.60   764.63   801.64
                              858.66   887.29   901.28   933.75   965.60
                             1082.41  1150.59  1185.92  1305.63  1389.88
                             1456.63  1538.61  1620.25  1662.44  1722.73
                             1772.62  1784.63  1847.00  1951.54  2066.37
                             2149.61  2165.13  2167.67  2230.14  2388.11
                             2604.35  3750.50  4406.01  4447.69  4489.49
                             4549.33  5062.14  5283.31

 Zero-point correction=                           0.126488 (Hartree/Particle)
 Thermal correction to Energy=                    0.137822
 Thermal correction to Enthalpy=                  0.138766
 Thermal correction to Gibbs Free Energy=         0.087968
 Sum of electronic and zero-point Energies=          -1230.504385
 Sum of electronic and thermal Energies=             -1230.493051
 Sum of electronic and thermal Enthalpies=           -1230.492107
 Sum of electronic and thermal Free Energies=        -1230.542905

                     E (Thermal)             CV                S
                      KCal/Mol        Cal/Mol-Kelvin    Cal/Mol-Kelvin
 Total                   86.484             40.926            106.913
 Electronic               0.000              0.000              0.000
 Translational            0.889              2.981             41.616
 Rotational               0.889              2.981             31.076
 Vibrational             84.707             34.965             34.221
 Vibration     1          0.594              1.982              5.388
 Vibration     2          0.596              1.975              4.557
 Vibration     3          0.604              1.948              3.432
 Vibration     4          0.608              1.937              3.179
 Vibration     5          0.614              1.916              2.834
 Vibration     6          0.639              1.836              2.107
 Vibration     7          0.665              1.757              1.706
 Vibration     8          0.690              1.681              1.438
 Vibration     9          0.710              1.622              1.276
 Vibration    10          0.736              1.549              1.111
 Vibration    11          0.748              1.517              1.047
 Vibration    12          0.772              1.454              0.935
 Vibration    13          0.836              1.296              0.712
 Vibration    14          0.886              1.180              0.584
 Vibration    15          0.913              1.124              0.530
 Vibration    16          0.955              1.039              0.455
 Vibration    17          0.976              0.997              0.422

                           ! Non-Optimized Parameters !
 Normal termination of Gaussian 16 at Tue Dec  8 20:32:20 2020.

 ----------------------------------------------------------------------
 # B3LYP/6-311++G(d,p) empiricaldispersion=gd3bj scf=xqc pop=npa geom=c
 heck
 ----------------------------------------------------------------------

 --------------------------------------
 CID_88765420_JID_1592_Energie_neutraal
 --------------------------------------
 Structure from the checkpoint file:  "JID_1592.chk"
 Charge =  0 Multiplicity = 1

 SCF Done:  E(RB3LYP) =  -1230.81584533     A.U. after   17 cycles
 Normal termination of Gaussian 16 at Tue Dec  8 20:34:42 2020.

 ----------------------------------------------------------------------
 # B3LYP/6-311++G(d,p) empiricaldispersion=gd3bj scf=xqc pop=npa geom=c
 heck
 ----------------------------------------------------------------------

 ------------------------------------
 CID_88765420_JID_1592_Energie_kation
 ------------------------------------
 Structure from the checkpoint file:  "JID_1592.chk"
 Charge =  1 Multiplicity = 2

 SCF Done:  E(UB3LYP) =  -1230.48680366     A.U. after   27 cycles
 Normal termination of Gaussian 16 at Tue Dec  8 20:39:43 2020.
 Gaussian 16:  ES64L-G16RevA.03 25-Dec-2016

 ----------------------------------------------------------------------
 # B3LYP/6-311++G(d,p) empiricaldispersion=gd3bj scf=xqc pop=npa geom=c
 heck
 ----------------------------------------------------------------------

 -----------------------------------
 CID_88765420_JID_1592_Energie_anion
 -----------------------------------
 Structure from the checkpoint file:  "JID_1592.chk"
 Charge = -1 Multiplicity = 2

                         Standard orientation:
 ---------------------------------------------------------------------
 Center     Atomic      Atomic             Coordinates (Angstroms)
 Number     Number       Type             X           Y           Z
 ---------------------------------------------------------------------
      1          6           0       -3.931892   -0.110663    0.526391
      2          6           0       -2.521780    0.118692    0.087269
      3          7           0       -2.138019    1.187634   -0.554410
      4          7           0       -0.802458    1.168576   -0.860499
      5          6           0       -0.187228    0.095908   -0.447605
      6         16           0       -1.229349   -1.034794    0.377877
      7          6           0        1.299206   -0.079186   -0.623754
      8          6           0        2.078177    0.907747    0.311119
      9          8           0        2.917635    0.531942    1.114518
     10          7           0        1.756729    2.203706    0.089214
     11         16           0        1.863888   -1.801210   -0.375989
     12          1           0       -4.350659   -1.011848    0.065469
     13          1           0       -3.996957   -0.228873    1.613426
     14          1           0       -4.531426    0.751633    0.226578
     15          1           0        1.534023    0.221200   -1.649657
     16          1           0        0.905810    2.427156   -0.419105
     17          1           0        2.140196    2.890711    0.723966
     18          1           0        2.672645   -1.443852    0.652318
 ---------------------------------------------------------------------

 SCF Done:  E(UB3LYP) =  -1230.81648323     A.U. after   33 cycles
 SCF Done:  E(UB3LYP) =  -1230.81648323     a.u. after    1 cycles

 The electronic state is 2-A.
 Alpha  occ. eigenvalues --  -88.72395 -88.71758 -18.98069 -14.21348 -14.18579
 Alpha  occ. eigenvalues --  -14.17618 -10.15766 -10.09758 -10.07392 -10.06729
 Alpha  occ. eigenvalues --  -10.05433  -7.81061  -7.80502  -5.77329  -5.77005
 Alpha  occ. eigenvalues --   -5.76868  -5.76684  -5.76518  -5.75902  -0.93038
 Alpha  occ. eigenvalues --   -0.87032  -0.79378  -0.70431  -0.67218  -0.63448
 Alpha  occ. eigenvalues --   -0.58835  -0.55112  -0.47447  -0.43618  -0.42961
 Alpha  occ. eigenvalues --   -0.40139  -0.36755  -0.34234  -0.32013  -0.31395
 Alpha  occ. eigenvalues --   -0.30655  -0.28447  -0.27930  -0.26562  -0.24949
 Alpha  occ. eigenvalues --   -0.24017  -0.21734  -0.17013  -0.16225  -0.15591
 Alpha  occ. eigenvalues --   -0.14266  -0.12821  -0.11984  -0.10987   0.05519
 Alpha virt. eigenvalues --    0.08252   0.08613   0.10229   0.11077   0.11853
 Alpha virt. eigenvalues --    0.12203   0.13064   0.13226   0.13900   0.14926
 Alpha virt. eigenvalues --    0.15094   0.15877   0.16165   0.16918   0.17137

  Beta  occ. eigenvalues --  -88.72336 -88.71751 -18.98000 -14.21339 -14.18665
  Beta  occ. eigenvalues --  -14.17483 -10.15610 -10.09806 -10.07016 -10.06195
  Beta  occ. eigenvalues --  -10.05453  -7.81007  -7.80496  -5.77309  -5.76987
  Beta  occ. eigenvalues --   -5.76854  -5.76510  -5.76474  -5.75898  -0.92876
  Beta  occ. eigenvalues --   -0.86741  -0.79305  -0.69998  -0.66838  -0.63216
  Beta  occ. eigenvalues --   -0.58706  -0.54943  -0.47068  -0.43295  -0.42728
  Beta  occ. eigenvalues --   -0.39791  -0.36519  -0.33850  -0.31842  -0.30894
  Beta  occ. eigenvalues --   -0.30413  -0.28058  -0.27713  -0.25769  -0.24629
  Beta  occ. eigenvalues --   -0.23797  -0.21632  -0.16800  -0.15947  -0.15402
  Beta  occ. eigenvalues --   -0.13293  -0.12532  -0.11176  -0.10142
  Beta virt. eigenvalues --    0.08392   0.08776   0.10095   0.10568   0.11686
  Beta virt. eigenvalues --    0.12029   0.12968   0.13202   0.13830   0.14247
  Beta virt. eigenvalues --    0.14951   0.14987   0.16041   0.16250   0.17053

 Mulliken charges and spin densities:
               1          2
     1  C    0.057913  -0.464098
     2  C   -0.019812   0.361554
     3  N   -0.049504  -0.032541
     4  N   -0.169800   0.076352
     5  C    0.680258   0.350418
     6  S   -0.323510   0.149356
     7  C   -0.698964  -0.164701
     8  C   -0.168965   0.049280
     9  O   -0.375939   0.025507
    10  N   -0.295852  -0.011007
    11  S   -0.387015   0.030949
    12  H    0.152798  -0.014561
    13  H   -0.188787   0.350065
    14  H    0.094725   0.040445
    15  H    0.150835   0.162301
    16  H    0.254022   0.014184
    17  H    0.197281   0.069295
    18  H    0.090316   0.007202
 Sum of Mulliken charges =  -1.00000   1.00000

 Dipole moment (field-independent basis, Debye):
    X=              1.0172    Y=             -0.1914    Z=             -0.6864  Tot=              1.2420
 Quadrupole moment (field-independent basis, Debye-Ang):
   XX=           -117.0143   YY=            -94.6390   ZZ=            -97.5368
   XY=              6.0045   XZ=              0.4407   YZ=              2.9275

 Summary of Natural Population Analysis:

                                       Natural Population
                Natural  -----------------------------------------------
    Atom  No    Charge         Core      Valence    Rydberg      Total
 -----------------------------------------------------------------------
      C    1   -0.30770      0.99961     2.30209    0.00599     3.30770
      C    2    0.07574      0.99965     1.90674    0.01787     2.92426
      N    3   -0.18175      0.99963     2.66718    0.01494     3.68175
      N    4   -0.17236      0.99959     2.65724    0.01553     3.67236
      C    5    0.09763      0.99956     1.88414    0.01867     2.90237
      S    6    0.18774      4.99940     2.79349    0.01936     7.81226
      C    7   -0.22161      0.99944     2.20907    0.01311     3.22161
      C    8    0.36502      0.99968     1.61059    0.02472     2.63498
      O    9   -0.32381      0.99987     3.31763    0.00631     4.32381
      N   10   -0.40853      0.99968     2.90140    0.00745     3.90853
      S   11   -0.03280      4.99964     3.01827    0.01489     8.03280
      H   12    0.10127      0.00000     0.39791    0.00082     0.39873
      H   13    0.10679      0.00000     0.39094    0.00227     0.39321
      H   14    0.10774      0.00000     0.39100    0.00126     0.39226
      H   15    0.12453      0.00000     0.37361    0.00186     0.37547
      H   16    0.21313      0.00000     0.28483    0.00204     0.28687
      H   17    0.18855      0.00000     0.30893    0.00252     0.31145
      H   18    0.08041      0.00000     0.41657    0.00302     0.41959
 =======================================================================
   * Total *   -0.00000     18.99576    29.83162    0.17262    49.00000

 Normal termination of Gaussian 16 at Tue Dec  8 20:46:26 2020.
