 Gaussian 16, Revision A.03,

 -----------------------------------------------------------
 # opt freq B3LYP/6-31G(d) empiricaldispersion=gd3bj scf=xqc
 -----------------------------------------------------------

 ------------------------------
 CID_76218546_JID_8085_neutraal
 ------------------------------
 Symbolic Z-matrix:
 Charge =  0 Multiplicity = 1

 SCF Done:  E(RB3LYP) =  -785.622219874     A.U. after   14 cycles
 SCF Done:  E(RB3LYP) =  -785.626327361     A.U. after   12 cycles
 SCF Done:  E(RB3LYP) =  -785.627169135     A.U. after   13 cycles
 SCF Done:  E(RB3LYP) =  -785.628360540     A.U. after   12 cycles
 SCF Done:  E(RB3LYP) =  -785.629343868     A.U. after   12 cycles
 SCF Done:  E(RB3LYP) =  -785.627457104     A.U. after   14 cycles
 SCF Done:  E(RB3LYP) =  -785.629722387     A.U. after   12 cycles
 SCF Done:  E(RB3LYP) =  -785.629946742     A.U. after   11 cycles
 SCF Done:  E(RB3LYP) =  -785.630012170     A.U. after   12 cycles
 SCF Done:  E(RB3LYP) =  -785.630027324     A.U. after    9 cycles
 SCF Done:  E(RB3LYP) =  -785.630033239     A.U. after    8 cycles
 SCF Done:  E(RB3LYP) =  -785.630033117     A.U. after    8 cycles
 SCF Done:  E(RB3LYP) =  -785.630033063     A.U. after    7 cycles
 SCF Done:  E(RB3LYP) =  -785.630033383     A.U. after    9 cycles
 SCF Done:  E(RB3LYP) =  -785.630033084     A.U. after    9 cycles
 Optimization completed.
    -- Stationary point found.
 Normal termination of Gaussian 16 at Fri Dec 11 18:57:28 2020.

 --------------------------------------------------------------------
 #N Geom=AllCheck Guess=TCheck SCRF=Check GenChk RB3LYP/6-31G(d) Freq
 --------------------------------------------------------------------

 Structure from the checkpoint file:  "JID_8085.chk"
 ------------------------------
 CID_76218546_JID_8085_neutraal
 ------------------------------
 Charge =  0 Multiplicity = 1

 SCF Done:  E(RB3LYP) =  -785.630033084     A.U. after    1 cycles

  Exact polarizability: 163.688  11.692 185.495  22.070 -10.280 134.263
 Approx polarizability: 228.253  19.523 280.680  44.487 -29.159 226.734

                      1                      2                      3
                      A                      A                      A
 Frequencies --     11.7585                27.3781                62.8623
 Red. masses --      4.5665                 5.8181                 3.9628
 Frc consts  --      0.0004                 0.0026                 0.0092
 IR Inten    --      0.0777                 0.0382                 0.3202

                      4                      5                      6
                      A                      A                      A
 Frequencies --     77.8359                97.1475               117.7570
 Red. masses --      3.2736                 4.2374                 2.6301
 Frc consts  --      0.0117                 0.0236                 0.0215
 IR Inten    --      0.2374                 1.2229                 0.1501

                      7                      8                      9
                      A                      A                      A
 Frequencies --    175.2819               181.5030               208.7537
 Red. masses --      3.4179                 2.9415                 3.0237
 Frc consts  --      0.0619                 0.0571                 0.0776
 IR Inten    --      0.1789                 1.4659                 0.9266

                     10                     11                     12
                      A                      A                      A
 Frequencies --    229.8089               255.6441               269.3394
 Red. masses --      3.2108                 2.1196                 1.2208
 Frc consts  --      0.0999                 0.0816                 0.0522
 IR Inten    --      7.0535                36.1692                 0.5126

                     13                     14                     15
                      A                      A                      A
 Frequencies --    287.3587               314.1076               322.6274
 Red. masses --      3.1632                 1.7298                 2.0600
 Frc consts  --      0.1539                 0.1006                 0.1263
 IR Inten    --      2.0667                86.7566                 1.1352

                     16                     17                     18
                      A                      A                      A
 Frequencies --    335.8923               355.0472               385.1716
 Red. masses --      2.3596                 3.4831                 2.8043
 Frc consts  --      0.1569                 0.2587                 0.2451
 IR Inten    --     12.7898                 0.5850                12.2996

                     19                     20                     21
                      A                      A                      A
 Frequencies --    422.4749               439.3122               455.2310
 Red. masses --      2.4200                 2.4897                 2.7571
 Frc consts  --      0.2545                 0.2831                 0.3366
 IR Inten    --      4.6809                 2.0706                 5.2724

                     22                     23                     24
                      A                      A                      A
 Frequencies --    469.5254               474.9666               482.4327
 Red. masses --      2.5599                 2.1372                 3.0159
 Frc consts  --      0.3325                 0.2841                 0.4136
 IR Inten    --     11.3209                17.0548                 8.6833

                     25                     26                     27
                      A                      A                      A
 Frequencies --    532.8743               568.8709               587.7391
 Red. masses --      2.1901                 2.7221                 3.3132
 Frc consts  --      0.3664                 0.5190                 0.6743
 IR Inten    --     11.7911                 3.8999                12.1191

                     28                     29                     30
                      A                      A                      A
 Frequencies --    597.0259               618.2440               638.4761
 Red. masses --      4.1014                 5.0996                 2.5554
 Frc consts  --      0.8613                 1.1484                 0.6138
 IR Inten    --      2.7742                 6.9112                 0.6163

                     31                     32                     33
                      A                      A                      A
 Frequencies --    719.2423               731.7770               743.9362
 Red. masses --      1.4403                 4.1338                 2.5220
 Frc consts  --      0.4390                 1.3042                 0.8224
 IR Inten    --    278.2748                 0.8468                39.6651

                     34                     35                     36
                      A                      A                      A
 Frequencies --    770.3963               812.7603               853.2153
 Red. masses --      1.4490                 2.9223                 3.6565
 Frc consts  --      0.5067                 1.1374                 1.5683
 IR Inten    --     27.4195                 3.3805                 5.6896

                     37                     38                     39
                      A                      A                      A
 Frequencies --    863.7104               879.7794               887.3743
 Red. masses --      1.5970                 2.6747                 1.5060
 Frc consts  --      0.7019                 1.2198                 0.6987
 IR Inten    --      6.5509                 0.7998                 3.2449

                     40                     41                     42
                      A                      A                      A
 Frequencies --    916.7908               936.1314               944.6519
 Red. masses --      3.1283                 2.5001                 1.3801
 Frc consts  --      1.5492                 1.2909                 0.7256
 IR Inten    --      8.6242                 5.4612                 6.5299

                     43                     44                     45
                      A                      A                      A
 Frequencies --    968.6540               979.3647               979.7183
 Red. masses --      5.2580                 1.8375                 1.3930
 Frc consts  --      2.9067                 1.0384                 0.7878
 IR Inten    --     88.0816                 8.2953                 3.0979

                     46                     47                     48
                      A                      A                      A
 Frequencies --    991.8067              1003.6153              1028.4729
 Red. masses --      1.8575                 2.1219                 2.4400
 Frc consts  --      1.0765                 1.2592                 1.5206
 IR Inten    --      9.1473                 5.8779                 9.5204

                     49                     50                     51
                      A                      A                      A
 Frequencies --   1070.3637              1077.9447              1100.6136
 Red. masses --      2.5138                 2.0842                 1.7810
 Frc consts  --      1.6968                 1.4269                 1.2711
 IR Inten    --      7.5345                34.9335                 5.4439

                     52                     53                     54
                      A                      A                      A
 Frequencies --   1115.4975              1143.8862              1163.1585
 Red. masses --      2.1053                 1.9010                 1.6184
 Frc consts  --      1.5435                 1.4656                 1.2901
 IR Inten    --      4.0161                 2.3392                36.6471

                     55                     56                     57
                      A                      A                      A
 Frequencies --   1170.4565              1175.2843              1194.3385
 Red. masses --      1.6797                 1.4762                 1.3653
 Frc consts  --      1.3558                 1.2014                 1.1474
 IR Inten    --     15.6279                 7.6099                 1.9701

                     58                     59                     60
                      A                      A                      A
 Frequencies --   1195.7752              1204.2331              1229.7717
 Red. masses --      1.1862                 1.4546                 1.9959
 Frc consts  --      0.9994                 1.2428                 1.7784
 IR Inten    --      1.2212                 1.6153                 5.0753

                     61                     62                     63
                      A                      A                      A
 Frequencies --   1233.2864              1249.3299              1278.4292
 Red. masses --      2.0387                 1.6537                 1.4617
 Frc consts  --      1.8270                 1.5207                 1.4075
 IR Inten    --      4.9827                 2.0606                 0.3868

                     64                     65                     66
                      A                      A                      A
 Frequencies --   1303.3682              1321.0388              1327.8337
 Red. masses --      1.3618                 1.3030                 1.4123
 Frc consts  --      1.3630                 1.3397                 1.4671
 IR Inten    --      0.3190                10.0707                14.5672

                     67                     68                     69
                      A                      A                      A
 Frequencies --   1348.9115              1355.5140              1363.6465
 Red. masses --      2.0571                 1.7445                 1.7913
 Frc consts  --      2.2053                 1.8885                 1.9625
 IR Inten    --     14.0242                51.3007                17.0386

                     70                     71                     72
                      A                      A                      A
 Frequencies --   1383.6046              1391.4328              1396.8079
 Red. masses --      1.4445                 1.4452                 1.5025
 Frc consts  --      1.6292                 1.6486                 1.7272
 IR Inten    --      1.5391                 4.2151                 5.0866

                     73                     74                     75
                      A                      A                      A
 Frequencies --   1406.7864              1415.0252              1430.1392
 Red. masses --      1.4717                 1.4780                 1.4084
 Frc consts  --      1.7160                 1.7436                 1.6973
 IR Inten    --     12.5031                 6.0958                15.1591

                     76                     77                     78
                      A                      A                      A
 Frequencies --   1438.7249              1481.4734              1500.3261
 Red. masses --      1.8541                 1.1752                 2.2066
 Frc consts  --      2.2612                 1.5196                 2.9265
 IR Inten    --      2.0024                 1.2961                 2.0043

                     79                     80                     81
                      A                      A                      A
 Frequencies --   1504.5049              1505.8378              1520.4900
 Red. masses --      1.1090                 1.1360                 1.0929
 Frc consts  --      1.4790                 1.5177                 1.4886
 IR Inten    --      4.2278                 1.3643                 3.4537

                     82                     83                     84
                      A                      A                      A
 Frequencies --   1524.9608              1529.7151              1533.8759
 Red. masses --      1.0831                 1.0673                 1.0988
 Frc consts  --      1.4840                 1.4714                 1.5232
 IR Inten    --      6.8553                 8.1126                 2.8041

                     85                     86                     87
                      A                      A                      A
 Frequencies --   1541.1109              1543.9312              1632.3145
 Red. masses --      1.1240                 2.0339                 1.2322
 Frc consts  --      1.5728                 2.8565                 1.9343
 IR Inten    --      2.7029                17.4003                73.6224

                     88                     89                     90
                      A                      A                      A
 Frequencies --   1639.3672              1667.1027              1742.6109
 Red. masses --      5.7530                 5.7645                 6.8916
 Frc consts  --      9.1096                 9.4393                12.3302
 IR Inten    --      4.0510                 0.8077                76.7808

                     91                     92                     93
                      A                      A                      A
 Frequencies --   2960.6459              2980.2326              2996.4774
 Red. masses --      1.0592                 1.0741                 1.0687
 Frc consts  --      5.4703                 5.6210                 5.6538
 IR Inten    --     79.3348                29.7168                42.4807

                     94                     95                     96
                      A                      A                      A
 Frequencies --   3014.2501              3033.4749              3044.5482
 Red. masses --      1.0695                 1.0685                 1.0752
 Frc consts  --      5.7250                 5.7930                 5.8722
 IR Inten    --     24.9466                18.9969                41.4044

                     97                     98                     99
                      A                      A                      A
 Frequencies --   3051.4477              3067.0668              3073.8279
 Red. masses --      1.0684                 1.0907                 1.0967
 Frc consts  --      5.8612                 6.0450                 6.1049
 IR Inten    --     20.0929                28.8717                36.9634

                    100                    101                    102
                      A                      A                      A
 Frequencies --   3080.0099              3091.8027              3092.9089
 Red. masses --      1.0950                 1.0818                 1.0983
 Frc consts  --      6.1201                 6.0928                 6.1903
 IR Inten    --     47.6894                45.0669                69.1311

                    103                    104                    105
                      A                      A                      A
 Frequencies --   3144.6831              3145.6920              3169.8805
 Red. masses --      1.0948                 1.0937                 1.0874
 Frc consts  --      6.3790                 6.3763                 6.4375
 IR Inten    --      8.8067                 7.9526                13.4136

                    106                    107                    108
                      A                      A                      A
 Frequencies --   3189.1807              3200.6570              3213.2157
 Red. masses --      1.0871                 1.0915                 1.0967
 Frc consts  --      6.5142                 6.5882                 6.6713
 IR Inten    --      3.7340                34.0552                22.9005

                    109                    110                    111
                      A                      A                      A
 Frequencies --   3529.1083              3643.5709              3780.7788
 Red. masses --      1.0464                 1.0988                 1.0678
 Frc consts  --      7.6786                 8.5945                 8.9934
 IR Inten    --     14.3915                32.4235                52.8054

 - Thermochemistry -
 -------------------
 Temperature   298.150 Kelvin.  Pressure   1.00000 Atm.
 Atom     1 has atomic number  6 and mass  12.00000

 Molecular mass:   247.16846 amu.
 Principal axes and moments of inertia in atomic units:
                           1         2         3
     Eigenvalues --  3218.996554876.578456581.43566
           X            0.99987  -0.00325   0.01565
           Y            0.00325   0.99999   0.00043
           Z           -0.01565  -0.00038   0.99988
 This molecule is an asymmetric top.
 Rotational symmetry number  1.
 Warning -- assumption of classical behavior for rotation
           may cause significant error
 Rotational temperatures (Kelvin)      0.02691     0.01776     0.01316
 Rotational constants (GHZ):           0.56065     0.37008     0.27422
 Zero-point vibrational energy     896422.4 (Joules/Mol)
                                  214.25011 (Kcal/Mol)
 Warning -- explicit consideration of  29 degrees of freedom as
           vibrations may cause significant error
 Vibrational temperatures:     16.92    39.39    90.44   111.99   139.77
          (Kelvin)            169.43   252.19   261.14   300.35   330.64
                              367.81   387.52   413.45   451.93   464.19
                              483.27   510.83   554.18   607.85   632.07
                              654.98   675.54   683.37   694.11   766.69
                              818.48   845.63   858.99   889.52   918.62
                             1034.83  1052.86  1070.36  1108.43  1169.38
                             1227.59  1242.69  1265.81  1276.73  1319.06
                             1346.88  1359.14  1393.68  1409.09  1409.60
                             1426.99  1443.98  1479.74  1540.01  1550.92
                             1583.54  1604.95  1645.80  1673.53  1684.03
                             1690.97  1718.39  1720.45  1732.62  1769.37
                             1774.42  1797.51  1839.37  1875.26  1900.68
                             1910.46  1940.78  1950.28  1961.98  1990.70
                             2001.96  2009.70  2024.05  2035.91  2057.65
                             2070.00  2131.51  2158.63  2164.65  2166.56
                             2187.65  2194.08  2200.92  2206.91  2217.31
                             2221.37  2348.54  2358.68  2398.59  2507.23
                             4259.71  4287.89  4311.26  4336.83  4364.49
                             4380.43  4390.35  4412.83  4422.55  4431.45
                             4448.41  4450.01  4524.50  4525.95  4560.75
                             4588.52  4605.03  4623.10  5077.60  5242.29
                             5439.70

 Zero-point correction=                           0.341429 (Hartree/Particle)
 Thermal correction to Energy=                    0.358645
 Thermal correction to Enthalpy=                  0.359590
 Thermal correction to Gibbs Free Energy=         0.295484
 Sum of electronic and zero-point Energies=           -785.288604
 Sum of electronic and thermal Energies=              -785.271388
 Sum of electronic and thermal Enthalpies=            -785.270444
 Sum of electronic and thermal Free Energies=         -785.334549

                     E (Thermal)             CV                S
                      KCal/Mol        Cal/Mol-Kelvin    Cal/Mol-Kelvin
 Total                  225.053             67.898            134.921
 Electronic               0.000              0.000              0.000
 Translational            0.889              2.981             42.415
 Rotational               0.889              2.981             33.002
 Vibrational            223.276             61.936             59.504
 Vibration     1          0.593              1.987              7.689
 Vibration     2          0.593              1.984              6.011
 Vibration     3          0.597              1.972              4.365
 Vibration     4          0.599              1.964              3.945
 Vibration     5          0.603              1.951              3.511
 Vibration     6          0.608              1.935              3.137
 Vibration     7          0.627              1.873              2.378
 Vibration     8          0.630              1.865              2.313
 Vibration     9          0.642              1.827              2.055
 Vibration    10          0.652              1.795              1.880
 Vibration    11          0.666              1.753              1.691
 Vibration    12          0.674              1.730              1.600
 Vibration    13          0.685              1.697              1.489
 Vibration    14          0.702              1.647              1.341
 Vibration    15          0.708              1.630              1.297
 Vibration    16          0.717              1.604              1.232
 Vibration    17          0.731              1.565              1.144
 Vibration    18          0.754              1.502              1.019
 Vibration    19          0.785              1.421              0.884
 Vibration    20          0.799              1.384              0.829
 Vibration    21          0.814              1.349              0.780
 Vibration    22          0.827              1.318              0.739
 Vibration    23          0.832              1.306              0.724
 Vibration    24          0.839              1.289              0.704
 Vibration    25          0.888              1.177              0.581
 Vibration    26          0.925              1.099              0.506
 Vibration    27          0.945              1.058              0.471
 Vibration    28          0.955              1.038              0.455
 Vibration    29          0.978              0.993              0.419

 Optimization completed.
    -- Stationary point found.
 Normal termination of Gaussian 16 at Fri Dec 11 19:20:25 2020.

 ----------------------------------------------------------------------
 # B3LYP/6-311++G(d,p) empiricaldispersion=gd3bj scf=xqc pop=npa geom=c
 heck
 ----------------------------------------------------------------------

 --------------------------------------
 CID_76218546_JID_8085_Energie_neutraal
 --------------------------------------
 Structure from the checkpoint file:  "JID_8085.chk"
 Charge =  0 Multiplicity = 1

 SCF Done:  E(RB3LYP) =  -785.856499790     A.U. after   14 cycles
 Normal termination of Gaussian 16 at Fri Dec 11 19:30:08 2020.

 ----------------------------------------------------------------------
 # B3LYP/6-311++G(d,p) empiricaldispersion=gd3bj scf=xqc pop=npa geom=c
 heck
 ----------------------------------------------------------------------

 ------------------------------------
 CID_76218546_JID_8085_Energie_kation
 ------------------------------------
 Structure from the checkpoint file:  "JID_8085.chk"
 Charge =  1 Multiplicity = 2

 SCF Done:  E(UB3LYP) =  -785.579921130     A.U. after   27 cycles
 Normal termination of Gaussian 16 at Fri Dec 11 19:56:35 2020.
 Gaussian 16:  ES64L-G16RevA.03 25-Dec-2016

 ----------------------------------------------------------------------
 # B3LYP/6-311++G(d,p) empiricaldispersion=gd3bj scf=xqc pop=npa geom=c
 heck
 ----------------------------------------------------------------------

 -----------------------------------
 CID_76218546_JID_8085_Energie_anion
 -----------------------------------
 Structure from the checkpoint file:  "JID_8085.chk"
 Charge = -1 Multiplicity = 2

                         Standard orientation:
 ---------------------------------------------------------------------
 Center     Atomic      Atomic             Coordinates (Angstroms)
 Number     Number       Type             X           Y           Z
 ---------------------------------------------------------------------
      1          6           0        1.862417   -2.948068   -0.027628
      2          7           0        1.031191   -1.751028    0.111268
      3          6           0       -0.384479   -2.044905   -0.138126
      4          6           0       -1.388385   -1.259660    0.746897
      5          6           0       -2.825456   -1.659437    0.366890
      6          6           0       -3.248578   -1.028299   -0.965111
      7          6           0       -3.210986    0.500719   -0.879738
      8          6           0       -2.003931    1.053047   -0.144005
      9          6           0       -1.723205    2.423354   -0.231907
     10          6           0       -0.690603    3.002193    0.499382
     11          6           0        0.066386    2.210732    1.364745
     12          6           0       -0.205051    0.850391    1.459454
     13          6           0       -1.207504    0.246420    0.687915
     14          6           0        1.535914   -0.669112   -0.740855
     15          6           0        2.624117    0.149134   -0.076508
     16          7           0        3.140526    1.210397   -0.586493
     17          8           0        2.570752    1.447285   -1.878268
     18          7           0        3.101683   -0.312694    1.139918
     19          1           0        1.809184   -3.387949   -1.040680
     20          1           0        1.544001   -3.705783    0.695668
     21          1           0        2.903910   -2.690542    0.180194
     22          1           0       -0.626409   -1.905005   -1.203580
     23          1           0       -0.547537   -3.107005    0.076144
     24          1           0       -1.190189   -1.580123    1.777767
     25          1           0       -3.510643   -1.325121    1.157084
     26          1           0       -2.908651   -2.752572    0.316482
     27          1           0       -2.583616   -1.370516   -1.766837
     28          1           0       -4.257108   -1.358717   -1.239511
     29          1           0       -3.269605    0.940581   -1.883062
     30          1           0       -4.111350    0.846949   -0.350044
     31          1           0       -2.334721    3.042790   -0.884803
     32          1           0       -0.484349    4.064529    0.404191
     33          1           0        0.867133    2.648904    1.953052
     34          1           0        0.383426    0.226856    2.124785
     35          1           0        1.914295   -1.049904   -1.705307
     36          1           0        0.727503    0.020723   -0.986355
     37          1           0        2.987836    2.287903   -2.115295
     38          1           0        2.381634   -0.791158    1.670636
     39          1           0        3.621507    0.381098    1.664349
 ---------------------------------------------------------------------

 SCF Done:  E(UB3LYP) =  -785.843502332     A.U. after   33 cycles
 SCF Done:  E(UB3LYP) =  -785.843502332     a.u. after    1 cycles

 The electronic state is 2-A.
 Alpha  occ. eigenvalues --  -19.05915 -14.23892 -14.22413 -14.21874 -10.14114
 Alpha  occ. eigenvalues --  -10.10719 -10.09812 -10.09249 -10.08141 -10.07782
 Alpha  occ. eigenvalues --  -10.07738 -10.07557 -10.07438 -10.07196 -10.07156
 Alpha  occ. eigenvalues --  -10.06968 -10.06770 -10.06753  -0.97187  -0.85204
 Alpha  occ. eigenvalues --   -0.82209  -0.76831  -0.72601  -0.71834  -0.68005
 Alpha  occ. eigenvalues --   -0.64302  -0.63716  -0.62400  -0.59480  -0.53677
 Alpha  occ. eigenvalues --   -0.51205  -0.51030  -0.49760  -0.47891  -0.44640
 Alpha  occ. eigenvalues --   -0.43917  -0.40859  -0.40216  -0.38878  -0.37550
 Alpha  occ. eigenvalues --   -0.37421  -0.36785  -0.35571  -0.34914  -0.34373
 Alpha  occ. eigenvalues --   -0.33176  -0.32687  -0.31430  -0.31197  -0.30932
 Alpha  occ. eigenvalues --   -0.29805  -0.29095  -0.28490  -0.27867  -0.26972
 Alpha  occ. eigenvalues --   -0.25897  -0.25194  -0.24215  -0.23523  -0.22882
 Alpha  occ. eigenvalues --   -0.21712  -0.21305  -0.18605  -0.14977  -0.14366
 Alpha  occ. eigenvalues --   -0.13488  -0.12151   0.04260
 Alpha virt. eigenvalues --    0.06181   0.06474   0.07030   0.07636   0.08060
 Alpha virt. eigenvalues --    0.08257   0.08532   0.08905   0.09584   0.09769
 Alpha virt. eigenvalues --    0.10203   0.10506   0.11525   0.11638   0.11756

  Beta  occ. eigenvalues --  -19.05910 -14.23884 -14.22389 -14.21868 -10.14108
  Beta  occ. eigenvalues --  -10.10715 -10.09795 -10.09223 -10.08143 -10.07772
  Beta  occ. eigenvalues --  -10.07730 -10.07542 -10.07428 -10.07166 -10.07145
  Beta  occ. eigenvalues --  -10.06953 -10.06740 -10.06734  -0.97179  -0.85185
  Beta  occ. eigenvalues --   -0.82188  -0.76794  -0.72577  -0.71794  -0.67969
  Beta  occ. eigenvalues --   -0.64264  -0.63675  -0.62363  -0.59439  -0.53631
  Beta  occ. eigenvalues --   -0.51162  -0.50979  -0.49705  -0.47849  -0.44614
  Beta  occ. eigenvalues --   -0.43873  -0.40815  -0.40193  -0.38847  -0.37512
  Beta  occ. eigenvalues --   -0.37392  -0.36756  -0.35547  -0.34889  -0.34338
  Beta  occ. eigenvalues --   -0.33140  -0.32662  -0.31401  -0.31172  -0.30898
  Beta  occ. eigenvalues --   -0.29765  -0.29060  -0.28455  -0.27832  -0.26948
  Beta  occ. eigenvalues --   -0.25863  -0.25163  -0.24148  -0.23492  -0.22851
  Beta  occ. eigenvalues --   -0.21676  -0.21271  -0.18584  -0.14838  -0.14314
  Beta  occ. eigenvalues --   -0.13456  -0.12123
  Beta virt. eigenvalues --    0.06282   0.07049   0.07058   0.07336   0.07872
  Beta virt. eigenvalues --    0.08414   0.08582   0.08820   0.09198   0.09914
  Beta virt. eigenvalues --    0.10057   0.10649   0.10899   0.11846   0.11900

 Mulliken charges and spin densities:
               1          2
     1  C    0.644426  -0.977053
     2  N    0.029755   0.176336
     3  C    0.963753  -1.781811
     4  C    0.753752  -0.171246
     5  C    0.056261  -0.692468
     6  C   -0.356769   0.121653
     7  C    1.229438  -1.956309
     8  C   -1.582060   1.656010
     9  C    0.616626  -0.607384
    10  C    0.102489  -0.543420
    11  C   -0.233589  -0.163794
    12  C    0.493044  -0.275664
    13  C   -1.480972   1.548909
    14  C   -0.418746  -0.059376
    15  C   -0.067869  -0.184226
    16  N   -0.224423   0.049279
    17  O   -0.158959   0.004110
    18  N   -0.317935   0.008474
    19  H   -0.049736   0.164014
    20  H   -0.496770   0.652346
    21  H    0.171827  -0.018980
    22  H    0.209577  -0.063490
    23  H    0.116350   0.056891
    24  H   -0.313540   0.560364
    25  H   -0.075294   0.230798
    26  H   -0.540403   0.713729
    27  H    0.055632   0.058554
    28  H   -0.516942   0.719259
    29  H    0.063230   0.085581
    30  H    0.004079   0.175870
    31  H   -0.108766   0.270566
    32  H    0.010227   0.132668
    33  H   -0.155726   0.325259
    34  H   -0.250365   0.434470
    35  H    0.159733   0.037325
    36  H    0.262550  -0.062896
    37  H    0.219862   0.038432
    38  H    0.185323   0.065563
    39  H    0.000928   0.271661
 Sum of Mulliken charges =  -1.00000   1.00000

 Dipole moment (field-independent basis, Debye):
    X=              2.6054    Y=              3.9670    Z=             -3.3156  Tot=              5.7895
 Quadrupole moment (field-independent basis, Debye-Ang):
   XX=           -179.9056   YY=           -164.3873   ZZ=           -145.5142
   XY=             -6.4129   XZ=             -4.0189   YZ=              3.7401

 Summary of Natural Population Analysis:

                                       Natural Population
                Natural  -----------------------------------------------
    Atom  No    Charge         Core      Valence    Rydberg      Total
 -----------------------------------------------------------------------
      C    1   -0.17738      0.99964     2.16940    0.00835     3.17738
      N    2   -0.29298      0.99972     2.77914    0.01413     3.79298
      C    3   -0.07174      0.99957     2.06112    0.01104     3.07174
      C    4   -0.12088      0.99955     2.10798    0.01335     3.12088
      C    5   -0.18580      0.99962     2.17692    0.00926     3.18580
      C    6   -0.18811      0.99963     2.18045    0.00803     3.18811
      C    7   -0.19535      0.99960     2.18678    0.00897     3.19535
      C    8   -0.01512      0.99946     2.00662    0.00905     3.01512
      C    9   -0.09521      0.99952     2.08646    0.00923     3.09521
      C   10   -0.10063      0.99956     2.09196    0.00911     3.10063
      C   11   -0.10025      0.99955     2.09048    0.01021     3.10025
      C   12   -0.09430      0.99951     2.08376    0.01102     3.09430
      C   13   -0.01660      0.99945     2.00595    0.01120     3.01660
      C   14   -0.12005      0.99955     2.11015    0.01035     3.12005
      C   15    0.20490      0.99963     1.77703    0.01844     2.79510
      N   16   -0.13949      0.99959     2.62601    0.01390     3.63949
      O   17   -0.29619      0.99990     3.29047    0.00581     4.29619
      N   18   -0.40035      0.99970     2.89183    0.00882     3.90035
      H   19    0.07996      0.00000     0.41897    0.00107     0.42004
      H   20    0.09924      0.00000     0.39938    0.00137     0.40076
      H   21    0.10095      0.00000     0.39773    0.00132     0.39905
      H   22    0.08327      0.00000     0.41521    0.00152     0.41673
      H   23    0.10031      0.00000     0.39776    0.00193     0.39969
      H   24    0.10616      0.00000     0.39121    0.00264     0.39384
      H   25    0.09898      0.00000     0.39956    0.00146     0.40102
      H   26    0.10174      0.00000     0.39673    0.00154     0.39826
      H   27    0.09234      0.00000     0.40620    0.00145     0.40766
      H   28    0.10121      0.00000     0.39736    0.00143     0.39879
      H   29    0.10100      0.00000     0.39801    0.00098     0.39900
      H   30    0.10244      0.00000     0.39634    0.00122     0.39756
      H   31    0.09589      0.00000     0.40282    0.00129     0.40411
      H   32    0.09767      0.00000     0.40152    0.00081     0.40233
      H   33    0.10080      0.00000     0.39799    0.00120     0.39920
      H   34    0.10153      0.00000     0.39570    0.00278     0.39847
      H   35    0.10151      0.00000     0.39720    0.00129     0.39849
      H   36    0.12269      0.00000     0.37563    0.00168     0.37731
      H   37    0.23121      0.00000     0.26598    0.00281     0.26879
      H   38    0.19717      0.00000     0.29994    0.00290     0.30283
      H   39    0.18945      0.00000     0.30799    0.00256     0.31055
 =======================================================================
   * Total *    0.00000     17.99274    48.78172    0.22554    67.00000

 Normal termination of Gaussian 16 at Fri Dec 11 20:29:00 2020.
