 Gaussian 16, Revision A.03,

 -----------------------------------------------------------
 # opt freq B3LYP/6-31G(d) empiricaldispersion=gd3bj scf=xqc
 -----------------------------------------------------------

 ------------------------------
 CID_10419358_JID_1712_neutraal
 ------------------------------
 Symbolic Z-matrix:
 Charge =  0 Multiplicity = 1

 SCF Done:  E(RB3LYP) =  -460.894728288     A.U. after   14 cycles
 SCF Done:  E(RB3LYP) =  -460.899565286     A.U. after   12 cycles
 SCF Done:  E(RB3LYP) =  -460.900251380     A.U. after   12 cycles
 SCF Done:  E(RB3LYP) =  -460.900746680     A.U. after   12 cycles
 SCF Done:  E(RB3LYP) =  -460.900977536     A.U. after   12 cycles
 SCF Done:  E(RB3LYP) =  -460.901445221     A.U. after   12 cycles
 SCF Done:  E(RB3LYP) =  -460.901606948     A.U. after   11 cycles
 SCF Done:  E(RB3LYP) =  -460.901648855     A.U. after   11 cycles
 SCF Done:  E(RB3LYP) =  -460.901687006     A.U. after   11 cycles
 SCF Done:  E(RB3LYP) =  -460.901756807     A.U. after   11 cycles
 SCF Done:  E(RB3LYP) =  -460.901766505     A.U. after   10 cycles
 SCF Done:  E(RB3LYP) =  -460.901771520     A.U. after   10 cycles
 SCF Done:  E(RB3LYP) =  -460.901771717     A.U. after    8 cycles
 SCF Done:  E(RB3LYP) =  -460.901771921     A.U. after    8 cycles
 SCF Done:  E(RB3LYP) =  -460.901771948     A.U. after    6 cycles
 Optimization completed.
    -- Stationary point found.

 1\1\GINC-NODE312\FOpt\RB3LYP\6-31G(d)\C9H14N2\VSC10255\08-Dec-2020\0\\
 # opt freq B3LYP/6-31G(d) empiricaldispersion=gd3bj scf=xqc\\CID_10419
 358_JID_1712_neutraal\\0,1\C,0.9075051271,-0.0061628099,0.0198391426\C
 ,0.1680535308,0.9589195633,0.9444431798\C,-0.4443772787,2.0799999027,0
 .1582354775\C,-0.6476744549,2.1004664036,-1.1850850533\C,-0.4355184056
 ,0.8515559281,-1.9826615035\N,-0.6141780426,0.5840910813,-3.2212375431
 \C,-1.1596882564,1.3934617222,-4.2872304032\C,-1.1905761209,2.91836164
 56,-4.2024470773\C,-1.8783805659,3.4206369001,-2.9400339213\N,-0.98524

 Normal termination of Gaussian 16 at Tue Dec  8 20:52:31 2020.

 --------------------------------------------------------------------
 #N Geom=AllCheck Guess=TCheck SCRF=Check GenChk RB3LYP/6-31G(d) Freq
 --------------------------------------------------------------------

 Structure from the checkpoint file:  "JID_1712.chk"
 ------------------------------
 CID_10419358_JID_1712_neutraal
 ------------------------------
 Charge =  0 Multiplicity = 1

 SCF Done:  E(RB3LYP) =  -460.901771948     A.U. after    1 cycles

  Exact polarizability: 150.848 -13.239 105.879   1.355  -0.053  71.259
 Approx polarizability: 211.579 -37.848 162.927   5.265  -0.037 110.357

                      1                      2                      3
                      A                      A                      A
 Frequencies --     44.5072               105.5585               205.5551
 Red. masses --      2.6504                 2.6906                 2.4902
 Frc consts  --      0.0031                 0.0177                 0.0620
 IR Inten    --      0.4982                 2.2731                 2.1676

                      4                      5                      6
                      A                      A                      A
 Frequencies --    228.7542               295.1505               300.8327
 Red. masses --      2.5170                 2.2862                 2.3867
 Frc consts  --      0.0776                 0.1173                 0.1273
 IR Inten    --      1.3198                 2.4300                 6.0631

                      7                      8                      9
                      A                      A                      A
 Frequencies --    333.1642               356.3645               397.5282
 Red. masses --      3.7945                 2.4016                 2.8373
 Frc consts  --      0.2482                 0.1797                 0.2642
 IR Inten    --      4.0929                 1.4869                 0.0779

                     10                     11                     12
                      A                      A                      A
 Frequencies --    420.5421               493.7350               514.6572
 Red. masses --      3.9507                 2.8726                 1.6188
 Frc consts  --      0.4117                 0.4126                 0.2526
 IR Inten    --      2.7455                 3.7139                43.4069

                     13                     14                     15
                      A                      A                      A
 Frequencies --    596.7704               612.9180               641.0193
 Red. masses --      2.4229                 2.3545                 2.7556
 Frc consts  --      0.5084                 0.5211                 0.6671
 IR Inten    --      4.4124                22.6746                16.5080

                     16                     17                     18
                      A                      A                      A
 Frequencies --    687.4901               738.2772               818.9015
 Red. masses --      3.7624                 2.3664                 1.5452
 Frc consts  --      1.0477                 0.7599                 0.6105
 IR Inten    --      8.5836                 9.8690                23.2918

                     19                     20                     21
                      A                      A                      A
 Frequencies --    826.9594               880.2996               892.9653
 Red. masses --      2.4412                 1.7902                 1.7503
 Frc consts  --      0.9836                 0.8173                 0.8223
 IR Inten    --      1.5195                10.2522                 3.7373

                     22                     23                     24
                      A                      A                      A
 Frequencies --    897.1634               909.7255               993.2675
 Red. masses --      1.7741                 2.4313                 2.3096
 Frc consts  --      0.8413                 1.1855                 1.3425
 IR Inten    --      8.2671                 1.3121                 5.0952

                     25                     26                     27
                      A                      A                      A
 Frequencies --    999.0830              1026.8709              1071.4235
 Red. masses --      2.2796                 2.3846                 2.3147
 Frc consts  --      1.3407                 1.4815                 1.5655
 IR Inten    --      8.0044                 4.9761                 2.0064

                     28                     29                     30
                      A                      A                      A
 Frequencies --   1087.5195              1115.3337              1125.8023
 Red. masses --      1.9320                 2.0090                 1.9714
 Frc consts  --      1.3463                 1.4725                 1.4722
 IR Inten    --      3.3307                 6.7799                 3.5267

                     31                     32                     33
                      A                      A                      A
 Frequencies --   1142.0092              1164.7913              1179.4877
 Red. masses --      2.1182                 2.1904                 1.3785
 Frc consts  --      1.6276                 1.7509                 1.1299
 IR Inten    --     15.5284                 8.9548                 7.6539

                     34                     35                     36
                      A                      A                      A
 Frequencies --   1236.6233              1248.7012              1284.7667
 Red. masses --      1.1889                 1.7166                 1.2859
 Frc consts  --      1.0712                 1.5771                 1.2506
 IR Inten    --      0.2874                23.7994                 4.1671

                     37                     38                     39
                      A                      A                      A
 Frequencies --   1290.1832              1312.6158              1331.5494
 Red. masses --      1.2059                 1.4941                 1.1177
 Frc consts  --      1.1826                 1.5167                 1.1676
 IR Inten    --     13.8250                23.0263                20.6055

                     40                     41                     42
                      A                      A                      A
 Frequencies --   1374.8322              1380.5616              1393.1981
 Red. masses --      1.4274                 1.9101                 1.5546
 Frc consts  --      1.5896                 2.1449                 1.7779
 IR Inten    --     17.1179                67.6927                 4.1678

                     43                     44                     45
                      A                      A                      A
 Frequencies --   1394.8107              1405.6135              1417.8650
 Red. masses --      1.5989                 1.4591                 1.4987
 Frc consts  --      1.8327                 1.6985                 1.7751
 IR Inten    --      1.0052                 0.1056                98.0909

                     46                     47                     48
                      A                      A                      A
 Frequencies --   1440.7012              1497.3415              1501.3068
 Red. masses --      1.7270                 1.0893                 1.0905
 Frc consts  --      2.1120                 1.4389                 1.4481
 IR Inten    --      4.3538                 3.2787                 5.0450

                     49                     50                     51
                      A                      A                      A
 Frequencies --   1505.8576              1511.4443              1525.3923
 Red. masses --      1.1077                 1.1067                 1.1084
 Frc consts  --      1.4799                 1.4895                 1.5195
 IR Inten    --      2.3827                 1.9289                 0.1227

                     52                     53                     54
                      A                      A                      A
 Frequencies --   1529.0758              1537.7629              1680.3238
 Red. masses --      1.1623                 1.2348                 5.3279
 Frc consts  --      1.6012                 1.7204                 8.8632
 IR Inten    --     10.8196                 5.3886                63.8471

                     55                     56                     57
                      A                      A                      A
 Frequencies --   1732.0178              2964.4499              2983.8528
 Red. masses --      8.6807                 1.0731                 1.0724
 Frc consts  --     15.3430                 5.5564                 5.6256
 IR Inten    --    102.4151                75.9509                50.4887

                     58                     59                     60
                      A                      A                      A
 Frequencies --   2999.9969              3012.1818              3037.6230
 Red. masses --      1.0706                 1.0724                 1.0686
 Frc consts  --      5.6772                 5.7329                 5.8096
 IR Inten    --     46.3055                17.3607                21.0416

                     61                     62                     63
                      A                      A                      A
 Frequencies --   3038.8330              3051.0726              3051.9691
 Red. masses --      1.0739                 1.0844                 1.0767
 Frc consts  --      5.8427                 5.9476                 5.9088
 IR Inten    --     16.0531                95.8223                55.8698

                     64                     65                     66
                      A                      A                      A
 Frequencies --   3088.0593              3089.0251              3093.9692
 Red. masses --      1.1038                 1.0904                 1.1003
 Frc consts  --      6.2016                 6.1303                 6.2057
 IR Inten    --     62.7974                37.2740                35.3704

                     67                     68                     69
                      A                      A                      A
 Frequencies --   3126.6109              3131.6192              3563.3047
 Red. masses --      1.0908                 1.0883                 1.0752
 Frc consts  --      6.2826                 6.2885                 8.0432
 IR Inten    --     24.9289                28.9103                 1.7051

 - Thermochemistry -
 -------------------
 Temperature   298.150 Kelvin.  Pressure   1.00000 Atm.
 Atom     1 has atomic number  6 and mass  12.00000

 Molecular mass:   150.11570 amu.
 Principal axes and moments of inertia in atomic units:
                           1         2         3
     Eigenvalues --   835.530262094.751322793.55267
           X            0.99999   0.00519  -0.00111
           Y           -0.00519   0.99998  -0.00327
           Z            0.00109   0.00328   0.99999
 This molecule is an asymmetric top.
 Rotational symmetry number  1.
 Warning -- assumption of classical behavior for rotation
           may cause significant error
 Rotational temperatures (Kelvin)      0.10366     0.04135     0.03100
 Rotational constants (GHZ):           2.16000     0.86155     0.64604
 Zero-point vibrational energy     585389.8 (Joules/Mol)
                                  139.91153 (Kcal/Mol)
 Warning -- explicit consideration of  14 degrees of freedom as
           vibrations may cause significant error
 Vibrational temperatures:     64.04   151.88   295.75   329.13   424.66
          (Kelvin)            432.83   479.35   512.73   571.95   605.07
                              710.37   740.48   858.62   881.85   922.28
                              989.14  1062.22  1178.22  1189.81  1266.55
                             1284.78  1290.82  1308.89  1429.09  1437.46
                             1477.44  1541.54  1564.70  1604.72  1619.78
                             1643.10  1675.87  1697.02  1779.23  1796.60
                             1848.49  1856.29  1888.56  1915.80  1978.08
                             1986.32  2004.50  2006.82  2022.36  2039.99
                             2072.85  2154.34  2160.05  2166.59  2174.63
                             2194.70  2200.00  2212.50  2417.61  2491.99
                             4265.18  4293.10  4316.33  4333.86  4370.46
                             4372.20  4389.81  4391.10  4443.03  4444.42
                             4451.53  4498.50  4505.70  5126.80

 Zero-point correction=                           0.222963 (Hartree/Particle)
 Thermal correction to Energy=                    0.232520
 Thermal correction to Enthalpy=                  0.233465
 Thermal correction to Gibbs Free Energy=         0.188077
 Sum of electronic and zero-point Energies=           -460.678809
 Sum of electronic and thermal Energies=              -460.669251
 Sum of electronic and thermal Enthalpies=            -460.668307
 Sum of electronic and thermal Free Energies=         -460.713695

                     E (Thermal)             CV                S
                      KCal/Mol        Cal/Mol-Kelvin    Cal/Mol-Kelvin
 Total                  145.909             38.459             95.526
 Electronic               0.000              0.000              0.000
 Translational            0.889              2.981             40.929
 Rotational               0.889              2.981             29.970
 Vibrational            144.131             32.498             24.626
 Vibration     1          0.595              1.980              5.048
 Vibration     2          0.605              1.945              3.349
 Vibration     3          0.640              1.832              2.083
 Vibration     4          0.651              1.797              1.889
 Vibration     5          0.689              1.683              1.444
 Vibration     6          0.693              1.672              1.412
 Vibration     7          0.715              1.609              1.245
 Vibration     8          0.732              1.562              1.138
 Vibration     9          0.764              1.475              0.972
 Vibration    10          0.783              1.426              0.890
 Vibration    11          0.849              1.264              0.674
 Vibration    12          0.870              1.218              0.622
 Vibration    13          0.955              1.039              0.455
 Vibration    14          0.972              1.005              0.428

 Optimization completed.
    -- Stationary point found.

 1\1\GINC-NODE312\Freq\RB3LYP\6-31G(d)\C9H14N2\VSC10255\08-Dec-2020\0\\
 #N Geom=AllCheck Guess=TCheck SCRF=Check GenChk RB3LYP/6-31G(d) Freq\\
 CID_10419358_JID_1712_neutraal\\0,1\C,0.9075051271,-0.0061628099,0.019
 8391426\C,0.1680535308,0.9589195633,0.9444431798\C,-0.4443772787,2.079
 9999027,0.1582354775\C,-0.6476744549,2.1004664036,-1.1850850533\C,-0.4
 355184056,0.8515559281,-1.9826615035\N,-0.6141780426,0.5840910813,-3.2
 212375431\C,-1.1596882564,1.3934617222,-4.2872304032\C,-1.1905761209,2
 .9183616456,-4.2024470773\C,-1.8783805659,3.4206369001,-2.9400339213\N

 Normal termination of Gaussian 16 at Tue Dec  8 20:57:49 2020.

 ----------------------------------------------------------------------
 # B3LYP/6-311++G(d,p) empiricaldispersion=gd3bj scf=xqc pop=npa geom=c
 heck
 ----------------------------------------------------------------------

 --------------------------------------
 CID_10419358_JID_1712_Energie_neutraal
 --------------------------------------
 Structure from the checkpoint file:  "JID_1712.chk"
 Charge =  0 Multiplicity = 1

 SCF Done:  E(RB3LYP) =  -461.026308108     A.U. after   15 cycles
 Normal termination of Gaussian 16 at Tue Dec  8 20:59:58 2020.

 ----------------------------------------------------------------------
 # B3LYP/6-311++G(d,p) empiricaldispersion=gd3bj scf=xqc pop=npa geom=c
 heck
 ----------------------------------------------------------------------

 ------------------------------------
 CID_10419358_JID_1712_Energie_kation
 ------------------------------------
 Structure from the checkpoint file:  "JID_1712.chk"
 Charge =  1 Multiplicity = 2

 SCF Done:  E(UB3LYP) =  -460.753676044     A.U. after   24 cycles
 Normal termination of Gaussian 16 at Tue Dec  8 21:05:42 2020.
 Gaussian 16:  ES64L-G16RevA.03 25-Dec-2016

 -----------------------------------
 CID_10419358_JID_1712_Energie_anion
 -----------------------------------
 Structure from the checkpoint file:  "JID_1712.chk"
 Charge = -1 Multiplicity = 2

                         Standard orientation:
 ---------------------------------------------------------------------
 Center     Atomic      Atomic             Coordinates (Angstroms)
 Number     Number       Type             X           Y           Z
 ---------------------------------------------------------------------
      1          6           0       -2.721201   -0.674173    0.445413
      2          6           0       -2.809819    0.750631   -0.097859
      3          6           0       -1.455929    1.396215   -0.112613
      4          6           0       -0.261156    0.757257   -0.010103
      5          6           0       -0.215967   -0.737690   -0.073402
      6          7           0        0.758287   -1.567346   -0.068298
      7          6           0        2.185523   -1.339311   -0.069108
      8          6           0        2.787850   -0.017580    0.403852
      9          6           0        2.199965    1.186058   -0.320502
     10          7           0        0.890607    1.518048    0.221636
     11          6           0       -1.581937   -1.399417   -0.263159
     12          1           0       -3.667193   -1.209017    0.301404
     13          1           0       -2.523595   -0.642103    1.524948
     14          1           0       -3.236573    0.730461   -1.115093
     15          1           0       -3.501372    1.359024    0.500759
     16          1           0       -1.439317    2.486595   -0.146113
     17          1           0        2.509977   -1.517648   -1.107343
     18          1           0        2.628776   -2.159649    0.511123
     19          1           0        2.627557    0.118680    1.479641
     20          1           0        3.872065   -0.065215    0.233711
     21          1           0        2.833321    2.064079   -0.156825
     22          1           0        2.179537    1.000793   -1.409444
     23          1           0        0.687575    2.509308    0.174743
     24          1           0       -1.796217   -1.425304   -1.343231
     25          1           0       -1.480775   -2.436846    0.063247
 ---------------------------------------------------------------------

 SCF Done:  E(UB3LYP) =  -461.013465858     A.U. after   33 cycles
 SCF Done:  E(UB3LYP) =  -461.013465858     a.u. after    1 cycles

 The electronic state is 2-A.
 Alpha  occ. eigenvalues --  -14.18703 -14.15841 -10.08216 -10.07651 -10.07214
 Alpha  occ. eigenvalues --  -10.06907 -10.05785 -10.05629 -10.04762 -10.04067
 Alpha  occ. eigenvalues --  -10.02958  -0.81014  -0.77191  -0.70772  -0.65529
 Alpha  occ. eigenvalues --   -0.62082  -0.57852  -0.55629  -0.49158  -0.46930
 Alpha  occ. eigenvalues --   -0.45376  -0.39990  -0.37652  -0.36594  -0.33767
 Alpha  occ. eigenvalues --   -0.32850  -0.31146  -0.30281  -0.29854  -0.29052
 Alpha  occ. eigenvalues --   -0.27567  -0.27173  -0.24373  -0.23673  -0.22882
 Alpha  occ. eigenvalues --   -0.21344  -0.20407  -0.19222  -0.14613  -0.10436
 Alpha  occ. eigenvalues --   -0.07641   0.05169
 Alpha virt. eigenvalues --    0.07623   0.08021   0.08551   0.09630   0.09880
 Alpha virt. eigenvalues --    0.10443   0.10766   0.11706   0.12441   0.12620
 Alpha virt. eigenvalues --    0.12781   0.13569   0.14000   0.15546   0.16760

  Beta  occ. eigenvalues --  -14.18708 -14.15679 -10.08113 -10.07635 -10.07173
  Beta  occ. eigenvalues --  -10.06906 -10.05794 -10.05621 -10.04765 -10.04044
  Beta  occ. eigenvalues --  -10.02751  -0.80896  -0.76979  -0.70650  -0.65463
  Beta  occ. eigenvalues --   -0.61911  -0.57702  -0.55549  -0.48980  -0.46834
  Beta  occ. eigenvalues --   -0.45189  -0.39888  -0.37565  -0.36489  -0.33638
  Beta  occ. eigenvalues --   -0.32763  -0.31024  -0.30135  -0.29761  -0.28958
  Beta  occ. eigenvalues --   -0.27461  -0.26981  -0.24223  -0.23603  -0.22799
  Beta  occ. eigenvalues --   -0.21295  -0.20335  -0.18966  -0.14104  -0.10251
  Beta  occ. eigenvalues --   -0.06990
  Beta virt. eigenvalues --    0.07507   0.08429   0.08981   0.09497   0.09767
  Beta virt. eigenvalues --    0.10396   0.10771   0.10957   0.11795   0.12519
  Beta virt. eigenvalues --    0.12925   0.13146   0.13811   0.14086   0.16130

 Mulliken charges and spin densities:
               1          2
     1  C   -0.128307  -0.029484
     2  C    0.067267  -0.709555
     3  C    1.313846  -1.185653
     4  C   -0.615162   0.441440
     5  C   -1.004721   0.801556
     6  N   -0.096428   0.157505
     7  C    0.908738  -1.245744
     8  C   -0.726502   0.543268
     9  C    1.156624  -1.452971
    10  N   -0.277002   0.220765
    11  C    0.011670  -0.182252
    12  H    0.144695  -0.019326
    13  H    0.057947   0.057743
    14  H    0.033076   0.092523
    15  H    0.031639   0.088922
    16  H   -0.313657   0.419064
    17  H   -0.186556   0.357528
    18  H    0.113385   0.032418
    19  H    0.111644   0.017429
    20  H   -0.499678   0.641623
    21  H   -1.245918   1.427294
    22  H   -0.015517   0.130042
    23  H   -0.094342   0.351025
    24  H    0.115057   0.022783
    25  H    0.138204   0.022058
 Sum of Mulliken charges =  -1.00000   1.00000

 Dipole moment (field-independent basis, Debye):
    X=             -6.2843    Y=             -3.8168    Z=              0.2356  Tot=              7.3564
 Quadrupole moment (field-independent basis, Debye-Ang):
   XX=           -120.0963   YY=           -109.2488   ZZ=            -87.8092
   XY=             -7.8231   XZ=              3.5826   YZ=             -2.9178

 Summary of Natural Population Analysis:

                                       Natural Population
                Natural  -----------------------------------------------
    Atom  No    Charge         Core      Valence    Rydberg      Total
 -----------------------------------------------------------------------
      C    1   -0.18559      0.99963     2.17875    0.00721     3.18559
      C    2   -0.20132      0.99963     2.19391    0.00778     3.20132
      C    3   -0.07533      0.99953     2.06547    0.01033     3.07533
      C    4    0.05458      0.99941     1.93389    0.01212     2.94542
      C    5    0.14264      0.99952     1.84356    0.01428     2.85736
      N    6   -0.22812      0.99964     2.71662    0.01186     3.72812
      C    7   -0.09810      0.99960     2.08531    0.01319     3.09810
      C    8   -0.20357      0.99962     2.19463    0.00932     3.20357
      C    9   -0.08585      0.99961     2.07344    0.01280     3.08585
      N   10   -0.32425      0.99968     2.81148    0.01309     3.82425
      C   11   -0.20259      0.99961     2.19345    0.00954     3.20259
      H   12    0.09074      0.00000     0.40800    0.00126     0.40926
      H   13    0.09378      0.00000     0.40482    0.00140     0.40622
      H   14    0.09378      0.00000     0.40434    0.00188     0.40622
      H   15    0.09552      0.00000     0.40294    0.00154     0.40448
      H   16    0.08742      0.00000     0.41126    0.00132     0.41258
      H   17    0.09550      0.00000     0.40275    0.00174     0.40450
      H   18    0.08983      0.00000     0.40871    0.00146     0.41017
      H   19    0.09746      0.00000     0.40106    0.00149     0.40254
      H   20    0.09961      0.00000     0.39826    0.00214     0.40039
      H   21    0.10003      0.00000     0.39489    0.00508     0.39997
      H   22    0.07969      0.00000     0.41787    0.00245     0.42031
      H   23    0.18283      0.00000     0.31308    0.00408     0.31717
      H   24    0.09541      0.00000     0.40298    0.00160     0.40459
      H   25    0.10588      0.00000     0.39240    0.00171     0.39412
 =======================================================================
   * Total *    0.00000     10.99548    29.85385    0.15067    41.00000

 Normal termination of Gaussian 16 at Tue Dec  8 21:11:59 2020.
