 Gaussian 16, Revision A.03,

 -----------------------------------------------------------
 # opt freq B3LYP/6-31G(d) empiricaldispersion=gd3bj scf=xqc
 -----------------------------------------------------------

 ------------------------------
 CID_62255299_JID_8088_neutraal
 ------------------------------
 Symbolic Z-matrix:
 Charge =  0 Multiplicity = 1

 SCF Done:  E(RB3LYP) =  -747.346644580     A.U. after   14 cycles
 SCF Done:  E(RB3LYP) =  -747.353947092     A.U. after   12 cycles
 SCF Done:  E(RB3LYP) =  -747.351697416     A.U. after   13 cycles
 SCF Done:  E(RB3LYP) =  -747.355152400     A.U. after   12 cycles
 SCF Done:  E(RB3LYP) =  -747.355751438     A.U. after   12 cycles
 SCF Done:  E(RB3LYP) =  -747.356236393     A.U. after   12 cycles
 SCF Done:  E(RB3LYP) =  -747.356593408     A.U. after   12 cycles
 SCF Done:  E(RB3LYP) =  -747.357148818     A.U. after   11 cycles
 SCF Done:  E(RB3LYP) =  -747.357416903     A.U. after   12 cycles
 SCF Done:  E(RB3LYP) =  -747.357482202     A.U. after   11 cycles
 SCF Done:  E(RB3LYP) =  -747.357578347     A.U. after    8 cycles
 SCF Done:  E(RB3LYP) =  -747.357578526     A.U. after    7 cycles
 SCF Done:  E(RB3LYP) =  -747.357578566     A.U. after    7 cycles
 SCF Done:  E(RB3LYP) =  -747.357578581     A.U. after    6 cycles
 SCF Done:  E(RB3LYP) =  -747.357578592     A.U. after    6 cycles
 Optimization completed.
    -- Stationary point found.
 Normal termination of Gaussian 16 at Fri Dec 11 18:51:57 2020.

 --------------------------------------------------------------------
 #N Geom=AllCheck Guess=TCheck SCRF=Check GenChk RB3LYP/6-31G(d) Freq
 --------------------------------------------------------------------

 Structure from the checkpoint file:  "JID_8088.chk"
 ------------------------------
 CID_62255299_JID_8088_neutraal
 ------------------------------
 Charge =  0 Multiplicity = 1

 SCF Done:  E(RB3LYP) =  -747.357578592     A.U. after    1 cycles

  Exact polarizability: 177.352   5.229 170.110 -14.604  11.467 161.683
 Approx polarizability: 238.151  12.695 273.962 -34.540  29.840 281.704

                      1                      2                      3
                      A                      A                      A
 Frequencies --     22.2471                40.9800                47.8300
 Red. masses --      4.6567                 3.6712                 3.2743
 Frc consts  --      0.0014                 0.0036                 0.0044
 IR Inten    --      0.1891                 0.3768                 1.6669

                      4                      5                      6
                      A                      A                      A
 Frequencies --     66.5162               100.2175               110.8043
 Red. masses --      3.7415                 3.4607                 3.1151
 Frc consts  --      0.0098                 0.0205                 0.0225
 IR Inten    --      1.6409                 4.8932                 0.4243

                      7                      8                      9
                      A                      A                      A
 Frequencies --    137.0984               178.1755               188.7276
 Red. masses --      3.6632                 3.8205                 1.2800
 Frc consts  --      0.0406                 0.0715                 0.0269
 IR Inten    --      0.9664                 2.4229                 0.4115

                     10                     11                     12
                      A                      A                      A
 Frequencies --    225.7560               254.1745               275.1173
 Red. masses --      2.4199                 2.6111                 1.1991
 Frc consts  --      0.0727                 0.0994                 0.0535
 IR Inten    --      9.3093                 5.3157                 8.5228

                     13                     14                     15
                      A                      A                      A
 Frequencies --    287.7227               312.5154               318.2351
 Red. masses --      1.5199                 2.8783                 2.4893
 Frc consts  --      0.0741                 0.1656                 0.1485
 IR Inten    --     19.2293                15.0306                21.1691

                     16                     17                     18
                      A                      A                      A
 Frequencies --    333.3216               368.5947               409.3493
 Red. masses --      2.4934                 2.8174                 3.1165
 Frc consts  --      0.1632                 0.2255                 0.3077
 IR Inten    --      1.9930                 6.9403                 1.9758

                     19                     20                     21
                      A                      A                      A
 Frequencies --    421.0798               445.3910               466.6807
 Red. masses --      3.0566                 4.1746                 3.6086
 Frc consts  --      0.3193                 0.4879                 0.4631
 IR Inten    --      0.4075                12.3351                 2.9438

                     22                     23                     24
                      A                      A                      A
 Frequencies --    486.9978               526.4205               546.4512
 Red. masses --      3.0500                 3.5236                 3.7897
 Frc consts  --      0.4262                 0.5753                 0.6667
 IR Inten    --      4.7281                 2.9549                 2.8189

                     25                     26                     27
                      A                      A                      A
 Frequencies --    569.7253               600.8003               624.7103
 Red. masses --      3.3272                 5.2474                 3.8738
 Frc consts  --      0.6363                 1.1160                 0.8907
 IR Inten    --      1.9648                 3.1163                13.3536

                     28                     29                     30
                      A                      A                      A
 Frequencies --    656.3409               708.0090               734.1053
 Red. masses --      6.8313                 4.0120                 4.3397
 Frc consts  --      1.7339                 1.1849                 1.3779
 IR Inten    --      0.3842                 1.4722                 5.4154

                     31                     32                     33
                      A                      A                      A
 Frequencies --    760.8983               789.7369               796.8342
 Red. masses --      3.5605                 5.5773                 1.2702
 Frc consts  --      1.2145                 2.0495                 0.4752
 IR Inten    --      4.0968                 4.5059                29.9568

                     34                     35                     36
                      A                      A                      A
 Frequencies --    821.3714               848.2027               856.6505
 Red. masses --      1.4599                 3.2253                 4.9516
 Frc consts  --      0.5803                 1.3672                 2.1409
 IR Inten    --     33.4527                18.5902                 3.7434

                     37                     38                     39
                      A                      A                      A
 Frequencies --    864.1722               882.3060               951.6723
 Red. masses --      1.2745                 1.3455                 1.3259
 Frc consts  --      0.5608                 0.6171                 0.7075
 IR Inten    --      2.3183                87.3040                 0.2410

                     40                     41                     42
                      A                      A                      A
 Frequencies --    957.0613               967.6533               974.6131
 Red. masses --      1.6545                 1.3357                 1.4235
 Frc consts  --      0.8929                 0.7369                 0.7967
 IR Inten    --     18.5756                 1.2381                 7.3499

                     43                     44                     45
                      A                      A                      A
 Frequencies --    982.3181              1016.3041              1023.5221
 Red. masses --      1.6047                 1.7800                 1.7315
 Frc consts  --      0.9123                 1.0832                 1.0687
 IR Inten    --     11.9021                24.9631                 5.4357

                     46                     47                     48
                      A                      A                      A
 Frequencies --   1025.3947              1042.3392              1072.0746
 Red. masses --      1.8804                 2.9363                 2.6015
 Frc consts  --      1.1649                 1.8796                 1.7617
 IR Inten    --     21.8842                 4.2409                 5.0653

                     49                     50                     51
                      A                      A                      A
 Frequencies --   1081.3661              1102.1688              1126.8345
 Red. masses --      1.4819                 2.4407                 2.1406
 Frc consts  --      1.0210                 1.7469                 1.6014
 IR Inten    --      6.9707                 1.6704                28.5023

                     52                     53                     54
                      A                      A                      A
 Frequencies --   1150.2158              1157.9929              1165.4575
 Red. masses --      1.3672                 1.3316                 1.4484
 Frc consts  --      1.0658                 1.0520                 1.1591
 IR Inten    --      8.9774                17.3321                 2.5958

                     55                     56                     57
                      A                      A                      A
 Frequencies --   1186.4234              1214.8445              1218.6080
 Red. masses --      1.2880                 1.7716                 1.6853
 Frc consts  --      1.0682                 1.5405                 1.4745
 IR Inten    --      8.1355                 9.7877                 8.0063

                     58                     59                     60
                      A                      A                      A
 Frequencies --   1223.2572              1237.8643              1244.5815
 Red. masses --      1.9276                 2.7880                 2.1089
 Frc consts  --      1.6994                 2.5171                 1.9246
 IR Inten    --      1.2702                12.5617                 0.4790

                     61                     62                     63
                      A                      A                      A
 Frequencies --   1291.3229              1308.8760              1329.3677
 Red. masses --      1.6616                 1.5455                 1.7342
 Frc consts  --      1.6325                 1.5600                 1.8057
 IR Inten    --     36.0134                 5.0591                 3.7734

                     64                     65                     66
                      A                      A                      A
 Frequencies --   1329.6569              1341.7043              1369.5300
 Red. masses --      4.0752                 2.3986                 1.6135
 Frc consts  --      4.2450                 2.5440                 1.7831
 IR Inten    --      7.8012                34.1854                 2.0501

                     67                     68                     69
                      A                      A                      A
 Frequencies --   1386.7552              1412.9154              1440.4350
 Red. masses --      1.9636                 1.6921                 1.3784
 Frc consts  --      2.2248                 1.9902                 1.6851
 IR Inten    --     41.0877                18.6001                20.2450

                     70                     71                     72
                      A                      A                      A
 Frequencies --   1440.6704              1463.3846              1470.9250
 Red. masses --      1.4272                 1.6785                 2.1106
 Frc consts  --      1.7453                 2.1178                 2.6905
 IR Inten    --      8.4185               124.8685                26.7896

                     73                     74                     75
                      A                      A                      A
 Frequencies --   1495.3950              1502.7475              1514.5700
 Red. masses --      1.3048                 2.0721                 1.1321
 Frc consts  --      1.7191                 2.7570                 1.5301
 IR Inten    --     10.7309                45.3140                 4.9878

                     76                     77                     78
                      A                      A                      A
 Frequencies --   1519.0909              1527.9858              1534.9285
 Red. masses --      1.0498                 1.1477                 1.0988
 Frc consts  --      1.4273                 1.5788                 1.5253
 IR Inten    --      3.9524                19.4222                 1.9281

                     79                     80                     81
                      A                      A                      A
 Frequencies --   1541.6129              1550.0112              1567.5656
 Red. masses --      1.2480                 1.1131                 2.2673
 Frc consts  --      1.7476                 1.5757                 3.2826
 IR Inten    --     82.4217                11.5975                12.1580

                     82                     83                     84
                      A                      A                      A
 Frequencies --   1622.0536              1636.4053              1654.6374
 Red. masses --      6.2226                 5.9378                 5.3694
 Frc consts  --      9.6461                 9.3682                 8.6613
 IR Inten    --     40.0862                 3.3200                76.4676

                     85                     86                     87
                      A                      A                      A
 Frequencies --   1677.0883              1692.8005              2963.0955
 Red. masses --      4.4000                 1.1608                 1.0729
 Frc consts  --      7.2915                 1.9598                 5.5502
 IR Inten    --      3.3432                28.3871                71.5352

                     88                     89                     90
                      A                      A                      A
 Frequencies --   3022.7335              3037.6470              3046.4818
 Red. masses --      1.0496                 1.0881                 1.0367
 Frc consts  --      5.6505                 5.9154                 5.6687
 IR Inten    --     58.3031                36.5910                18.4400

                     91                     92                     93
                      A                      A                      A
 Frequencies --   3064.2680              3091.9748              3101.0266
 Red. masses --      1.0620                 1.0999                 1.0907
 Frc consts  --      5.8751                 6.1954                 6.1794
 IR Inten    --     36.8888                28.5005                43.1739

                     94                     95                     96
                      A                      A                      A
 Frequencies --   3106.0269              3123.3687              3163.8076
 Red. masses --      1.1004                 1.1018                 1.0890
 Frc consts  --      6.2547                 6.3331                 6.4225
 IR Inten    --     17.7497                15.7813                33.1542

                     97                     98                     99
                      A                      A                      A
 Frequencies --   3166.6099              3170.0616              3175.6647
 Red. masses --      1.0887                 1.0987                 1.0889
 Frc consts  --      6.4319                 6.5052                 6.4703
 IR Inten    --     21.8187                14.2554                12.8837

                    100                    101                    102
                      A                      A                      A
 Frequencies --   3178.6009              3215.5643              3216.2526
 Red. masses --      1.0895                 1.0957                 1.0917
 Frc consts  --      6.4855                 6.6748                 6.6533
 IR Inten    --     19.9641                23.2891                 7.6009

                    103                    104                    105
                      A                      A                      A
 Frequencies --   3218.9410              3466.5233              3555.2927
 Red. masses --      1.0922                 1.0496                 1.0929
 Frc consts  --      6.6675                 7.4313                 8.1393
 IR Inten    --      2.7824                 3.0399                 1.0845

 - Thermochemistry -
 -------------------
 Temperature   298.150 Kelvin.  Pressure   1.00000 Atm.
 Atom     1 has atomic number  6 and mass  12.00000

 Molecular mass:   241.15790 amu.
 Principal axes and moments of inertia in atomic units:
                           1         2         3
     Eigenvalues --  2720.362966783.225907430.64579
           X            0.99984   0.01780   0.00249
           Y           -0.01780   0.99984  -0.00125
           Z           -0.00251   0.00120   1.00000
 This molecule is an asymmetric top.
 Rotational symmetry number  1.
 Warning -- assumption of classical behavior for rotation
           may cause significant error
 Rotational temperatures (Kelvin)      0.03184     0.01277     0.01166
 Rotational constants (GHZ):           0.66342     0.26606     0.24288
 Zero-point vibrational energy     836866.9 (Joules/Mol)
                                  200.01598 (Kcal/Mol)
 Warning -- explicit consideration of  26 degrees of freedom as
           vibrations may cause significant error
 Vibrational temperatures:     32.01    58.96    68.82    95.70   144.19
          (Kelvin)            159.42   197.25   256.35   271.54   324.81
                              365.70   395.83   413.97   449.64   457.87
                              479.58   530.33   588.96   605.84   640.82
                              671.45   700.68   757.40   786.22   819.71
                              864.42   898.82   944.33  1018.67  1056.21
                             1094.76  1136.26  1146.47  1181.77  1220.37
                             1232.53  1243.35  1269.44  1369.24  1377.00
                             1392.24  1402.25  1413.34  1462.23  1472.62
                             1475.31  1499.69  1542.48  1555.84  1585.78
                             1621.26  1654.90  1666.09  1676.83  1707.00
                             1747.89  1753.31  1759.99  1781.01  1790.68
                             1857.93  1883.18  1912.66  1913.08  1930.41
                             1970.45  1995.23  2032.87  2072.46  2072.80
                             2105.48  2116.33  2151.54  2162.12  2179.13
                             2185.63  2198.43  2208.42  2218.04  2230.12
                             2255.38  2333.77  2354.42  2380.65  2412.96
                             2435.56  4263.23  4349.04  4370.50  4383.21
                             4408.80  4448.66  4461.69  4468.88  4493.83
                             4552.01  4556.05  4561.01  4569.07  4573.30
                             4626.48  4627.47  4631.34  4987.55  5115.27

 Zero-point correction=                           0.318746 (Hartree/Particle)
 Thermal correction to Energy=                    0.335552
 Thermal correction to Enthalpy=                  0.336497
 Thermal correction to Gibbs Free Energy=         0.273261
 Sum of electronic and zero-point Energies=           -747.038833
 Sum of electronic and thermal Energies=              -747.022026
 Sum of electronic and thermal Enthalpies=            -747.021082
 Sum of electronic and thermal Free Energies=         -747.084318

                     E (Thermal)             CV                S
                      KCal/Mol        Cal/Mol-Kelvin    Cal/Mol-Kelvin
 Total                  210.562             65.139            133.091
 Electronic               0.000              0.000              0.000
 Translational            0.889              2.981             42.342
 Rotational               0.889              2.981             33.283
 Vibrational            208.785             59.177             57.466
 Vibration     1          0.593              1.985              6.423
 Vibration     2          0.594              1.981              5.211
 Vibration     3          0.595              1.978              4.905
 Vibration     4          0.598              1.970              4.254
 Vibration     5          0.604              1.949              3.450
 Vibration     6          0.607              1.941              3.255
 Vibration     7          0.614              1.916              2.844
 Vibration     8          0.629              1.869              2.347
 Vibration     9          0.633              1.855              2.240
 Vibration    10          0.650              1.802              1.912
 Vibration    11          0.665              1.756              1.701
 Vibration    12          0.677              1.719              1.564
 Vibration    13          0.685              1.697              1.487
 Vibration    14          0.701              1.650              1.349
 Vibration    15          0.705              1.639              1.319
 Vibration    16          0.715              1.609              1.244
 Vibration    17          0.741              1.537              1.086
 Vibration    18          0.774              1.450              0.929
 Vibration    19          0.784              1.424              0.888
 Vibration    20          0.805              1.371              0.810
 Vibration    21          0.824              1.324              0.747
 Vibration    22          0.843              1.279              0.691
 Vibration    23          0.881              1.192              0.595
 Vibration    24          0.902              1.147              0.552
 Vibration    25          0.926              1.097              0.505
 Vibration    26          0.959              1.030              0.448

 Optimization completed.
    -- Stationary point found.
 Normal termination of Gaussian 16 at Fri Dec 11 19:11:10 2020.

 ----------------------------------------------------------------------
 # B3LYP/6-311++G(d,p) empiricaldispersion=gd3bj scf=xqc pop=npa geom=c
 heck
 ----------------------------------------------------------------------

 --------------------------------------
 CID_62255299_JID_8088_Energie_neutraal
 --------------------------------------
 Structure from the checkpoint file:  "JID_8088.chk"
 Charge =  0 Multiplicity = 1

 SCF Done:  E(RB3LYP) =  -747.559141233     A.U. after   15 cycles
 Normal termination of Gaussian 16 at Fri Dec 11 19:19:50 2020.

 ----------------------------------------------------------------------
 # B3LYP/6-311++G(d,p) empiricaldispersion=gd3bj scf=xqc pop=npa geom=c
 heck
 ----------------------------------------------------------------------

 ------------------------------------
 CID_62255299_JID_8088_Energie_kation
 ------------------------------------
 Structure from the checkpoint file:  "JID_8088.chk"
 Charge =  1 Multiplicity = 2

 SCF Done:  E(UB3LYP) =  -747.292146011     A.U. after   22 cycles
 Normal termination of Gaussian 16 at Fri Dec 11 19:37:44 2020.
 Gaussian 16:  ES64L-G16RevA.03 25-Dec-2016

 ----------------------------------------------------------------------
 # B3LYP/6-311++G(d,p) empiricaldispersion=gd3bj scf=xqc pop=npa geom=c
 heck
 ----------------------------------------------------------------------

 -----------------------------------
 CID_62255299_JID_8088_Energie_anion
 -----------------------------------
 Structure from the checkpoint file:  "JID_8088.chk"
 Charge = -1 Multiplicity = 2

                         Standard orientation:
 ---------------------------------------------------------------------
 Center     Atomic      Atomic             Coordinates (Angstroms)
 Number     Number       Type             X           Y           Z
 ---------------------------------------------------------------------
      1          6           0        1.590298   -0.124410    2.459597
      2          6           0        1.929034   -0.707195    1.112477
      3          6           0        2.142927    0.079571   -0.052577
      4          7           0        2.587074   -0.452874   -1.202463
      5          6           0        2.794467   -1.771021   -1.274825
      6          6           0        2.548627   -2.641253   -0.221807
      7          6           0        2.122441   -2.079442    0.983056
      8          7           0        1.945077    1.465471   -0.061735
      9          6           0        2.479507    2.191664   -1.211334
     10          6           0        0.710349    2.025691    0.501836
     11          6           0       -0.572674    1.291370    0.153892
     12          6           0       -1.642505    1.306952    1.055968
     13          6           0       -2.846438    0.672641    0.757874
     14          6           0       -3.007465   -0.007834   -0.454087
     15          6           0       -1.933412   -0.036380   -1.348761
     16          6           0       -0.732734    0.608114   -1.056043
     17          6           0       -4.317567   -0.685881   -0.795528
     18          7           0       -4.931181   -1.292433    0.391284
     19          1           0        2.197803    0.763322    2.666884
     20          1           0        0.535639    0.165249    2.536355
     21          1           0        1.785956   -0.858861    3.247062
     22          1           0        3.166534   -2.139538   -2.229721
     23          1           0        2.709221   -3.709291   -0.325713
     24          1           0        1.966078   -2.712461    1.853630
     25          1           0        2.516721    3.255433   -0.957140
     26          1           0        3.488446    1.840683   -1.427876
     27          1           0        1.881501    2.065050   -2.125283
     28          1           0        0.782770    2.114718    1.590078
     29          1           0        0.647080    3.053930    0.129290
     30          1           0       -1.529911    1.822545    2.007949
     31          1           0       -3.667050    0.678419    1.467950
     32          1           0       -2.033684   -0.577079   -2.287333
     33          1           0        0.090964    0.549784   -1.759543
     34          1           0       -5.026952    0.063154   -1.174995
     35          1           0       -4.142722   -1.391341   -1.626914
     36          1           0       -5.825576   -1.709709    0.140516
     37          1           0       -4.338733   -2.050693    0.726782
 ---------------------------------------------------------------------

 SCF Done:  E(UB3LYP) =  -747.546490454     A.U. after   33 cycles
 SCF Done:  E(UB3LYP) =  -747.546490454     a.u. after    1 cycles

 The electronic state is 2-A.
 Alpha  occ. eigenvalues --  -14.23334 -14.20239 -14.19058 -10.14269 -10.11214
 Alpha  occ. eigenvalues --  -10.10552 -10.09771 -10.09424 -10.08857 -10.08536
 Alpha  occ. eigenvalues --  -10.07806 -10.07631 -10.07619 -10.07378 -10.07288
 Alpha  occ. eigenvalues --  -10.07051 -10.06921 -10.06647  -0.87577  -0.81530
 Alpha  occ. eigenvalues --   -0.78576  -0.75197  -0.71724  -0.67976  -0.66821
 Alpha  occ. eigenvalues --   -0.64419  -0.61782  -0.60934  -0.57588  -0.54784
 Alpha  occ. eigenvalues --   -0.51523  -0.51042  -0.49779  -0.47328  -0.42965
 Alpha  occ. eigenvalues --   -0.40947  -0.40405  -0.38973  -0.38441  -0.36507
 Alpha  occ. eigenvalues --   -0.36176  -0.35066  -0.34175  -0.33614  -0.33277
 Alpha  occ. eigenvalues --   -0.32378  -0.31832  -0.31433  -0.30846  -0.30499
 Alpha  occ. eigenvalues --   -0.29060  -0.29039  -0.28670  -0.27907  -0.26645
 Alpha  occ. eigenvalues --   -0.25203  -0.24159  -0.23769  -0.19876  -0.17745
 Alpha  occ. eigenvalues --   -0.16449  -0.15417  -0.14990  -0.13541  -0.11516
 Alpha  occ. eigenvalues --    0.04265
 Alpha virt. eigenvalues --    0.05894   0.06349   0.06495   0.07061   0.08084
 Alpha virt. eigenvalues --    0.08231   0.08374   0.08734   0.08920   0.08979
 Alpha virt. eigenvalues --    0.09402   0.09697   0.10447   0.11090   0.11273

  Beta  occ. eigenvalues --  -14.23333 -14.20197 -14.19005 -10.14271 -10.11208
  Beta  occ. eigenvalues --  -10.10516 -10.09753 -10.09404 -10.08830 -10.08480
  Beta  occ. eigenvalues --  -10.07750 -10.07640 -10.07607 -10.07342 -10.07290
  Beta  occ. eigenvalues --  -10.07045 -10.06912 -10.06627  -0.87544  -0.81483
  Beta  occ. eigenvalues --   -0.78483  -0.75132  -0.71642  -0.67904  -0.66755
  Beta  occ. eigenvalues --   -0.64375  -0.61723  -0.60898  -0.57518  -0.54713
  Beta  occ. eigenvalues --   -0.51437  -0.51011  -0.49731  -0.47258  -0.42928
  Beta  occ. eigenvalues --   -0.40906  -0.40350  -0.38928  -0.38386  -0.36463
  Beta  occ. eigenvalues --   -0.36120  -0.35013  -0.34119  -0.33569  -0.33227
  Beta  occ. eigenvalues --   -0.32337  -0.31784  -0.31391  -0.30807  -0.30446
  Beta  occ. eigenvalues --   -0.28995  -0.28967  -0.28584  -0.27872  -0.26596
  Beta  occ. eigenvalues --   -0.25111  -0.24115  -0.23734  -0.19769  -0.17515
  Beta  occ. eigenvalues --   -0.16388  -0.15318  -0.14877  -0.13365  -0.11430
  Beta virt. eigenvalues --    0.06172   0.06744   0.06965   0.07068   0.07242
  Beta virt. eigenvalues --    0.08205   0.08471   0.08598   0.08974   0.09042
  Beta virt. eigenvalues --    0.09215   0.09512   0.10073   0.10738   0.11255

 Mulliken charges and spin densities:
               1          2
     1  C    0.340514  -1.106117
     2  C   -0.651057   1.223424
     3  C   -1.042928   0.472012
     4  N   -0.060104   0.044971
     5  C    0.080354  -0.207683
     6  C    0.116472  -0.388634
     7  C    0.579830  -0.682350
     8  N    0.229402   0.034915
     9  C    0.246605  -0.459245
    10  C   -0.345311  -0.662021
    11  C    1.656525  -0.182767
    12  C   -0.955503   0.488707
    13  C   -0.713321   0.345103
    14  C   -0.106486   0.838308
    15  C   -0.927252  -0.049007
    16  C    0.190400  -0.474753
    17  C    1.388409  -2.044186
    18  N   -0.388665   0.045301
    19  H   -0.044657   0.218337
    20  H    0.288984  -0.140666
    21  H   -0.138891   0.280944
    22  H    0.093843   0.058176
    23  H   -0.097369   0.249968
    24  H   -0.171328   0.331880
    25  H   -0.167573   0.293912
    26  H    0.078740   0.101896
    27  H    0.095125   0.062201
    28  H    0.157387   0.003888
    29  H   -0.128610   0.304674
    30  H   -0.066098   0.203427
    31  H    0.139642   0.070050
    32  H    0.029298   0.130651
    33  H    0.068139   0.034345
    34  H   -0.148065   0.311865
    35  H   -0.357682   0.529644
    36  H   -0.287832   0.536035
    37  H    0.019064   0.182797
 Sum of Mulliken charges =  -1.00000   1.00000

 Dipole moment (field-independent basis, Debye):
    X=              6.4370    Y=              1.8892    Z=             -0.0029  Tot=              6.7085
 Quadrupole moment (field-independent basis, Debye-Ang):
   XX=           -209.5620   YY=           -150.6805   ZZ=           -138.7464
   XY=            -12.5026   XZ=             -4.2788   YZ=              3.1217

 Summary of Natural Population Analysis:

                                       Natural Population
                Natural  -----------------------------------------------
    Atom  No    Charge         Core      Valence    Rydberg      Total
 -----------------------------------------------------------------------
      C    1   -0.29574      0.99964     2.29059    0.00551     3.29574
      C    2   -0.04123      0.99947     2.03251    0.00924     3.04123
      C    3    0.21165      0.99947     1.77387    0.01501     2.78835
      N    4   -0.25786      0.99967     2.74749    0.01069     3.75786
      C    5    0.03421      0.99959     1.95238    0.01383     2.96579
      C    6   -0.14182      0.99955     2.13311    0.00915     3.14182
      C    7   -0.06995      0.99952     2.06034    0.01009     3.06995
      N    8   -0.26144      0.99966     2.75004    0.01174     3.76144
      C    9   -0.17281      0.99964     2.16483    0.00835     3.17281
      C   10   -0.08785      0.99956     2.07695    0.01135     3.08785
      C   11   -0.02189      0.99950     2.01288    0.00951     3.02189
      C   12   -0.10284      0.99951     2.09515    0.00818     3.10284
      C   13   -0.09388      0.99951     2.08549    0.00887     3.09388
      C   14   -0.01750      0.99950     2.00737    0.01062     3.01750
      C   15   -0.09400      0.99951     2.08584    0.00865     3.09400
      C   16   -0.10043      0.99951     2.09186    0.00906     3.10043
      C   17   -0.09385      0.99960     2.08189    0.01236     3.09385
      N   18   -0.42139      0.99978     2.91084    0.01077     3.92139
      H   19    0.10401      0.00000     0.39485    0.00114     0.39599
      H   20    0.10749      0.00000     0.39115    0.00136     0.39251
      H   21    0.10277      0.00000     0.39632    0.00091     0.39723
      H   22    0.08637      0.00000     0.41263    0.00100     0.41363
      H   23    0.10153      0.00000     0.39761    0.00086     0.39847
      H   24    0.09893      0.00000     0.40010    0.00097     0.40107
      H   25    0.09195      0.00000     0.40712    0.00093     0.40805
      H   26    0.10402      0.00000     0.39494    0.00104     0.39598
      H   27    0.08977      0.00000     0.40895    0.00128     0.41023
      H   28    0.09761      0.00000     0.40094    0.00145     0.40239
      H   29    0.10593      0.00000     0.39265    0.00142     0.39407
      H   30    0.09538      0.00000     0.40316    0.00146     0.40462
      H   31    0.10923      0.00000     0.38947    0.00130     0.39077
      H   32    0.09823      0.00000     0.40055    0.00122     0.40177
      H   33    0.10537      0.00000     0.39253    0.00211     0.39463
      H   34    0.09603      0.00000     0.40232    0.00164     0.40397
      H   35    0.08171      0.00000     0.41634    0.00196     0.41829
      H   36    0.17883      0.00000     0.31612    0.00504     0.32117
      H   37    0.17346      0.00000     0.32448    0.00206     0.32654
 =======================================================================
   * Total *   -0.00000     17.99220    46.79567    0.21213    65.00000

 Normal termination of Gaussian 16 at Fri Dec 11 20:04:45 2020.
