 Gaussian 16, Revision A.03,

 -----------------------------------------------------------
 # opt freq B3LYP/6-31G(d) empiricaldispersion=gd3bj scf=xqc
 -----------------------------------------------------------

 ------------------------------
 CID_79741528_JID_4978_neutraal
 ------------------------------
 Symbolic Z-matrix:
 Charge =  0 Multiplicity = 1

 SCF Done:  E(RB3LYP) =  -618.387265658     A.U. after   12 cycles
 SCF Done:  E(RB3LYP) =  -618.391278635     A.U. after   11 cycles
 SCF Done:  E(RB3LYP) =  -618.392134507     A.U. after   10 cycles
 SCF Done:  E(RB3LYP) =  -618.392979726     A.U. after   11 cycles
 SCF Done:  E(RB3LYP) =  -618.393212468     A.U. after   10 cycles
 SCF Done:  E(RB3LYP) =  -618.393466409     A.U. after   11 cycles
 SCF Done:  E(RB3LYP) =  -618.393644288     A.U. after   10 cycles
 SCF Done:  E(RB3LYP) =  -618.393782558     A.U. after   10 cycles
 SCF Done:  E(RB3LYP) =  -618.393798021     A.U. after   11 cycles
 SCF Done:  E(RB3LYP) =  -618.393576632     A.U. after   13 cycles
 SCF Done:  E(RB3LYP) =  -618.395039397     A.U. after    9 cycles
 SCF Done:  E(RB3LYP) =  -618.395039319     A.U. after    7 cycles
 SCF Done:  E(RB3LYP) =  -618.395039268     A.U. after    8 cycles
 SCF Done:  E(RB3LYP) =  -618.395039951     A.U. after    7 cycles
 SCF Done:  E(RB3LYP) =  -618.395040078     A.U. after    7 cycles
 SCF Done:  E(RB3LYP) =  -618.395040110     A.U. after    6 cycles
 Optimization completed.
    -- Stationary point found.
 Normal termination of Gaussian 16 at Thu Dec 10 11:22:08 2020.

 --------------------------------------------------------------------
 #N Geom=AllCheck Guess=TCheck SCRF=Check GenChk RB3LYP/6-31G(d) Freq
 --------------------------------------------------------------------

 Structure from the checkpoint file:  "JID_4978.chk"
 ------------------------------
 CID_79741528_JID_4978_neutraal
 ------------------------------
 Charge =  0 Multiplicity = 1

 SCF Done:  E(RB3LYP) =  -618.395040110     A.U. after    1 cycles

  Exact polarizability: 158.440  -1.240 115.874   0.578   1.070 120.028
 Approx polarizability: 184.888  -2.579 172.672   3.913   1.477 178.625

                      1                      2                      3
                      A                      A                      A
 Frequencies --     28.8706                33.9136                48.7421
 Red. masses --      3.6519                 2.7904                 3.9171
 Frc consts  --      0.0018                 0.0019                 0.0055
 IR Inten    --      0.0693                 0.6200                 0.5422

                      4                      5                      6
                      A                      A                      A
 Frequencies --     77.8887                88.4523               132.1550
 Red. masses --      3.0010                 2.7798                 2.5699
 Frc consts  --      0.0107                 0.0128                 0.0264
 IR Inten    --      0.0585                 0.1671                 1.1776

                      7                      8                      9
                      A                      A                      A
 Frequencies --    164.9698               203.6965               220.7518
 Red. masses --      2.8036                 2.0610                 1.8108
 Frc consts  --      0.0450                 0.0504                 0.0520
 IR Inten    --      1.3816                 0.3368                 0.9261

                     10                     11                     12
                      A                      A                      A
 Frequencies --    237.3163               244.4601               262.9910
 Red. masses --      1.2002                 1.3257                 1.2823
 Frc consts  --      0.0398                 0.0467                 0.0523
 IR Inten    --      1.0335                 1.0325                 1.3525

                     13                     14                     15
                      A                      A                      A
 Frequencies --    292.2668               311.9683               331.0783
 Red. masses --      1.9201                 3.1611                 2.2704
 Frc consts  --      0.0966                 0.1813                 0.1466
 IR Inten    --      4.7564                 3.5756                 0.0546

                     16                     17                     18
                      A                      A                      A
 Frequencies --    361.9346               378.8911               397.2869
 Red. masses --      2.4295                 2.4917                 2.4108
 Frc consts  --      0.1875                 0.2107                 0.2242
 IR Inten    --      3.1105                 2.7114                 1.4518

                     19                     20                     21
                      A                      A                      A
 Frequencies --    424.2343               449.9273               504.1312
 Red. masses --      2.2143                 1.7926                 2.8412
 Frc consts  --      0.2348                 0.2138                 0.4254
 IR Inten    --      0.5847                 0.0209                11.0698

                     22                     23                     24
                      A                      A                      A
 Frequencies --    518.3296               597.9953               630.6288
 Red. masses --      2.7598                 2.0809                 1.3710
 Frc consts  --      0.4369                 0.4384                 0.3212
 IR Inten    --      3.7593                15.8122                85.9978

                     25                     26                     27
                      A                      A                      A
 Frequencies --    638.4957               663.0728               770.7252
 Red. masses --      2.8518                 2.3716                 1.3381
 Frc consts  --      0.6850                 0.6143                 0.4683
 IR Inten    --      0.3131                24.1666               123.4818

                     28                     29                     30
                      A                      A                      A
 Frequencies --    786.3659               800.9331               845.0572
 Red. masses --      3.0515                 2.5016                 2.6931
 Frc consts  --      1.1118                 0.9455                 1.1331
 IR Inten    --     10.3205                 0.9352                17.1994

                     31                     32                     33
                      A                      A                      A
 Frequencies --    852.3305               870.6130               891.9140
 Red. masses --      1.7232                 1.9068                 1.6664
 Frc consts  --      0.7376                 0.8515                 0.7811
 IR Inten    --    116.6853                12.7472                 2.6434

                     34                     35                     36
                      A                      A                      A
 Frequencies --    918.2945               934.0193               939.9871
 Red. masses --      2.1857                 2.4128                 1.8600
 Frc consts  --      1.0860                 1.2402                 0.9683
 IR Inten    --     10.0895                25.0413                 9.9522

                     37                     38                     39
                      A                      A                      A
 Frequencies --    946.7966               951.5109               978.5380
 Red. masses --      1.5644                 1.6703                 2.0224
 Frc consts  --      0.8263                 0.8910                 1.1409
 IR Inten    --      1.2103                 5.2383                16.3143

                     40                     41                     42
                      A                      A                      A
 Frequencies --    980.8610              1000.8255              1009.4246
 Red. masses --      1.5442                 1.7914                 1.6328
 Frc consts  --      0.8753                 1.0572                 0.9802
 IR Inten    --      2.8939                 4.4303                 2.2220

                     43                     44                     45
                      A                      A                      A
 Frequencies --   1045.5377              1056.7501              1073.8990
 Red. masses --      1.7749                 1.6968                 1.8711
 Frc consts  --      1.1432                 1.1164                 1.2714
 IR Inten    --      2.0186                 5.5843                16.1789

                     46                     47                     48
                      A                      A                      A
 Frequencies --   1078.0244              1113.6850              1122.2419
 Red. masses --      1.9402                 3.6124                 1.9982
 Frc consts  --      1.3285                 2.6398                 1.4827
 IR Inten    --     15.7174                20.3974                 2.0581

                     49                     50                     51
                      A                      A                      A
 Frequencies --   1151.0514              1187.2381              1208.6063
 Red. masses --      2.5395                 1.9220                 1.6200
 Frc consts  --      1.9824                 1.5962                 1.3942
 IR Inten    --     41.5017                12.7839                 6.1488

                     52                     53                     54
                      A                      A                      A
 Frequencies --   1211.4179              1220.0300              1228.0271
 Red. masses --      1.7128                 2.2634                 1.7031
 Frc consts  --      1.4810                 1.9850                 1.5132
 IR Inten    --     11.5388                21.5362                61.3386

                     55                     56                     57
                      A                      A                      A
 Frequencies --   1240.9088              1292.8540              1293.5904
 Red. masses --      1.4103                 1.4259                 1.3393
 Frc consts  --      1.2795                 1.4042                 1.3205
 IR Inten    --      0.3348                 4.7452                 9.2522

                     58                     59                     60
                      A                      A                      A
 Frequencies --   1315.5848              1328.2947              1345.9530
 Red. masses --      1.3844                 1.4302                 1.2245
 Frc consts  --      1.4117                 1.4867                 1.3070
 IR Inten    --      7.5549                18.9209                 1.1950

                     61                     62                     63
                      A                      A                      A
 Frequencies --   1347.9298              1355.6816              1375.9793
 Red. masses --      1.2948                 1.2575                 1.2813
 Frc consts  --      1.3861                 1.3617                 1.4293
 IR Inten    --      1.2696                 0.3308                26.0134

                     64                     65                     66
                      A                      A                      A
 Frequencies --   1380.9756              1390.0989              1409.2106
 Red. masses --      1.3006                 1.3707                 1.4976
 Frc consts  --      1.4614                 1.5606                 1.7522
 IR Inten    --      4.5191                 0.2700                 8.0749

                     67                     68                     69
                      A                      A                      A
 Frequencies --   1422.8071              1429.0671              1432.5701
 Red. masses --      1.3299                 1.2621                 1.2682
 Frc consts  --      1.5862                 1.5187                 1.5335
 IR Inten    --     19.3651                 2.1523                13.5905

                     70                     71                     72
                      A                      A                      A
 Frequencies --   1449.5375              1463.5296              1486.3471
 Red. masses --      1.2373                 1.5785                 1.1467
 Frc consts  --      1.5318                 1.9920                 1.4926
 IR Inten    --      5.8008                49.2596                 8.9106

                     73                     74                     75
                      A                      A                      A
 Frequencies --   1496.8415              1504.4839              1514.1167
 Red. masses --      1.1897                 1.0786                 1.0831
 Frc consts  --      1.5706                 1.4384                 1.4630
 IR Inten    --      5.0506                 0.8019                 8.7756

                     76                     77                     78
                      A                      A                      A
 Frequencies --   1516.3385              1518.6201              1523.2103
 Red. masses --      1.0756                 1.0449                 1.1014
 Frc consts  --      1.4571                 1.4197                 1.5056
 IR Inten    --      4.0878                 1.3989                 4.2474

                     79                     80                     81
                      A                      A                      A
 Frequencies --   1527.0431              1532.8119              1533.5223
 Red. masses --      1.0666                 1.0567                 1.0908
 Frc consts  --      1.4653                 1.4628                 1.5114
 IR Inten    --      0.1637                 6.9142                 0.4099

                     82                     83                     84
                      A                      A                      A
 Frequencies --   1537.0464              1543.6670              1544.9130
 Red. masses --      1.0556                 1.0637                 1.0817
 Frc consts  --      1.4693                 1.4933                 1.5211
 IR Inten    --      8.2313                 4.3403                 6.6474

                     85                     86                     87
                      A                      A                      A
 Frequencies --   3005.9867              3014.1896              3026.3945
 Red. masses --      1.0629                 1.0669                 1.0821
 Frc consts  --      5.6586                 5.7110                 5.8391
 IR Inten    --     12.8793                40.7005                 7.5064

                     88                     89                     90
                      A                      A                      A
 Frequencies --   3033.1050              3039.8462              3046.6444
 Red. masses --      1.0370                 1.0440                 1.0693
 Frc consts  --      5.6210                 5.6840                 5.8479
 IR Inten    --     26.7496                38.6884                31.4959

                     91                     92                     93
                      A                      A                      A
 Frequencies --   3049.7875              3054.6047              3058.7070
 Red. masses --      1.0944                 1.0693                 1.0408
 Frc consts  --      5.9972                 5.8784                 5.7371
 IR Inten    --     40.8881                14.7046                33.9845

                     94                     95                     96
                      A                      A                      A
 Frequencies --   3064.1345              3071.8651              3091.8558
 Red. masses --      1.0658                 1.0802                 1.1008
 Frc consts  --      5.8956                 6.0056                 6.2001
 IR Inten    --     17.5496                42.5540                16.3639

                     97                     98                     99
                      A                      A                      A
 Frequencies --   3100.0270              3105.0947              3107.6614
 Red. masses --      1.1010                 1.0980                 1.1019
 Frc consts  --      6.2339                 6.2375                 6.2701
 IR Inten    --     75.7484                23.8473                57.0215

                    100                    101                    102
                      A                      A                      A
 Frequencies --   3113.3855              3116.7625              3120.9001
 Red. masses --      1.0937                 1.1021                 1.1017
 Frc consts  --      6.2462                 6.3079                 6.3223
 IR Inten    --     26.4030                39.3993                46.2716

                    103                    104                    105
                      A                      A                      A
 Frequencies --   3126.4208              3141.4062              3165.8520
 Red. masses --      1.1011                 1.1007                 1.0963
 Frc consts  --      6.3412                 6.4001                 6.4740
 IR Inten    --     32.2629                28.5155                 8.5609

                    106                    107                    108
                      A                      A                      A
 Frequencies --   3468.1637              3531.9386              3588.1538
 Red. masses --      1.0744                 1.0750                 1.0641
 Frc consts  --      7.6138                 7.9010                 8.0717
 IR Inten    --      3.2417                 1.2937               100.7731

 - Thermochemistry -
 -------------------
 Temperature   298.150 Kelvin.  Pressure   1.00000 Atm.
 Atom     1 has atomic number  6 and mass  12.00000

 Molecular mass:   200.18886 amu.
 Principal axes and moments of inertia in atomic units:
                           1         2         3
     Eigenvalues --  1171.284466292.674196386.96033
           X            0.99999  -0.00054  -0.00316
           Y            0.00038   0.99868  -0.05144
           Z            0.00319   0.05144   0.99867
 This molecule is an asymmetric top.
 Rotational symmetry number  1.
 Warning -- assumption of classical behavior for rotation
           may cause significant error
 Rotational temperatures (Kelvin)      0.07395     0.01376     0.01356
 Rotational constants (GHZ):           1.54082     0.28680     0.28257
 Zero-point vibrational energy     925404.7 (Joules/Mol)
                                  221.17702 (Kcal/Mol)
 Warning -- explicit consideration of  23 degrees of freedom as
           vibrations may cause significant error
 Vibrational temperatures:     41.54    48.79    70.13   112.06   127.26
          (Kelvin)            190.14   237.35   293.07   317.61   341.45
                              351.72   378.39   420.51   448.85   476.35
                              520.74   545.14   571.61   610.38   647.35
                              725.33   745.76   860.38   907.33   918.65
                              954.01  1108.90  1131.41  1152.36  1215.85
                             1226.31  1252.62  1283.27  1321.22  1343.85
                             1352.43  1362.23  1369.01  1407.90  1411.24
                             1439.96  1452.34  1504.30  1520.43  1545.10
                             1551.04  1602.34  1614.66  1656.11  1708.17
                             1738.91  1742.96  1755.35  1766.86  1785.39
                             1860.13  1861.19  1892.83  1911.12  1936.53
                             1939.37  1950.52  1979.73  1986.92  2000.04
                             2027.54  2047.10  2056.11  2061.15  2085.56
                             2105.69  2138.52  2153.62  2164.62  2178.48
                             2181.67  2184.96  2191.56  2197.07  2205.37
                             2206.40  2211.47  2220.99  2222.79  4324.94
                             4336.75  4354.31  4363.96  4373.66  4383.44
                             4387.96  4394.89  4400.80  4408.61  4419.73
                             4448.49  4460.25  4467.54  4471.23  4479.47
                             4484.33  4490.28  4498.22  4519.78  4554.95
                             4989.91  5081.67  5162.55

 Zero-point correction=                           0.352468 (Hartree/Particle)
 Thermal correction to Energy=                    0.368380
 Thermal correction to Enthalpy=                  0.369324
 Thermal correction to Gibbs Free Energy=         0.308570
 Sum of electronic and zero-point Energies=           -618.042572
 Sum of electronic and thermal Energies=              -618.026661
 Sum of electronic and thermal Enthalpies=            -618.025716
 Sum of electronic and thermal Free Energies=         -618.086470

                     E (Thermal)             CV                S
                      KCal/Mol        Cal/Mol-Kelvin    Cal/Mol-Kelvin
 Total                  231.162             61.126            127.866
 Electronic               0.000              0.000              0.000
 Translational            0.889              2.981             41.787
 Rotational               0.889              2.981             32.221
 Vibrational            229.384             55.165             53.859
 Vibration     1          0.593              1.984              5.906
 Vibration     2          0.594              1.983              5.586
 Vibration     3          0.595              1.978              4.868
 Vibration     4          0.599              1.964              3.943
 Vibration     5          0.601              1.957              3.694
 Vibration     6          0.612              1.921              2.914
 Vibration     7          0.623              1.885              2.492
 Vibration     8          0.639              1.835              2.099
 Vibration     9          0.647              1.809              1.953
 Vibration    10          0.656              1.784              1.823
 Vibration    11          0.660              1.772              1.770
 Vibration    12          0.670              1.741              1.642
 Vibration    13          0.688              1.688              1.461
 Vibration    14          0.700              1.651              1.352
 Vibration    15          0.713              1.613              1.255
 Vibration    16          0.736              1.551              1.114
 Vibration    17          0.749              1.515              1.044
 Vibration    18          0.764              1.476              0.973
 Vibration    19          0.786              1.418              0.878
 Vibration    20          0.809              1.361              0.796
 Vibration    21          0.859              1.241              0.648
 Vibration    22          0.873              1.209              0.614
 Vibration    23          0.956              1.036              0.453

 Optimization completed.
    -- Stationary point found.
 Normal termination of Gaussian 16 at Thu Dec 10 11:33:22 2020.

 ----------------------------------------------------------------------
 # B3LYP/6-311++G(d,p) empiricaldispersion=gd3bj scf=xqc pop=npa geom=c
 heck
 ----------------------------------------------------------------------

 --------------------------------------
 CID_79741528_JID_4978_Energie_neutraal
 --------------------------------------
 Structure from the checkpoint file:  "JID_4978.chk"
 Charge =  0 Multiplicity = 1

 SCF Done:  E(RB3LYP) =  -618.583541500     A.U. after   13 cycles
 Normal termination of Gaussian 16 at Thu Dec 10 11:38:07 2020.

 ----------------------------------------------------------------------
 # B3LYP/6-311++G(d,p) empiricaldispersion=gd3bj scf=xqc pop=npa geom=c
 heck
 ----------------------------------------------------------------------

 ------------------------------------
 CID_79741528_JID_4978_Energie_kation
 ------------------------------------
 Structure from the checkpoint file:  "JID_4978.chk"
 Charge =  1 Multiplicity = 2

 SCF Done:  E(UB3LYP) =  -618.283260283     A.U. after   22 cycles
 Normal termination of Gaussian 16 at Thu Dec 10 11:48:31 2020.
 Gaussian 16:  ES64L-G16RevA.03 25-Dec-2016

 ----------------------------------------------------------------------
 # B3LYP/6-311++G(d,p) empiricaldispersion=gd3bj scf=xqc pop=npa geom=c
 heck
 ----------------------------------------------------------------------

 -----------------------------------
 CID_79741528_JID_4978_Energie_anion
 -----------------------------------
 Structure from the checkpoint file:  "JID_4978.chk"
 Charge = -1 Multiplicity = 2

                         Standard orientation:
 ---------------------------------------------------------------------
 Center     Atomic      Atomic             Coordinates (Angstroms)
 Number     Number       Type             X           Y           Z
 ---------------------------------------------------------------------
      1          6           0        3.692403   -0.797200   -1.187928
      2          6           0        3.519652    0.104846    0.040883
      3          6           0        4.478030    1.301868   -0.037626
      4          6           0        2.076922    0.612470    0.219355
      5          6           0        0.972356   -0.421652    0.541676
      6          6           0        1.306157   -1.261613    1.770754
      7          6           0       -0.370983    0.317649    0.755103
      8          7           0       -0.852204    0.847320   -0.526752
      9          6           0       -2.299683    0.797224   -0.765850
     10          6           0       -3.241122    1.269078    0.387858
     11          6           0       -4.014502   -0.006639    0.791170
     12          7           0       -4.080199   -0.851642   -0.411513
     13          6           0       -2.776198   -0.659268   -1.056402
     14          8           0        0.767831   -1.331992   -0.540093
     15          1           0        3.435316   -0.246980   -2.103146
     16          1           0        3.042431   -1.671964   -1.139184
     17          1           0        4.734618   -1.126259   -1.280476
     18          1           0        3.793251   -0.475054    0.933325
     19          1           0        4.242899    1.931983   -0.905520
     20          1           0        4.413833    1.930748    0.858596
     21          1           0        5.517022    0.968511   -0.142860
     22          1           0        2.074090    1.359886    1.026806
     23          1           0        1.784126    1.146382   -0.696933
     24          1           0        1.484403   -0.625438    2.645257
     25          1           0        0.478952   -1.943299    1.992708
     26          1           0        2.199914   -1.866479    1.596402
     27          1           0       -1.094701   -0.414884    1.122216
     28          1           0       -0.271257    1.092473    1.530025
     29          1           0       -0.514522    1.795625   -0.658223
     30          1           0       -2.470537    1.418877   -1.650868
     31          1           0       -3.938286    2.029804    0.017903
     32          1           0       -2.684155    1.715597    1.217992
     33          1           0       -3.465484   -0.556718    1.566314
     34          1           0       -5.018478    0.189258    1.179054
     35          1           0       -4.803056   -0.474595   -1.024150
     36          1           0       -2.837746   -0.873722   -2.127080
     37          1           0       -2.052161   -1.363679   -0.629557
     38          1           0        0.275511   -0.794453   -1.193939
 ---------------------------------------------------------------------

 SCF Done:  E(UB3LYP) =  -618.573367110     A.U. after   26 cycles

 The electronic state is 2-A.
 Alpha  occ. eigenvalues --  -19.00962 -14.20639 -14.19683 -10.12766 -10.09689
 Alpha  occ. eigenvalues --  -10.09431 -10.09074 -10.08488 -10.08028 -10.06705
 Alpha  occ. eigenvalues --  -10.06623 -10.06567 -10.06004 -10.05792  -0.92096
 Alpha  occ. eigenvalues --   -0.82699  -0.79736  -0.71749  -0.67572  -0.64133
 Alpha  occ. eigenvalues --   -0.61953  -0.59153  -0.58853  -0.57019  -0.50400
 Alpha  occ. eigenvalues --   -0.48666  -0.46924  -0.45470  -0.41686  -0.40182
 Alpha  occ. eigenvalues --   -0.39034  -0.38264  -0.37027  -0.35310  -0.33778
 Alpha  occ. eigenvalues --   -0.33436  -0.32911  -0.31634  -0.30110  -0.29412
 Alpha  occ. eigenvalues --   -0.29300  -0.28935  -0.27967  -0.27262  -0.26855
 Alpha  occ. eigenvalues --   -0.26477  -0.25287  -0.24820  -0.24381  -0.23603
 Alpha  occ. eigenvalues --   -0.23072  -0.22636  -0.21237  -0.16974  -0.14346
 Alpha  occ. eigenvalues --   -0.12822   0.04114
 Alpha virt. eigenvalues --    0.05899   0.07053   0.07341   0.08136   0.08505
 Alpha virt. eigenvalues --    0.08926   0.09569   0.10013   0.10622   0.10766
 Alpha virt. eigenvalues --    0.10882   0.11375   0.12216   0.12457   0.13169

  Beta  occ. eigenvalues --  -19.00957 -14.20621 -14.19665 -10.12763 -10.09669
  Beta  occ. eigenvalues --  -10.09415 -10.09062 -10.08478 -10.08023 -10.06695
  Beta  occ. eigenvalues --  -10.06603 -10.06547 -10.05974 -10.05783  -0.92084
  Beta  occ. eigenvalues --   -0.82661  -0.79698  -0.71731  -0.67551  -0.64082
  Beta  occ. eigenvalues --   -0.61916  -0.59122  -0.58819  -0.56977  -0.50338
  Beta  occ. eigenvalues --   -0.48631  -0.46874  -0.45431  -0.41629  -0.40137
  Beta  occ. eigenvalues --   -0.38987  -0.38236  -0.37004  -0.35284  -0.33751
  Beta  occ. eigenvalues --   -0.33404  -0.32871  -0.31601  -0.30083  -0.29391
  Beta  occ. eigenvalues --   -0.29276  -0.28916  -0.27934  -0.27230  -0.26827
  Beta  occ. eigenvalues --   -0.26458  -0.25255  -0.24787  -0.24358  -0.23583
  Beta  occ. eigenvalues --   -0.23051  -0.22588  -0.21206  -0.16962  -0.14318
  Beta  occ. eigenvalues --   -0.12792
  Beta virt. eigenvalues --    0.06114   0.06957   0.07411   0.08032   0.08431
  Beta virt. eigenvalues --    0.08792   0.09230   0.09935   0.10284   0.10887
  Beta virt. eigenvalues --    0.10999   0.11275   0.11710   0.12361   0.12591

 Mulliken charges and spin densities:
               1          2
     1  C   -0.289634  -0.409806
     2  C   -0.164222   0.750999
     3  C    0.200093  -0.858745
     4  C    0.138271  -0.861033
     5  C    0.774523   0.040873
     6  C   -0.472978  -0.213891
     7  C   -0.978051  -0.130726
     8  N   -0.218238   0.099706
     9  C   -0.031019   0.101230
    10  C    0.490927  -0.802727
    11  C   -0.141840  -0.287093
    12  N   -0.036967   0.006506
    13  C    0.576023  -1.257142
    14  O   -0.114615  -0.022126
    15  H    0.016977   0.126006
    16  H    0.170011   0.012927
    17  H    0.025789   0.093685
    18  H    0.067697   0.058487
    19  H   -0.070877   0.203429
    20  H   -0.185083   0.318172
    21  H   -0.031895   0.172304
    22  H    0.036819   0.130046
    23  H    0.296431  -0.183902
    24  H   -0.005230   0.160192
    25  H    0.069091   0.066044
    26  H    0.127387   0.029643
    27  H    0.397516  -0.183736
    28  H   -0.293999   0.463243
    29  H   -0.286018   0.564131
    30  H   -0.739903   0.955159
    31  H   -0.566394   0.743891
    32  H   -0.082716   0.217026
    33  H    0.035616   0.113078
    34  H   -0.128782   0.300501
    35  H   -0.005309   0.251116
    36  H    0.000609   0.154332
    37  H    0.095177   0.108826
    38  H    0.324814  -0.030624
 Sum of Mulliken charges =  -1.00000   1.00000

 Dipole moment (field-independent basis, Debye):
    X=              4.2875    Y=             -4.1672    Z=              1.8589  Tot=              6.2613
 Quadrupole moment (field-independent basis, Debye-Ang):
   XX=           -180.4686   YY=           -137.1683   ZZ=           -123.6613
   XY=              3.4393   XZ=             -6.8615   YZ=             -0.0123

 Summary of Natural Population Analysis:

                                       Natural Population
                Natural  -----------------------------------------------
    Atom  No    Charge         Core      Valence    Rydberg      Total
 -----------------------------------------------------------------------
      C    1   -0.28732      0.99965     2.28276    0.00492     3.28732
      C    2   -0.11529      0.99962     2.10610    0.00958     3.11529
      C    3   -0.27998      0.99965     2.27564    0.00468     3.27998
      C    4   -0.20134      0.99956     2.19038    0.01140     3.20134
      C    5    0.12635      0.99953     1.85780    0.01632     2.87365
      C    6   -0.29205      0.99961     2.28534    0.00710     3.29205
      C    7   -0.10076      0.99956     2.08923    0.01198     3.10076
      N    8   -0.35536      0.99972     2.84205    0.01359     3.85536
      C    9   -0.01686      0.99960     2.00174    0.01552     3.01686
      C   10   -0.21310      0.99962     2.20440    0.00908     3.21310
      C   11   -0.09105      0.99964     2.08047    0.01094     3.09105
      N   12   -0.33589      0.99976     2.82397    0.01216     3.83589
      C   13   -0.09769      0.99961     2.08567    0.01241     3.09769
      O   14   -0.38853      0.99989     3.38235    0.00629     4.38853
      H   15    0.09506      0.00000     0.40411    0.00083     0.40494
      H   16    0.11251      0.00000     0.38662    0.00087     0.38749
      H   17    0.09170      0.00000     0.40752    0.00078     0.40830
      H   18    0.09002      0.00000     0.40809    0.00189     0.40998
      H   19    0.09630      0.00000     0.40265    0.00105     0.40370
      H   20    0.09878      0.00000     0.40019    0.00102     0.40122
      H   21    0.09572      0.00000     0.40342    0.00086     0.40428
      H   22    0.10071      0.00000     0.39778    0.00151     0.39929
      H   23    0.09991      0.00000     0.39840    0.00169     0.40009
      H   24    0.10058      0.00000     0.39860    0.00082     0.39942
      H   25    0.10212      0.00000     0.39709    0.00079     0.39788
      H   26    0.10220      0.00000     0.39695    0.00084     0.39780
      H   27    0.09671      0.00000     0.40147    0.00182     0.40329
      H   28    0.09265      0.00000     0.40591    0.00145     0.40735
      H   29    0.18497      0.00000     0.31154    0.00349     0.31503
      H   30    0.10061      0.00000     0.39590    0.00350     0.39939
      H   31    0.10354      0.00000     0.39317    0.00329     0.39646
      H   32    0.10206      0.00000     0.39673    0.00121     0.39794
      H   33    0.08494      0.00000     0.41345    0.00161     0.41506
      H   34    0.09562      0.00000     0.40341    0.00097     0.40438
      H   35    0.17046      0.00000     0.32673    0.00281     0.32954
      H   36    0.09789      0.00000     0.40108    0.00103     0.40211
      H   37    0.09424      0.00000     0.40402    0.00174     0.40576
      H   38    0.23958      0.00000     0.25731    0.00311     0.26042
 =======================================================================
   * Total *   -0.00000     13.99502    41.82005    0.18493    56.00000

 Normal termination of Gaussian 16 at Thu Dec 10 12:00:47 2020.
