 Gaussian 16, Revision A.03,

 -----------------------------------------------------------
 # opt freq B3LYP/6-31G(d) empiricaldispersion=gd3bj scf=xqc
 -----------------------------------------------------------

 -------------------------------
 CID_134838413_JID_6889_neutraal
 -------------------------------
 Symbolic Z-matrix:
 Charge =  0 Multiplicity = 1

 SCF Done:  E(RB3LYP) =  -639.061324080     A.U. after   14 cycles
 SCF Done:  E(RB3LYP) =  -639.064338756     A.U. after   12 cycles
 SCF Done:  E(RB3LYP) =  -639.064733779     A.U. after   12 cycles
 SCF Done:  E(RB3LYP) =  -639.065304953     A.U. after   11 cycles
 SCF Done:  E(RB3LYP) =  -639.065468683     A.U. after   11 cycles
 SCF Done:  E(RB3LYP) =  -639.065508686     A.U. after   11 cycles
 SCF Done:  E(RB3LYP) =  -639.065520479     A.U. after    9 cycles
 SCF Done:  E(RB3LYP) =  -639.065526720     A.U. after    9 cycles
 SCF Done:  E(RB3LYP) =  -639.065527630     A.U. after    9 cycles
 SCF Done:  E(RB3LYP) =  -639.065527823     A.U. after    7 cycles
 Optimization completed.
    -- Stationary point found.
 Normal termination of Gaussian 16 at Fri Dec 11 01:03:53 2020.

 --------------------------------------------------------------------
 #N Geom=AllCheck Guess=TCheck SCRF=Check GenChk RB3LYP/6-31G(d) Freq
 --------------------------------------------------------------------

 Structure from the checkpoint file:  "JID_6889.chk"
 -------------------------------
 CID_134838413_JID_6889_neutraal
 -------------------------------
 Charge =  0 Multiplicity = 1

 SCF Done:  E(RB3LYP) =  -639.065527823     A.U. after    1 cycles

  Exact polarizability: 158.035 -18.205 150.931 -13.196  -5.363 141.873
 Approx polarizability: 202.992 -35.431 238.285 -25.490 -14.737 238.340

                      1                      2                      3
                      A                      A                      A
 Frequencies --     30.3236                50.1109                55.5278
 Red. masses --      4.0558                 3.6095                 3.7165
 Frc consts  --      0.0022                 0.0053                 0.0068
 IR Inten    --      0.0649                 0.0171                 0.0090

                      4                      5                      6
                      A                      A                      A
 Frequencies --     86.7007               142.3364               171.1655
 Red. masses --      3.6314                 3.2378                 1.9327
 Frc consts  --      0.0161                 0.0386                 0.0334
 IR Inten    --      0.3027                 0.0492                 0.1106

                      7                      8                      9
                      A                      A                      A
 Frequencies --    190.5594               283.1114               336.3296
 Red. masses --      4.1436                 3.4652                 2.4358
 Frc consts  --      0.0887                 0.1636                 0.1623
 IR Inten    --      2.2002                 3.8413                 2.5131

                     10                     11                     12
                      A                      A                      A
 Frequencies --    340.7215               353.5178               390.2255
 Red. masses --      2.0967                 2.0733                 1.9298
 Frc consts  --      0.1434                 0.1527                 0.1731
 IR Inten    --      0.2163                 0.1415                 0.1303

                     13                     14                     15
                      A                      A                      A
 Frequencies --    417.2669               429.0888               454.8317
 Red. masses --      2.9772                 2.5190                 1.9605
 Frc consts  --      0.3054                 0.2733                 0.2390
 IR Inten    --      0.0087                 0.8160                 2.0857

                     16                     17                     18
                      A                      A                      A
 Frequencies --    473.6335               502.5031               535.0736
 Red. masses --      3.5367                 3.8357                 3.1976
 Frc consts  --      0.4674                 0.5707                 0.5394
 IR Inten    --      0.0627                 5.0264                 2.8348

                     19                     20                     21
                      A                      A                      A
 Frequencies --    596.9400               638.3154               714.8105
 Red. masses --      2.5332                 6.3283                 1.9332
 Frc consts  --      0.5318                 1.5192                 0.5820
 IR Inten    --      7.1588                 0.0131                23.5520

                     22                     23                     24
                      A                      A                      A
 Frequencies --    737.9941               750.6345               763.1563
 Red. masses --      3.5185                 4.4940                 1.7981
 Frc consts  --      1.1290                 1.4919                 0.6170
 IR Inten    --      8.5521                 0.6021                18.8793

                     25                     26                     27
                      A                      A                      A
 Frequencies --    780.3049               793.7224               830.9453
 Red. masses --      3.0359                 1.4287                 2.9871
 Frc consts  --      1.0891                 0.5303                 1.2152
 IR Inten    --      1.7411                 1.2661                 2.3908

                     28                     29                     30
                      A                      A                      A
 Frequencies --    832.3300               859.2837               887.3848
 Red. masses --      2.7456                 1.2553                 2.3673
 Frc consts  --      1.1207                 0.5461                 1.0983
 IR Inten    --      0.5439                 0.4597                 0.8842

                     31                     32                     33
                      A                      A                      A
 Frequencies --    901.4823               911.2300               932.7142
 Red. masses --      1.6317                 2.8423                 1.9720
 Frc consts  --      0.7813                 1.3905                 1.0108
 IR Inten    --      0.5896                 0.3304                 7.5019

                     34                     35                     36
                      A                      A                      A
 Frequencies --    953.0716               964.3259               964.4761
 Red. masses --      2.2374                 1.6838                 1.4322
 Frc consts  --      1.1974                 0.9225                 0.7849
 IR Inten    --      2.0946                 0.3543                 1.1078

                     37                     38                     39
                      A                      A                      A
 Frequencies --    974.3896               981.0755               992.2080
 Red. masses --      1.7337                 1.6917                 1.2547
 Frc consts  --      0.9698                 0.9593                 0.7278
 IR Inten    --      3.0791                 1.7538                 0.0626

                     40                     41                     42
                      A                      A                      A
 Frequencies --   1001.6521              1021.9092              1024.1029
 Red. masses --      1.9990                 5.9820                 2.0311
 Frc consts  --      1.1817                 3.6806                 1.2551
 IR Inten    --      3.1026                 0.1749                 2.6351

                     43                     44                     45
                      A                      A                      A
 Frequencies --   1041.5048              1050.2254              1061.2760
 Red. masses --      1.9777                 2.3537                 2.1870
 Frc consts  --      1.2639                 1.5295                 1.4513
 IR Inten    --     11.1011                12.2466                 1.8797

                     46                     47                     48
                      A                      A                      A
 Frequencies --   1090.8044              1115.6451              1125.0608
 Red. masses --      1.3991                 1.5843                 1.6713
 Frc consts  --      0.9808                 1.1618                 1.2464
 IR Inten    --      1.4830                 2.9971                13.2390

                     49                     50                     51
                      A                      A                      A
 Frequencies --   1139.2221              1186.4639              1190.7151
 Red. masses --      1.4352                 1.4510                 1.4314
 Frc consts  --      1.0974                 1.2034                 1.1957
 IR Inten    --      7.2657                14.9260                10.2941

                     52                     53                     54
                      A                      A                      A
 Frequencies --   1193.0640              1199.5535              1205.6623
 Red. masses --      1.0998                 1.1523                 1.4539
 Frc consts  --      0.9223                 0.9769                 1.2452
 IR Inten    --      0.2326                 3.6466                28.0752

                     55                     56                     57
                      A                      A                      A
 Frequencies --   1215.2018              1236.3282              1247.0629
 Red. masses --      1.1359                 2.4549                 1.3749
 Frc consts  --      0.9883                 2.2108                 1.2598
 IR Inten    --      0.3459                 1.4697                 5.3704

                     58                     59                     60
                      A                      A                      A
 Frequencies --   1255.6544              1267.3691              1306.6422
 Red. masses --      1.3483                 1.4733                 1.4413
 Frc consts  --      1.2525                 1.3943                 1.4498
 IR Inten    --      3.2177                 3.6617                 2.0473

                     61                     62                     63
                      A                      A                      A
 Frequencies --   1322.4276              1328.7701              1338.1262
 Red. masses --      1.4416                 1.5228                 1.5243
 Frc consts  --      1.4854                 1.5842                 1.6081
 IR Inten    --      5.4548                 7.6194                 6.7320

                     64                     65                     66
                      A                      A                      A
 Frequencies --   1349.9854              1363.1843              1367.5197
 Red. masses --      1.6132                 2.1989                 1.7274
 Frc consts  --      1.7322                 2.4075                 1.9033
 IR Inten    --      0.9763                 4.1525                 1.5331

                     67                     68                     69
                      A                      A                      A
 Frequencies --   1376.7842              1377.9131              1382.2213
 Red. masses --      1.6009                 1.6270                 1.4649
 Frc consts  --      1.7879                 1.8201                 1.6489
 IR Inten    --      0.0509                 2.1697                 2.6964

                     70                     71                     72
                      A                      A                      A
 Frequencies --   1394.8662              1411.1533              1422.2499
 Red. masses --      1.4580                 1.3884                 1.4066
 Frc consts  --      1.6714                 1.6290                 1.6764
 IR Inten    --      4.9738                46.7542                11.2337

                     73                     74                     75
                      A                      A                      A
 Frequencies --   1440.1530              1499.2887              1502.4935
 Red. masses --      1.3753                 1.0915                 2.0181
 Frc consts  --      1.6806                 1.4456                 2.6842
 IR Inten    --      4.2634                 4.6649                 6.1883

                     76                     77                     78
                      A                      A                      A
 Frequencies --   1507.0662              1518.4300              1518.8542
 Red. masses --      1.0834                 1.1571                 1.1023
 Frc consts  --      1.4498                 1.5719                 1.4983
 IR Inten    --      0.6193                 5.9589                 5.0251

                     79                     80                     81
                      A                      A                      A
 Frequencies --   1533.3387              1535.8818              1547.5619
 Red. masses --      1.0843                 1.1157                 1.1244
 Frc consts  --      1.5020                 1.5506                 1.5866
 IR Inten    --      0.6010                 8.0056                 0.9819

                     82                     83                     84
                      A                      A                      A
 Frequencies --   1549.0493              1646.3956              1668.2750
 Red. masses --      2.1442                 5.4917                 5.6076
 Frc consts  --      3.0314                 8.7705                 9.1953
 IR Inten    --      9.9284                 0.8992                 6.5423

                     85                     86                     87
                      A                      A                      A
 Frequencies --   2926.9455              2998.6953              3013.3657
 Red. masses --      1.0719                 1.0655                 1.0656
 Frc consts  --      5.4103                 5.6452                 5.7011
 IR Inten    --     74.2519                55.0941                33.7496

                     88                     89                     90
                      A                      A                      A
 Frequencies --   3037.6940              3041.9548              3045.4642
 Red. masses --      1.0653                 1.0862                 1.0618
 Frc consts  --      5.7915                 5.9217                 5.8022
 IR Inten    --     54.2392                34.1681                34.1109

                     91                     92                     93
                      A                      A                      A
 Frequencies --   3052.1366              3057.8770              3062.8729
 Red. masses --      1.0660                 1.0960                 1.0674
 Frc consts  --      5.8509                 6.0380                 5.8995
 IR Inten    --      9.3622                32.8973                55.1090

                     94                     95                     96
                      A                      A                      A
 Frequencies --   3068.5753              3076.2278              3083.2322
 Red. masses --      1.0982                 1.0837                 1.0819
 Frc consts  --      6.0928                 6.0421                 6.0599
 IR Inten    --     10.2629               116.4220                33.8979

                     97                     98                     99
                      A                      A                      A
 Frequencies --   3089.4663              3091.2189              3099.0125
 Red. masses --      1.1056                 1.0981                 1.1014
 Frc consts  --      6.2176                 6.1822                 6.2325
 IR Inten    --     46.2550                41.3622                 2.2601

                    100                    101                    102
                      A                      A                      A
 Frequencies --   3118.4656              3172.5405              3176.2666
 Red. masses --      1.1038                 1.0862                 1.0867
 Frc consts  --      6.3247                 6.4414                 6.4593
 IR Inten    --     57.9215                 9.5501                 5.8912

                    103                    104                    105
                      A                      A                      A
 Frequencies --   3188.0397              3196.3510              3209.1180
 Red. masses --      1.0897                 1.0938                 1.0979
 Frc consts  --      6.5256                 6.5843                 6.6614
 IR Inten    --      8.4672                42.0731                21.8506

 - Thermochemistry -
 -------------------
 Temperature   298.150 Kelvin.  Pressure   1.00000 Atm.
 Atom     1 has atomic number  6 and mass  12.00000

 Molecular mass:   215.16740 amu.
 Principal axes and moments of inertia in atomic units:
                           1         2         3
     Eigenvalues --  1713.994725372.469615775.41658
           X            1.00000   0.00136  -0.00257
           Y           -0.00137   0.99999  -0.00330
           Z            0.00257   0.00330   0.99999
 This molecule is an asymmetric top.
 Rotational symmetry number  1.
 Warning -- assumption of classical behavior for rotation
           may cause significant error
 Rotational temperatures (Kelvin)      0.05053     0.01612     0.01500
 Rotational constants (GHZ):           1.05294     0.33592     0.31249
 Zero-point vibrational energy     878576.1 (Joules/Mol)
                                  209.98473 (Kcal/Mol)
 Warning -- explicit consideration of  19 degrees of freedom as
           vibrations may cause significant error
 Vibrational temperatures:     43.63    72.10    79.89   124.74   204.79
          (Kelvin)            246.27   274.17   407.33   483.90   490.22
                              508.63   561.45   600.35   617.36   654.40
                              681.45   722.99   769.85   858.86   918.39
                             1028.45  1061.81  1080.00  1098.01  1122.68
                             1141.99  1195.54  1197.54  1236.32  1276.75
                             1297.03  1311.06  1341.97  1371.26  1387.45
                             1387.67  1401.93  1411.55  1427.57  1441.15
                             1470.30  1473.46  1498.49  1511.04  1526.94
                             1569.42  1605.16  1618.71  1639.09  1707.06
                             1713.17  1716.55  1725.89  1734.68  1748.40
                             1778.80  1794.25  1806.61  1823.46  1879.97
                             1902.68  1911.80  1925.27  1942.33  1961.32
                             1967.56  1980.89  1982.51  1988.71  2006.90
                             2030.33  2046.30  2072.06  2157.14  2161.75
                             2168.33  2184.68  2185.29  2206.13  2209.79
                             2226.60  2228.74  2368.80  2400.28  4211.22
                             4314.45  4335.56  4370.56  4376.69  4381.74
                             4391.34  4399.60  4406.79  4415.00  4426.01
                             4436.08  4445.05  4447.57  4458.79  4486.78
                             4564.58  4569.94  4586.88  4598.84  4617.21

 Zero-point correction=                           0.334632 (Hartree/Particle)
 Thermal correction to Energy=                    0.348089
 Thermal correction to Enthalpy=                  0.349033
 Thermal correction to Gibbs Free Energy=         0.293510
 Sum of electronic and zero-point Energies=           -638.730896
 Sum of electronic and thermal Energies=              -638.717439
 Sum of electronic and thermal Enthalpies=            -638.716495
 Sum of electronic and thermal Free Energies=         -638.772018

                     E (Thermal)             CV                S
                      KCal/Mol        Cal/Mol-Kelvin    Cal/Mol-Kelvin
 Total                  218.429             55.300            116.859
 Electronic               0.000              0.000              0.000
 Translational            0.889              2.981             42.002
 Rotational               0.889              2.981             32.342
 Vibrational            216.652             49.339             42.515
 Vibration     1          0.594              1.984              5.808
 Vibration     2          0.595              1.978              4.813
 Vibration     3          0.596              1.975              4.610
 Vibration     4          0.601              1.958              3.733
 Vibration     5          0.616              1.911              2.772
 Vibration     6          0.626              1.878              2.423
 Vibration     7          0.634              1.853              2.222
 Vibration     8          0.682              1.705              1.515
 Vibration     9          0.717              1.603              1.230
 Vibration    10          0.720              1.594              1.209
 Vibration    11          0.730              1.568              1.150
 Vibration    12          0.758              1.491              0.999
 Vibration    13          0.780              1.433              0.901
 Vibration    14          0.790              1.407              0.862
 Vibration    15          0.813              1.350              0.781
 Vibration    16          0.830              1.309              0.727
 Vibration    17          0.858              1.244              0.652
 Vibration    18          0.890              1.172              0.576
 Vibration    19          0.955              1.038              0.455

 Optimization completed.
    -- Stationary point found.
 Normal termination of Gaussian 16 at Fri Dec 11 01:20:12 2020.

 ----------------------------------------------------------------------
 # B3LYP/6-311++G(d,p) empiricaldispersion=gd3bj scf=xqc pop=npa geom=c
 heck
 ----------------------------------------------------------------------

 ---------------------------------------
 CID_134838413_JID_6889_Energie_neutraal
 ---------------------------------------
 Structure from the checkpoint file:  "JID_6889.chk"
 Charge =  0 Multiplicity = 1

 SCF Done:  E(RB3LYP) =  -639.229839705     A.U. after   14 cycles
 Normal termination of Gaussian 16 at Fri Dec 11 01:28:05 2020.

 ----------------------------------------------------------------------
 # B3LYP/6-311++G(d,p) empiricaldispersion=gd3bj scf=xqc pop=npa geom=c
 heck
 ----------------------------------------------------------------------

 -------------------------------------
 CID_134838413_JID_6889_Energie_kation
 -------------------------------------
 Structure from the checkpoint file:  "JID_6889.chk"
 Charge =  1 Multiplicity = 2

 SCF Done:  E(UB3LYP) =  -638.963066138     A.U. after   21 cycles
 Normal termination of Gaussian 16 at Fri Dec 11 01:44:31 2020.
 Gaussian 16:  ES64L-G16RevA.03 25-Dec-2016

 ----------------------------------------------------------------------
 # B3LYP/6-311++G(d,p) empiricaldispersion=gd3bj scf=xqc pop=npa geom=c
 heck
 ----------------------------------------------------------------------

 ------------------------------------
 CID_134838413_JID_6889_Energie_anion
 ------------------------------------
 Structure from the checkpoint file:  "JID_6889.chk"
 Charge = -1 Multiplicity = 2

                         Standard orientation:
 ---------------------------------------------------------------------
 Center     Atomic      Atomic             Coordinates (Angstroms)
 Number     Number       Type             X           Y           Z
 ---------------------------------------------------------------------
      1          6           0       -3.726160    0.140657    0.007208
      2          6           0       -3.196996   -0.603448   -1.255217
      3          6           0       -1.900707   -1.308622   -0.789972
      4          6           0       -2.175382   -1.562323    0.702480
      5          6           0       -2.696547   -0.175980    1.117856
      6          6           0       -1.523352    0.816011    1.075835
      7          7           0       -0.987892    0.911500   -0.274158
      8          6           0       -0.686108   -0.374001   -0.902660
      9          6           0       -0.044096    1.989823   -0.492421
     10          6           0        1.234174    2.029444    0.386617
     11          6           0        2.119015    0.815287    0.243769
     12          6           0        2.228666   -0.122756    1.276426
     13          6           0        2.991175   -1.280305    1.118074
     14          6           0        3.662814   -1.516055   -0.081812
     15          6           0        3.575311   -0.580038   -1.114463
     16          6           0        2.812904    0.574841   -0.949485
     17          1           0       -4.715524   -0.233229    0.294417
     18          1           0       -3.815557    1.218111   -0.160993
     19          1           0       -3.925444   -1.343944   -1.604586
     20          1           0       -3.001898    0.085721   -2.082201
     21          1           0       -1.693969   -2.227521   -1.349583
     22          1           0       -1.280702   -1.870884    1.256740
     23          1           0       -2.945503   -2.331590    0.840353
     24          1           0       -3.137791   -0.164721    2.120690
     25          1           0       -1.864351    1.817469    1.372282
     26          1           0       -0.767155    0.499142    1.820596
     27          1           0       -0.453909   -0.178836   -1.957389
     28          1           0        0.190510   -0.879725   -0.466937
     29          1           0        0.251615    1.960081   -1.548422
     30          1           0       -0.574960    2.940683   -0.336806
     31          1           0        1.789911    2.935408    0.107926
     32          1           0        0.947224    2.154163    1.436905
     33          1           0        1.699628    0.052240    2.210103
     34          1           0        3.059237   -1.998016    1.931196
     35          1           0        4.255090   -2.417689   -0.209861
     36          1           0        4.102968   -0.750300   -2.049105
     37          1           0        2.747566    1.297725   -1.759646
 ---------------------------------------------------------------------

 SCF Done:  E(UB3LYP) =  -639.215766761     A.U. after   33 cycles
 SCF Done:  E(UB3LYP) =  -639.215766761     a.u. after    1 cycles

 The electronic state is 2-A.
 Alpha  occ. eigenvalues --  -14.19878 -10.09673 -10.08928 -10.08551 -10.08495
 Alpha  occ. eigenvalues --  -10.08027 -10.07965 -10.07817 -10.07604 -10.07599
 Alpha  occ. eigenvalues --  -10.07325 -10.07071 -10.07006 -10.06220 -10.06190
 Alpha  occ. eigenvalues --  -10.06169  -0.83066  -0.76408  -0.73850  -0.68380
 Alpha  occ. eigenvalues --   -0.65992  -0.65143  -0.62883  -0.60837  -0.55939
 Alpha  occ. eigenvalues --   -0.55186  -0.51303  -0.50565  -0.47889  -0.46009
 Alpha  occ. eigenvalues --   -0.43450  -0.41991  -0.40290  -0.37287  -0.37248
 Alpha  occ. eigenvalues --   -0.36207  -0.35678  -0.35159  -0.33732  -0.32910
 Alpha  occ. eigenvalues --   -0.32262  -0.31479  -0.30778  -0.29201  -0.28736
 Alpha  occ. eigenvalues --   -0.28103  -0.26557  -0.26074  -0.24469  -0.24210
 Alpha  occ. eigenvalues --   -0.23956  -0.23305  -0.22739  -0.21335  -0.21025
 Alpha  occ. eigenvalues --   -0.20805  -0.16134  -0.15556  -0.10531   0.04173
 Alpha virt. eigenvalues --    0.06057   0.06451   0.06873   0.07778   0.07938
 Alpha virt. eigenvalues --    0.08167   0.08332   0.08935   0.09110   0.09432
 Alpha virt. eigenvalues --    0.10293   0.10685   0.11335   0.11576   0.11907

  Beta  occ. eigenvalues --  -14.19878 -10.09658 -10.08911 -10.08544 -10.08485
  Beta  occ. eigenvalues --  -10.08017 -10.07952 -10.07798 -10.07589 -10.07584
  Beta  occ. eigenvalues --  -10.07312 -10.07062 -10.07001 -10.06211 -10.06179
  Beta  occ. eigenvalues --  -10.06156  -0.83056  -0.76376  -0.73829  -0.68343
  Beta  occ. eigenvalues --   -0.65971  -0.65108  -0.62850  -0.60808  -0.55906
  Beta  occ. eigenvalues --   -0.55158  -0.51262  -0.50529  -0.47850  -0.45982
  Beta  occ. eigenvalues --   -0.43410  -0.41939  -0.40250  -0.37262  -0.37219
  Beta  occ. eigenvalues --   -0.36165  -0.35651  -0.35134  -0.33695  -0.32879
  Beta  occ. eigenvalues --   -0.32235  -0.31455  -0.30752  -0.29176  -0.28711
  Beta  occ. eigenvalues --   -0.28077  -0.26518  -0.26049  -0.24438  -0.24182
  Beta  occ. eigenvalues --   -0.23931  -0.23285  -0.22717  -0.21314  -0.20998
  Beta  occ. eigenvalues --   -0.20783  -0.16101  -0.15497  -0.10515
  Beta virt. eigenvalues --    0.06128   0.06861   0.07046   0.07467   0.07910
  Beta virt. eigenvalues --    0.08246   0.08551   0.08749   0.09366   0.09547
  Beta virt. eigenvalues --    0.09654   0.10710   0.10943   0.11593   0.11881

 Mulliken charges and spin densities:
               1          2
     1  C    0.303951  -0.743370
     2  C   -0.137134  -0.378406
     3  C   -0.119976   0.465596
     4  C    0.409237  -1.070964
     5  C   -0.399270   0.706269
     6  C    0.070224  -0.654200
     7  N    0.131195   0.059125
     8  C   -0.377973  -0.258827
     9  C    0.279016  -0.404844
    10  C    1.868045  -2.502351
    11  C   -0.666704   1.300837
    12  C   -0.837460   0.620196
    13  C    0.042017  -0.310916
    14  C    1.330697  -1.630951
    15  C    0.023937  -0.281009
    16  C   -0.687610   0.596782
    17  H   -0.094977   0.242843
    18  H    0.023718   0.111273
    19  H   -0.014744   0.159500
    20  H    0.048377   0.088481
    21  H   -0.146726   0.369851
    22  H    0.046252   0.063476
    23  H   -0.142124   0.312708
    24  H   -0.443696   0.672190
    25  H   -0.131597   0.292403
    26  H    0.126482  -0.057947
    27  H   -0.019484   0.136130
    28  H    0.475790  -0.323781
    29  H   -0.019282   0.158292
    30  H   -0.055310   0.206041
    31  H   -0.236298   0.420652
    32  H   -0.051852   0.214649
    33  H   -0.239084   0.391498
    34  H   -0.398457   0.578218
    35  H   -0.174528   0.329005
    36  H   -0.524790   0.702441
    37  H   -0.259862   0.419111
 Sum of Mulliken charges =  -1.00000   1.00000

 Dipole moment (field-independent basis, Debye):
    X=             -1.1182    Y=              0.6323    Z=             -0.7280  Tot=              1.4766
 Quadrupole moment (field-independent basis, Debye-Ang):
   XX=           -177.9986   YY=           -145.9020   ZZ=           -140.7377
   XY=              0.5884   XZ=              7.5822   YZ=              0.7709

 Summary of Natural Population Analysis:

                                       Natural Population
                Natural  -----------------------------------------------
    Atom  No    Charge         Core      Valence    Rydberg      Total
 -----------------------------------------------------------------------
      C    1   -0.19125      0.99963     2.18295    0.00868     3.19125
      C    2   -0.19056      0.99963     2.18328    0.00766     3.19056
      C    3   -0.11658      0.99960     2.10541    0.01157     3.11658
      C    4   -0.19050      0.99961     2.18171    0.00918     3.19050
      C    5   -0.11580      0.99960     2.10425    0.01195     3.11580
      C    6   -0.07923      0.99959     2.06815    0.01148     3.07923
      N    7   -0.29154      0.99971     2.77934    0.01248     3.79154
      C    8   -0.07849      0.99959     2.06866    0.01024     3.07849
      C    9   -0.07086      0.99961     2.05932    0.01193     3.07086
      C   10   -0.20802      0.99959     2.19909    0.00933     3.20802
      C   11   -0.01393      0.99950     2.00325    0.01118     3.01393
      C   12   -0.10228      0.99950     2.09363    0.00915     3.10228
      C   13   -0.11228      0.99958     2.09713    0.01558     3.11228
      C   14   -0.07424      0.99956     2.06758    0.00710     3.07424
      C   15   -0.11207      0.99958     2.09698    0.01551     3.11207
      C   16   -0.10049      0.99950     2.09156    0.00943     3.10049
      H   17    0.09641      0.00000     0.40248    0.00111     0.40359
      H   18    0.10001      0.00000     0.39879    0.00120     0.39999
      H   19    0.09559      0.00000     0.40332    0.00110     0.40441
      H   20    0.09990      0.00000     0.39884    0.00127     0.40010
      H   21    0.10131      0.00000     0.39779    0.00090     0.39869
      H   22    0.10101      0.00000     0.39761    0.00138     0.39899
      H   23    0.09877      0.00000     0.40004    0.00119     0.40123
      H   24    0.10189      0.00000     0.39684    0.00126     0.39811
      H   25    0.09573      0.00000     0.40294    0.00133     0.40427
      H   26    0.08210      0.00000     0.41549    0.00241     0.41790
      H   27    0.09468      0.00000     0.40393    0.00139     0.40532
      H   28    0.09003      0.00000     0.40738    0.00259     0.40997
      H   29    0.09353      0.00000     0.40515    0.00132     0.40647
      H   30    0.09315      0.00000     0.40569    0.00116     0.40685
      H   31    0.10429      0.00000     0.39428    0.00142     0.39571
      H   32    0.10027      0.00000     0.39812    0.00162     0.39973
      H   33    0.10070      0.00000     0.39750    0.00180     0.39930
      H   34    0.10106      0.00000     0.39790    0.00104     0.39894
      H   35    0.09711      0.00000     0.40146    0.00143     0.40289
      H   36    0.10095      0.00000     0.39787    0.00118     0.39905
      H   37    0.10008      0.00000     0.39811    0.00181     0.39992
 =======================================================================
   * Total *    0.00044     15.99338    42.80382    0.20236    58.99956

 Normal termination of Gaussian 16 at Fri Dec 11 02:11:02 2020.
