 Gaussian 16, Revision A.03,

 -----------------------------------------------------------
 # opt freq B3LYP/6-31G(d) empiricaldispersion=gd3bj scf=xqc
 -----------------------------------------------------------

 ------------------------------
 CID_61793569_JID_9867_neutraal
 ------------------------------
 Symbolic Z-matrix:
 Charge =  0 Multiplicity = 1

 SCF Done:  E(RB3LYP) =  -871.875281705     A.U. after   15 cycles
 SCF Done:  E(RB3LYP) =  -871.880877687     A.U. after   12 cycles
 SCF Done:  E(RB3LYP) =  -871.882167650     A.U. after   12 cycles
 SCF Done:  E(RB3LYP) =  -871.882708165     A.U. after   13 cycles
 SCF Done:  E(RB3LYP) =  -871.883425336     A.U. after   12 cycles
 SCF Done:  E(RB3LYP) =  -871.884338335     A.U. after   13 cycles
 SCF Done:  E(RB3LYP) =  -871.884743493     A.U. after   13 cycles
 SCF Done:  E(RB3LYP) =  -871.885462868     A.U. after   13 cycles
 SCF Done:  E(RB3LYP) =  -871.885718226     A.U. after   11 cycles
 SCF Done:  E(RB3LYP) =  -871.884269785     A.U. after   13 cycles
 SCF Done:  E(RB3LYP) =  -871.886639076     A.U. after   11 cycles
 SCF Done:  E(RB3LYP) =  -871.886641960     A.U. after    9 cycles
 SCF Done:  E(RB3LYP) =  -871.886643025     A.U. after    8 cycles
 SCF Done:  E(RB3LYP) =  -871.886643229     A.U. after    8 cycles
 SCF Done:  E(RB3LYP) =  -871.886643298     A.U. after    8 cycles
 Optimization completed.
    -- Stationary point found.
 Normal termination of Gaussian 16 at Sat Dec 12 10:14:56 2020.

 --------------------------------------------------------------------
 #N Geom=AllCheck Guess=TCheck SCRF=Check GenChk RB3LYP/6-31G(d) Freq
 --------------------------------------------------------------------

 Structure from the checkpoint file:  "JID_9867.chk"
 ------------------------------
 CID_61793569_JID_9867_neutraal
 ------------------------------
 Charge =  0 Multiplicity = 1

 SCF Done:  E(RB3LYP) =  -871.886643298     A.U. after    1 cycles

  Exact polarizability: 226.777  -9.977 144.945  -6.716   5.343 119.907
 Approx polarizability: 285.441 -11.010 237.824 -17.740  18.151 193.291

                      1                      2                      3
                      A                      A                      A
 Frequencies --     19.6774                21.0756                27.9059
 Red. masses --      4.8788                 5.2670                 2.8456
 Frc consts  --      0.0011                 0.0014                 0.0013
 IR Inten    --      0.1339                 0.1502                 0.3906

                      4                      5                      6
                      A                      A                      A
 Frequencies --     40.7924                43.9177                56.2518
 Red. masses --      5.3124                 5.8338                 4.2963
 Frc consts  --      0.0052                 0.0066                 0.0080
 IR Inten    --      3.5991                 1.9448                 0.4739

                      7                      8                      9
                      A                      A                      A
 Frequencies --     76.3317               110.4193               123.9295
 Red. masses --      3.4261                 3.6240                 3.8519
 Frc consts  --      0.0118                 0.0260                 0.0349
 IR Inten    --      0.6496                 0.8495                 3.0536

                     10                     11                     12
                      A                      A                      A
 Frequencies --    148.5448               200.1605               225.3276
 Red. masses --      3.9584                 2.8753                 1.3330
 Frc consts  --      0.0515                 0.0679                 0.0399
 IR Inten    --      0.9020                 1.4226                 0.6459

                     13                     14                     15
                      A                      A                      A
 Frequencies --    252.4281               268.1589               288.0811
 Red. masses --      2.6914                 1.3382                 3.3387
 Frc consts  --      0.1010                 0.0567                 0.1633
 IR Inten    --      4.3913                 0.8390                 0.3210

                     16                     17                     18
                      A                      A                      A
 Frequencies --    310.2579               331.6025               357.1062
 Red. masses --      3.2523                 2.5416                 4.2368
 Frc consts  --      0.1845                 0.1647                 0.3183
 IR Inten    --      9.6387                 0.7701                 4.7669

                     19                     20                     21
                      A                      A                      A
 Frequencies --    390.6788               401.9186               405.5286
 Red. masses --      4.0172                 1.2654                 3.0808
 Frc consts  --      0.3613                 0.1204                 0.2985
 IR Inten    --     17.0998               194.2966                21.4149

                     22                     23                     24
                      A                      A                      A
 Frequencies --    417.7366               478.4599               506.4992
 Red. masses --      2.8240                 2.9517                 2.8417
 Frc consts  --      0.2903                 0.3981                 0.4295
 IR Inten    --      7.4776                12.4382                10.3937

                     25                     26                     27
                      A                      A                      A
 Frequencies --    514.1026               578.5106               612.9798
 Red. masses --      2.4959                 2.5912                 2.7601
 Frc consts  --      0.3887                 0.5110                 0.6110
 IR Inten    --     28.8866                18.1628                51.5715

                     28                     29                     30
                      A                      A                      A
 Frequencies --    632.1985               660.4122               666.9744
 Red. masses --      4.0438                 2.5158                 3.0871
 Frc consts  --      0.9522                 0.6465                 0.8091
 IR Inten    --      3.4569                57.9951                14.7960

                     31                     32                     33
                      A                      A                      A
 Frequencies --    673.3163               681.3528               686.4875
 Red. masses --      2.8458                 2.8681                 1.5323
 Frc consts  --      0.7601                 0.7845                 0.4255
 IR Inten    --      9.2100                17.3497                 6.2866

                     34                     35                     36
                      A                      A                      A
 Frequencies --    721.2352               739.8934               785.5207
 Red. masses --      3.2399                 1.6555                 2.3816
 Frc consts  --      0.9930                 0.5340                 0.8658
 IR Inten    --      4.8632                20.0031                14.5519

                     37                     38                     39
                      A                      A                      A
 Frequencies --    804.6701               811.3166               824.7871
 Red. masses --      1.1958                 1.5172                 1.3935
 Frc consts  --      0.4562                 0.5884                 0.5585
 IR Inten    --      0.5966                 8.8514                21.5260

                     40                     41                     42
                      A                      A                      A
 Frequencies --    848.0681               868.7642               871.6653
 Red. masses --      2.2545                 1.4583                 3.7087
 Frc consts  --      0.9553                 0.6485                 1.6602
 IR Inten    --     30.5766                16.2761                 3.6059

                     43                     44                     45
                      A                      A                      A
 Frequencies --    919.3113               972.5606               975.7538
 Red. masses --      2.2735                 2.5680                 2.3894
 Frc consts  --      1.1321                 1.4311                 1.3404
 IR Inten    --      2.7957                20.0743                 3.3181

                     46                     47                     48
                      A                      A                      A
 Frequencies --   1012.2597              1020.8356              1028.0352
 Red. masses --      2.7361                 3.4269                 3.5239
 Frc consts  --      1.6519                 2.1041                 2.1942
 IR Inten    --     62.2633                31.9927                 0.5721

                     49                     50                     51
                      A                      A                      A
 Frequencies --   1057.9177              1080.4724              1099.7949
 Red. masses --      3.3417                 1.9862                 2.2342
 Frc consts  --      2.2035                 1.3661                 1.5922
 IR Inten    --     10.3842                11.5736                 6.9777

                     52                     53                     54
                      A                      A                      A
 Frequencies --   1109.0494              1125.0858              1126.0019
 Red. masses --      1.8809                 1.6795                 1.7113
 Frc consts  --      1.3631                 1.2526                 1.2784
 IR Inten    --     11.6407                 4.6530                 1.9921

                     55                     56                     57
                      A                      A                      A
 Frequencies --   1153.3741              1187.3745              1194.1079
 Red. masses --      2.4603                 1.5907                 1.7918
 Frc consts  --      1.9283                 1.3213                 1.5053
 IR Inten    --     42.4308                31.3995                33.4825

                     58                     59                     60
                      A                      A                      A
 Frequencies --   1220.4264              1234.8759              1249.6743
 Red. masses --      1.9789                 1.5363                 1.4583
 Frc consts  --      1.7366                 1.3803                 1.3418
 IR Inten    --      5.1070                 9.2011                21.8119

                     61                     62                     63
                      A                      A                      A
 Frequencies --   1285.6299              1321.6057              1355.4321
 Red. masses --      1.7241                 1.5010                 1.5809
 Frc consts  --      1.6790                 1.5447                 1.7112
 IR Inten    --      0.8544                42.0977                33.9867

                     64                     65                     66
                      A                      A                      A
 Frequencies --   1363.3512              1377.6205              1379.5011
 Red. masses --      1.4567                 1.9382                 2.8025
 Frc consts  --      1.5952                 2.1673                 3.1423
 IR Inten    --     19.2765                10.5032                52.4605

                     67                     68                     69
                      A                      A                      A
 Frequencies --   1389.7328              1395.0426              1406.6559
 Red. masses --      2.4717                 2.8079                 1.4213
 Frc consts  --      2.8126                 3.2196                 1.6569
 IR Inten    --     20.1105                26.9753                10.8204

                     70                     71                     72
                      A                      A                      A
 Frequencies --   1420.4775              1428.7521              1433.3743
 Red. masses --      3.9690                 1.8374                 3.9878
 Frc consts  --      4.7185                 2.2099                 4.8273
 IR Inten    --     55.3647                13.9823                19.6261

                     73                     74                     75
                      A                      A                      A
 Frequencies --   1435.9810              1437.0355              1475.4331
 Red. masses --      1.7600                 1.3790                 3.8083
 Frc consts  --      2.1382                 1.6778                 4.8846
 IR Inten    --     34.8722                 8.7443               121.8261

                     76                     77                     78
                      A                      A                      A
 Frequencies --   1485.7506              1492.4256              1513.1840
 Red. masses --      1.0999                 3.4828                 1.1391
 Frc consts  --      1.4305                 4.5705                 1.5367
 IR Inten    --      7.4783                17.6257                 1.8118

                     79                     80                     81
                      A                      A                      A
 Frequencies --   1518.6171              1524.0322              1528.4337
 Red. masses --      1.0482                 1.1178                 1.0871
 Frc consts  --      1.4243                 1.5297                 1.4963
 IR Inten    --      9.7626                 5.5834                 8.8506

                     82                     83                     84
                      A                      A                      A
 Frequencies --   1536.9718              1543.6292              1613.8014
 Red. masses --      1.0690                 1.5517                 5.1377
 Frc consts  --      1.4878                 2.1785                 7.8835
 IR Inten    --      1.5044                52.6617                17.4802

                     85                     86                     87
                      A                      A                      A
 Frequencies --   1642.7593              1647.7387              1818.0070
 Red. masses --      1.6944                 2.7319                 9.3551
 Frc consts  --      2.6941                 4.3701                18.2175
 IR Inten    --    206.6013                50.3651               351.0203

                     88                     89                     90
                      A                      A                      A
 Frequencies --   3018.3641              3054.5917              3060.4956
 Red. masses --      1.0830                 1.0358                 1.0355
 Frc consts  --      5.8131                 5.6941                 5.7145
 IR Inten    --     22.2652                16.5502                20.7769

                     91                     92                     93
                      A                      A                      A
 Frequencies --   3083.0648              3091.5675              3122.0080
 Red. masses --      1.0598                 1.0644                 1.1026
 Frc consts  --      5.9351                 5.9940                 6.3317
 IR Inten    --     26.3765                17.8967                23.5565

                     94                     95                     96
                      A                      A                      A
 Frequencies --   3122.1242              3134.4058              3137.8464
 Red. masses --      1.1046                 1.1034                 1.1020
 Frc consts  --      6.3437                 6.3868                 6.3927
 IR Inten    --      6.7309                38.6884                25.6859

                     97                     98                     99
                      A                      A                      A
 Frequencies --   3151.8832              3165.5648              3252.2838
 Red. masses --      1.1045                 1.1011                 1.0957
 Frc consts  --      6.4646                 6.5008                 6.8287
 IR Inten    --     20.2590                 2.6347                 6.0159

                    100                    101                    102
                      A                      A                      A
 Frequencies --   3258.3095              3285.3534              3288.7310
 Red. masses --      1.0955                 1.0974                 1.0970
 Frc consts  --      6.8527                 6.9791                 6.9909
 IR Inten    --      6.5144                 0.0570                 2.9292

                    103                    104                    105
                      A                      A                      A
 Frequencies --   3537.0559              3543.0680              3690.8336
 Red. masses --      1.0748                 1.0491                 1.1020
 Frc consts  --      7.9225                 7.7591                 8.8450
 IR Inten    --      3.7804                82.3409                95.8795

 - Thermochemistry -
 -------------------
 Temperature   298.150 Kelvin.  Pressure   1.00000 Atm.
 Atom     1 has atomic number  6 and mass  12.00000

 Molecular mass:   262.15421 amu.
 Principal axes and moments of inertia in atomic units:
                           1         2         3
     Eigenvalues --  1547.31519********************
           X            0.99998  -0.00613  -0.00064
           Y            0.00612   0.99993  -0.01037
           Z            0.00070   0.01037   0.99995
 This molecule is an asymmetric top.
 Rotational symmetry number  1.
 Warning -- assumption of classical behavior for rotation
           may cause significant error
 Rotational temperatures (Kelvin)      0.05598     0.00594     0.00565
 Rotational constants (GHZ):           1.16637     0.12368     0.11778
 Zero-point vibrational energy     813583.2 (Joules/Mol)
                                  194.45105 (Kcal/Mol)
 Warning -- explicit consideration of  27 degrees of freedom as
           vibrations may cause significant error
 Vibrational temperatures:     28.31    30.32    40.15    58.69    63.19
          (Kelvin)             80.93   109.82   158.87   178.31   213.72
                              287.99   324.20   363.19   385.82   414.48
                              446.39   477.10   513.80   562.10   578.27
                              583.47   601.03   688.40   728.74   739.68
                              832.35   881.94   909.59   950.19   959.63
                              968.75   980.31   987.70  1037.70  1064.54
                             1130.19  1157.74  1167.30  1186.68  1220.18
                             1249.96  1254.13  1322.68  1399.30  1403.89
                             1456.42  1468.75  1479.11  1522.11  1554.56
                             1582.36  1595.67  1618.75  1620.07  1659.45
                             1708.37  1718.05  1755.92  1776.71  1798.00
                             1849.73  1901.50  1950.16  1961.56  1982.09
                             1984.79  1999.52  2007.16  2023.86  2043.75
                             2055.66  2062.31  2066.06  2067.57  2122.82
                             2137.66  2147.27  2177.13  2184.95  2192.74
                             2199.08  2211.36  2220.94  2321.90  2363.56
                             2370.73  2615.71  4342.75  4394.88  4403.37
                             4435.84  4448.08  4491.87  4492.04  4509.71
                             4514.66  4534.86  4554.54  4679.31  4687.98
                             4726.89  4731.75  5089.03  5097.68  5310.29

 Zero-point correction=                           0.309877 (Hartree/Particle)
 Thermal correction to Energy=                    0.328674
 Thermal correction to Enthalpy=                  0.329618
 Thermal correction to Gibbs Free Energy=         0.258990
 Sum of electronic and zero-point Energies=           -871.576766
 Sum of electronic and thermal Energies=              -871.557969
 Sum of electronic and thermal Enthalpies=            -871.557025
 Sum of electronic and thermal Free Energies=         -871.627653

                     E (Thermal)             CV                S
                      KCal/Mol        Cal/Mol-Kelvin    Cal/Mol-Kelvin
 Total                  206.246             69.676            148.649
 Electronic               0.000              0.000              0.000
 Translational            0.889              2.981             42.591
 Rotational               0.889              2.981             34.202
 Vibrational            204.469             63.714             71.856
 Vibration     1          0.593              1.986              6.666
 Vibration     2          0.593              1.985              6.530
 Vibration     3          0.593              1.984              5.973
 Vibration     4          0.594              1.981              5.220
 Vibration     5          0.595              1.980              5.074
 Vibration     6          0.596              1.975              4.585
 Vibration     7          0.599              1.965              3.983
 Vibration     8          0.606              1.941              3.262
 Vibration     9          0.610              1.929              3.038
 Vibration    10          0.618              1.904              2.691
 Vibration    11          0.638              1.840              2.132
 Vibration    12          0.650              1.802              1.916
 Vibration    13          0.664              1.759              1.714
 Vibration    14          0.673              1.732              1.608
 Vibration    15          0.685              1.696              1.485
 Vibration    16          0.699              1.654              1.361
 Vibration    17          0.714              1.612              1.252
 Vibration    18          0.732              1.561              1.135
 Vibration    19          0.758              1.490              0.998
 Vibration    20          0.768              1.466              0.956
 Vibration    21          0.771              1.458              0.943
 Vibration    22          0.781              1.432              0.900
 Vibration    23          0.835              1.298              0.714
 Vibration    24          0.862              1.236              0.642
 Vibration    25          0.869              1.219              0.624
 Vibration    26          0.935              1.078              0.488
 Vibration    27          0.972              1.004              0.428

                           ! Non-Optimized Parameters !
 Normal termination of Gaussian 16 at Sat Dec 12 10:30:23 2020.

 ----------------------------------------------------------------------
 # B3LYP/6-311++G(d,p) empiricaldispersion=gd3bj scf=xqc pop=npa geom=c
 heck
 ----------------------------------------------------------------------

 --------------------------------------
 CID_61793569_JID_9867_Energie_neutraal
 --------------------------------------
 Structure from the checkpoint file:  "JID_9867.chk"
 Charge =  0 Multiplicity = 1

 SCF Done:  E(RB3LYP) =  -872.135651961     A.U. after   15 cycles
 Normal termination of Gaussian 16 at Sat Dec 12 10:37:18 2020.

 ----------------------------------------------------------------------
 # B3LYP/6-311++G(d,p) empiricaldispersion=gd3bj scf=xqc pop=npa geom=c
 heck
 ----------------------------------------------------------------------

 ------------------------------------
 CID_61793569_JID_9867_Energie_kation
 ------------------------------------
 Structure from the checkpoint file:  "JID_9867.chk"
 Charge =  1 Multiplicity = 2

 SCF Done:  E(UB3LYP) =  -871.861321610     A.U. after   22 cycles
 Normal termination of Gaussian 16 at Sat Dec 12 10:52:21 2020.
 Gaussian 16:  ES64L-G16RevA.03 25-Dec-2016

 ----------------------------------------------------------------------
 # B3LYP/6-311++G(d,p) empiricaldispersion=gd3bj scf=xqc pop=npa geom=c
 heck
 ----------------------------------------------------------------------

 -----------------------------------
 CID_61793569_JID_9867_Energie_anion
 -----------------------------------
 Structure from the checkpoint file:  "JID_9867.chk"
 Charge = -1 Multiplicity = 2

                         Standard orientation:
 ---------------------------------------------------------------------
 Center     Atomic      Atomic             Coordinates (Angstroms)
 Number     Number       Type             X           Y           Z
 ---------------------------------------------------------------------
      1          6           0        6.252608   -1.256020   -0.670939
      2          6           0        5.648704   -0.779772    0.649153
      3          7           0        4.459058    0.033767    0.445921
      4          6           0        3.158878   -0.345054    0.551153
      5          6           0        2.386436    0.736783    0.155049
      6          6           0        3.339629    1.727767   -0.182468
      7          7           0        4.591427    1.299604   -0.009632
      8          6           0        0.883960    0.809738    0.126801
      9          6           0        0.371544    1.904523   -0.821708
     10          7           0        0.363110   -0.528731   -0.188722
     11          6           0       -1.012510   -0.751922   -0.085100
     12          6           0       -1.940854   -0.115351    0.729474
     13          7           0       -3.132346   -0.762970    0.548256
     14          7           0       -3.042719   -1.757749   -0.356851
     15          6           0       -1.762122   -1.759438   -0.741861
     16          6           0       -4.428549   -0.365822    1.056626
     17          6           0       -5.295523    0.445176    0.075812
     18          8           0       -6.117216    1.245592    0.496397
     19          7           0       -5.084080    0.167993   -1.236017
     20          1           0        5.541402   -1.881784   -1.220357
     21          1           0        7.159597   -1.841455   -0.485431
     22          1           0        6.511025   -0.395862   -1.294638
     23          1           0        5.358636   -1.624633    1.281019
     24          1           0        6.366655   -0.171477    1.206254
     25          1           0        2.871688   -1.328204    0.893217
     26          1           0        3.166919    2.735252   -0.536726
     27          1           0        0.521037    1.037236    1.139402
     28          1           0        0.756741    1.742311   -1.834756
     29          1           0       -0.721502    1.896552   -0.859673
     30          1           0        0.694404    2.897103   -0.489477
     31          1           0        0.744533   -0.871597   -1.065102
     32          1           0       -1.850902    0.713438    1.414381
     33          1           0       -1.413304   -2.490118   -1.460128
     34          1           0       -4.978773   -1.270150    1.335413
     35          1           0       -4.290172    0.241896    1.951537
     36          1           0       -4.491306   -0.609140   -1.504982
     37          1           0       -5.703310    0.588841   -1.913768
 ---------------------------------------------------------------------

 SCF Done:  E(UB3LYP) =  -872.126939502     A.U. after   33 cycles
 SCF Done:  E(UB3LYP) =  -872.126939502     a.u. after    1 cycles

 The electronic state is 2-A.
 Alpha  occ. eigenvalues --  -19.01734 -14.31406 -14.30196 -14.25486 -14.25466
 Alpha  occ. eigenvalues --  -14.24084 -14.23713 -10.20389 -10.15082 -10.13585
 Alpha  occ. eigenvalues --  -10.12941 -10.12594 -10.12214 -10.11532 -10.10964
 Alpha  occ. eigenvalues --  -10.10300 -10.08588 -10.08059 -10.08003  -0.98013
 Alpha  occ. eigenvalues --   -0.96443  -0.96401  -0.85133  -0.83252  -0.76995
 Alpha  occ. eigenvalues --   -0.76215  -0.72129  -0.69660  -0.67668  -0.64604
 Alpha  occ. eigenvalues --   -0.63329  -0.56902  -0.55733  -0.53382  -0.51741
 Alpha  occ. eigenvalues --   -0.50977  -0.48508  -0.47819  -0.47128  -0.46627
 Alpha  occ. eigenvalues --   -0.43703  -0.41287  -0.39707  -0.39507  -0.38509
 Alpha  occ. eigenvalues --   -0.38075  -0.36319  -0.36004  -0.35654  -0.34744
 Alpha  occ. eigenvalues --   -0.34397  -0.34120  -0.32893  -0.32232  -0.30527
 Alpha  occ. eigenvalues --   -0.30495  -0.30380  -0.29600  -0.28734  -0.27876
 Alpha  occ. eigenvalues --   -0.27178  -0.23648  -0.22588  -0.20860  -0.20188
 Alpha  occ. eigenvalues --   -0.19535  -0.17462  -0.17004  -0.15688  -0.12032
 Alpha  occ. eigenvalues --    0.03596
 Alpha virt. eigenvalues --    0.04994   0.06069   0.06402   0.06501   0.07305
 Alpha virt. eigenvalues --    0.07703   0.08006   0.08417   0.08797   0.08990
 Alpha virt. eigenvalues --    0.09184   0.09662   0.10315   0.10774   0.10806

  Beta  occ. eigenvalues --  -19.01728 -14.31407 -14.30197 -14.25480 -14.25430
  Beta  occ. eigenvalues --  -14.24077 -14.23699 -10.20385 -10.15069 -10.13579
  Beta  occ. eigenvalues --  -10.12915 -10.12594 -10.12199 -10.11504 -10.10952
  Beta  occ. eigenvalues --  -10.10296 -10.08590 -10.08042 -10.07970  -0.98007
  Beta  occ. eigenvalues --   -0.96431  -0.96391  -0.85112  -0.83207  -0.76983
  Beta  occ. eigenvalues --   -0.76195  -0.72111  -0.69636  -0.67637  -0.64572
  Beta  occ. eigenvalues --   -0.63299  -0.56859  -0.55689  -0.53344  -0.51707
  Beta  occ. eigenvalues --   -0.50951  -0.48478  -0.47772  -0.47100  -0.46589
  Beta  occ. eigenvalues --   -0.43659  -0.41258  -0.39685  -0.39478  -0.38482
  Beta  occ. eigenvalues --   -0.38048  -0.36286  -0.35978  -0.35626  -0.34722
  Beta  occ. eigenvalues --   -0.34374  -0.34099  -0.32875  -0.32210  -0.30496
  Beta  occ. eigenvalues --   -0.30468  -0.30355  -0.29560  -0.28694  -0.27847
  Beta  occ. eigenvalues --   -0.27148  -0.23635  -0.22566  -0.20844  -0.20147
  Beta  occ. eigenvalues --   -0.19522  -0.17448  -0.16970  -0.15660  -0.12018
  Beta virt. eigenvalues --    0.05501   0.06107   0.06422   0.06652   0.07130
  Beta virt. eigenvalues --    0.07742   0.07888   0.08192   0.08807   0.08901
  Beta virt. eigenvalues --    0.09163   0.09425   0.09887   0.10366   0.10915

 Mulliken charges and spin densities:
               1          2
     1  C    0.676488  -1.179121
     2  C   -0.111023  -0.026653
     3  N    0.384092   0.003907
     4  C   -0.684989   0.586179
     5  C    0.848004  -0.958351
     6  C   -0.190118   0.005584
     7  N   -0.425209   0.155352
     8  C   -0.299175  -0.162232
     9  C    0.187127  -0.842337
    10  N    0.191702   0.035573
    11  C    0.236893  -0.639632
    12  C    0.036430  -0.189162
    13  N    0.387309   0.066911
    14  N   -0.450550   0.056334
    15  C   -0.031289  -0.020203
    16  C    0.335093  -0.654077
    17  C   -0.081539   0.228451
    18  O   -0.357307   0.004624
    19  N   -0.293904  -0.115567
    20  H   -0.291889   0.448211
    21  H   -0.325699   0.461281
    22  H    0.108108   0.052705
    23  H   -0.405476   0.548673
    24  H   -0.078694   0.247153
    25  H   -0.389812   0.597362
    26  H    0.070315   0.080164
    27  H   -0.004142   0.175589
    28  H   -0.098353   0.277112
    29  H    0.128498   0.039390
    30  H    0.057607   0.065102
    31  H    0.221085  -0.005016
    32  H    0.024852   0.132966
    33  H   -0.542129   0.701956
    34  H    0.015606   0.180056
    35  H    0.090470   0.097517
    36  H    0.180196   0.109525
    37  H   -0.118578   0.434670
 Sum of Mulliken charges =  -1.00000   1.00000

 Dipole moment (field-independent basis, Debye):
    X=             -2.3792    Y=              2.6659    Z=              1.4804  Tot=              3.8678
 Quadrupole moment (field-independent basis, Debye-Ang):
   XX=           -268.9258   YY=           -159.8158   ZZ=           -144.1551
   XY=             22.8440   XZ=             -5.4141   YZ=             -0.9158

 Summary of Natural Population Analysis:

                                       Natural Population
                Natural  -----------------------------------------------
    Atom  No    Charge         Core      Valence    Rydberg      Total
 -----------------------------------------------------------------------
      C    1   -0.28966      0.99966     2.28500    0.00499     3.28966
      C    2   -0.08092      0.99962     2.06997    0.01133     3.08092
      N    3   -0.10498      0.99966     2.59122    0.01411     3.60498
      C    4    0.00477      0.99949     1.98474    0.01100     2.99523
      C    5   -0.08101      0.99952     2.07108    0.01041     3.08101
      C    6   -0.01257      0.99958     1.99971    0.01328     3.01257
      N    7   -0.15494      0.99973     2.64369    0.01151     3.65494
      C    8   -0.01253      0.99957     2.00186    0.01110     3.01253
      C    9   -0.29175      0.99965     2.28758    0.00452     3.29175
      N   10   -0.31847      0.99969     2.80692    0.01186     3.81847
      C   11    0.03962      0.99949     1.94873    0.01216     2.96038
      C   12   -0.03628      0.99951     2.02744    0.00933     3.03628
      N   13   -0.10980      0.99967     2.59653    0.01360     3.60980
      N   14   -0.16646      0.99973     2.65379    0.01295     3.66646
      C   15   -0.02075      0.99958     2.00708    0.01409     3.02075
      C   16   -0.12331      0.99957     2.11278    0.01096     3.12331
      C   17    0.33298      0.99971     1.64546    0.02185     2.66702
      O   18   -0.32148      0.99988     3.31509    0.00651     4.32148
      N   19   -0.40121      0.99970     2.89406    0.00745     3.90121
      H   20    0.10180      0.00000     0.39683    0.00137     0.39820
      H   21    0.10214      0.00000     0.39642    0.00144     0.39786
      H   22    0.10370      0.00000     0.39517    0.00113     0.39630
      H   23    0.10187      0.00000     0.39595    0.00218     0.39813
      H   24    0.10098      0.00000     0.39762    0.00139     0.39902
      H   25    0.11260      0.00000     0.38589    0.00151     0.38740
      H   26    0.09797      0.00000     0.40099    0.00104     0.40203
      H   27    0.09523      0.00000     0.40292    0.00185     0.40477
      H   28    0.10061      0.00000     0.39801    0.00138     0.39939
      H   29    0.10568      0.00000     0.39317    0.00115     0.39432
      H   30    0.09920      0.00000     0.39978    0.00102     0.40080
      H   31    0.18515      0.00000     0.31170    0.00315     0.31485
      H   32    0.10685      0.00000     0.39205    0.00109     0.39315
      H   33    0.10179      0.00000     0.39689    0.00132     0.39821
      H   34    0.11484      0.00000     0.38399    0.00116     0.38516
      H   35    0.11273      0.00000     0.38611    0.00116     0.38727
      H   36    0.20815      0.00000     0.28903    0.00282     0.29185
      H   37    0.19745      0.00000     0.29976    0.00279     0.30255
 =======================================================================
   * Total *    0.00000     18.99301    50.76503    0.24197    70.00000

 Normal termination of Gaussian 16 at Sat Dec 12 11:15:51 2020.
