 Gaussian 16, Revision A.03,

 -----------------------------------------------------------
 # opt freq B3LYP/6-31G(d) empiricaldispersion=gd3bj scf=xqc
 -----------------------------------------------------------

 -------------------------------
 CID_133440143_JID_9633_neutraal
 -------------------------------
 Symbolic Z-matrix:
 Charge =  0 Multiplicity = 1

 SCF Done:  E(RB3LYP) =  -845.949594676     A.U. after   15 cycles
 SCF Done:  E(RB3LYP) =  -845.960921220     A.U. after   14 cycles
 SCF Done:  E(RB3LYP) =  -845.962856614     A.U. after   14 cycles
 SCF Done:  E(RB3LYP) =  -845.965774047     A.U. after   13 cycles
 SCF Done:  E(RB3LYP) =  -845.967470747     A.U. after   14 cycles
 SCF Done:  E(RB3LYP) =  -845.968293051     A.U. after   13 cycles
 SCF Done:  E(RB3LYP) =  -845.968883142     A.U. after   13 cycles
 SCF Done:  E(RB3LYP) =  -845.969437316     A.U. after   13 cycles
 SCF Done:  E(RB3LYP) =  -845.970161140     A.U. after   15 cycles
 SCF Done:  E(RB3LYP) =  -845.970899309     A.U. after   14 cycles
 SCF Done:  E(RB3LYP) =  -845.972364320     A.U. after   12 cycles
 SCF Done:  E(RB3LYP) =  -845.972389867     A.U. after   10 cycles
 SCF Done:  E(RB3LYP) =  -845.972395014     A.U. after   10 cycles
 SCF Done:  E(RB3LYP) =  -845.972396006     A.U. after    8 cycles
 SCF Done:  E(RB3LYP) =  -845.972396318     A.U. after    8 cycles
 SCF Done:  E(RB3LYP) =  -845.972396426     A.U. after    8 cycles
 Optimization completed.
    -- Stationary point found.

 1\1\GINC-NODE372\FOpt\RB3LYP\6-31G(d)\C12H9N7\VSC10255\12-Dec-2020\0\\
 # opt freq B3LYP/6-31G(d) empiricaldispersion=gd3bj scf=xqc\\CID_13344
 0143_JID_9633_neutraal\\0,1\C,1.4230287999,0.2867425217,-1.4536892358\
 C,1.8695208714,-0.8484919023,-0.7644538933\N,1.0410526868,-1.666612332
 2,-0.1310797915\C,-0.2775525377,-1.3764792521,-0.1480255868\C,-0.71993
 77869,-0.1984698084,-0.8192265578\N,0.1348250212,0.6073850832,-1.47018
 48237\C,-2.0886927167,0.2289045477,-0.8313151337\N,-3.2032459535,0.563
 7694205,-0.834190822\N,-1.0576625229,-2.2622704473,0.545542638\C,-2.46

 Normal termination of Gaussian 16 at Sat Dec 12 09:59:20 2020.

 --------------------------------------------------------------------
 #N Geom=AllCheck Guess=TCheck SCRF=Check GenChk RB3LYP/6-31G(d) Freq
 --------------------------------------------------------------------

 Structure from the checkpoint file:  "JID_9633.chk"
 -------------------------------
 CID_133440143_JID_9633_neutraal
 -------------------------------
 Charge =  0 Multiplicity = 1

 SCF Done:  E(RB3LYP) =  -845.972396426     A.U. after    1 cycles

  Exact polarizability: 159.338  11.206 195.690  -8.222  -2.037 123.049
 Approx polarizability: 227.298  28.465 382.955 -13.242 -14.963 232.259

                      1                      2                      3
                      A                      A                      A
 Frequencies --     21.5681                35.4407                69.3065
 Red. masses --      6.9023                 6.6232                 6.8594
 Frc consts  --      0.0019                 0.0049                 0.0194
 IR Inten    --      0.4961                 1.4187                 2.8734

                      4                      5                      6
                      A                      A                      A
 Frequencies --     88.0130               134.1597               146.2136
 Red. masses --      7.4055                 7.4790                 9.6485
 Frc consts  --      0.0338                 0.0793                 0.1215
 IR Inten    --      0.7924                 0.1786                 2.1386

                      7                      8                      9
                      A                      A                      A
 Frequencies --    190.8778               211.3314               219.3345
 Red. masses --      6.9959                 6.3404                 4.7001
 Frc consts  --      0.1502                 0.1668                 0.1332
 IR Inten    --      7.1590                 0.7237                 5.9495

                     10                     11                     12
                      A                      A                      A
 Frequencies --    264.1944               331.4610               346.3515
 Red. masses --      5.0380                 4.9800                 2.5056
 Frc consts  --      0.2072                 0.3224                 0.1771
 IR Inten    --      3.4608                 1.3684                 3.5617

                     13                     14                     15
                      A                      A                      A
 Frequencies --    412.6726               430.1453               489.3895
 Red. masses --      6.4147                 7.3633                 4.9063
 Frc consts  --      0.6436                 0.8027                 0.6923
 IR Inten    --     15.2575                 7.9256                 4.2457

                     16                     17                     18
                      A                      A                      A
 Frequencies --    502.9779               521.2541               546.3841
 Red. masses --      4.2090                 5.5443                 6.9902
 Frc consts  --      0.6274                 0.8876                 1.2295
 IR Inten    --      3.4385                11.9977                 0.2215

                     19                     20                     21
                      A                      A                      A
 Frequencies --    557.6586               576.7442               601.0879
 Red. masses --      6.7802                 4.4326                 4.6594
 Frc consts  --      1.2423                 0.8687                 0.9919
 IR Inten    --      5.2464                 6.2639                 1.6734

                     22                     23                     24
                      A                      A                      A
 Frequencies --    627.3203               635.0063               649.1324
 Red. masses --      5.7874                 6.6548                 5.2140
 Frc consts  --      1.3419                 1.5810                 1.2945
 IR Inten    --     12.2504                 1.3874                 3.7259

                     25                     26                     27
                      A                      A                      A
 Frequencies --    670.6272               704.5090               713.8935
 Red. masses --      5.7228                 4.0798                 4.8718
 Frc consts  --      1.5164                 1.1931                 1.4629
 IR Inten    --     13.7099                22.0889                 4.1588

                     28                     29                     30
                      A                      A                      A
 Frequencies --    752.3907               768.0975               795.8557
 Red. masses --      1.8906                 1.9016                 2.2054
 Frc consts  --      0.6306                 0.6610                 0.8230
 IR Inten    --     30.7069                92.1669                20.2030

                     31                     32                     33
                      A                      A                      A
 Frequencies --    804.6783               850.6220               871.0710
 Red. masses --      7.0131                 1.6469                 1.2322
 Frc consts  --      2.6755                 0.7021                 0.5509
 IR Inten    --     34.8863                24.7122                11.8280

                     34                     35                     36
                      A                      A                      A
 Frequencies --    877.3237               904.6086               913.1934
 Red. masses --      2.8608                 4.0276                 1.3296
 Frc consts  --      1.2973                 1.9419                 0.6533
 IR Inten    --      2.6697                15.8365                 1.2494

                     37                     38                     39
                      A                      A                      A
 Frequencies --    922.7525               970.4137               977.6123
 Red. masses --      5.0954                 1.3889                 1.4334
 Frc consts  --      2.5562                 0.7706                 0.8071
 IR Inten    --     13.8887                 0.7986                 0.4335

                     40                     41                     42
                      A                      A                      A
 Frequencies --    988.2407              1073.1788              1080.5874
 Red. masses --      2.4043                 1.7145                 2.6109
 Frc consts  --      1.3835                 1.1634                 1.7962
 IR Inten    --     12.0765                 0.9415                12.0057

                     43                     44                     45
                      A                      A                      A
 Frequencies --   1085.4139              1097.2941              1130.1669
 Red. masses --      3.5862                 2.2083                 2.9570
 Frc consts  --      2.4893                 1.5666                 2.2253
 IR Inten    --     13.7328                 2.3225                 5.9858

                     46                     47                     48
                      A                      A                      A
 Frequencies --   1175.7909              1215.1343              1249.7969
 Red. masses --      3.0759                 2.0789                 3.6305
 Frc consts  --      2.5054                 1.8086                 3.3412
 IR Inten    --     19.3426                21.4247                50.1288

                     49                     50                     51
                      A                      A                      A
 Frequencies --   1259.9315              1263.3071              1275.2476
 Red. masses --      4.1108                 2.8894                 2.0113
 Frc consts  --      3.8448                 2.7169                 1.9272
 IR Inten    --      7.2237                45.7389                27.8600

                     52                     53                     54
                      A                      A                      A
 Frequencies --   1301.9010              1325.8259              1351.1185
 Red. masses --      2.2724                 2.0489                 2.1364
 Frc consts  --      2.2693                 2.1220                 2.2978
 IR Inten    --      2.3047                14.6927                17.4378

                     55                     56                     57
                      A                      A                      A
 Frequencies --   1356.7506              1389.4933              1427.5031
 Red. masses --      2.9879                 1.6556                 2.3126
 Frc consts  --      3.2405                 1.8832                 2.7766
 IR Inten    --      8.8344                38.5617                23.8171

                     58                     59                     60
                      A                      A                      A
 Frequencies --   1431.9836              1460.7070              1476.0994
 Red. masses --      2.3096                 1.9867                 2.1683
 Frc consts  --      2.7903                 2.4975                 2.7835
 IR Inten    --      5.7540                 6.1336               140.0204

                     61                     62                     63
                      A                      A                      A
 Frequencies --   1506.4299              1513.3350              1565.0628
 Red. masses --      2.5924                 1.3253                 2.6383
 Frc consts  --      3.4661                 1.7883                 3.8075
 IR Inten    --     25.5358                21.4626               234.0070

                     64                     65                     66
                      A                      A                      A
 Frequencies --   1584.6494              1593.5790              1602.0224
 Red. masses --      5.7001                 5.5710                 3.2229
 Frc consts  --      8.4334                 8.3355                 4.8734
 IR Inten    --     54.9279                65.7893                58.9192

                     67                     68                     69
                      A                      A                      A
 Frequencies --   1618.6305              1678.4253              2338.8285
 Red. masses --      6.5409                 7.5293                12.6779
 Frc consts  --     10.0968                12.4971                40.8596
 IR Inten    --    114.2056                63.4908                24.6385

                     70                     71                     72
                      A                      A                      A
 Frequencies --   3101.7901              3183.1551              3186.8256
 Red. masses --      1.0697                 1.0895                 1.0907
 Frc consts  --      6.0636                 6.5043                 6.5266
 IR Inten    --      9.1409                12.9778                19.2477

                     73                     74                     75
                      A                      A                      A
 Frequencies --   3193.2005              3210.2884              3243.5598
 Red. masses --      1.0960                 1.0953                 1.0936
 Frc consts  --      6.5843                 6.6508                 6.7789
 IR Inten    --      2.3250                24.7711                 2.0811

                     76                     77                     78
                      A                      A                      A
 Frequencies --   3262.2327              3301.9644              3538.6812
 Red. masses --      1.0948                 1.0999                 1.0747
 Frc consts  --      6.8646                 7.0654                 7.9288
 IR Inten    --      6.3042                 0.0628                76.4725

 - Thermochemistry -
 -------------------
 Temperature   298.150 Kelvin.  Pressure   1.00000 Atm.
 Atom     1 has atomic number  6 and mass  12.00000

 Molecular mass:   251.09194 amu.
 Principal axes and moments of inertia in atomic units:
                           1         2         3
     Eigenvalues --  2803.361925910.336667026.02354
           X            0.99997  -0.00645  -0.00456
           Y            0.00648   0.99995   0.00790
           Z            0.00450  -0.00793   0.99996
 This molecule is an asymmetric top.
 Rotational symmetry number  1.
 Warning -- assumption of classical behavior for rotation
           may cause significant error
 Rotational temperatures (Kelvin)      0.03090     0.01465     0.01233
 Rotational constants (GHZ):           0.64378     0.30535     0.25687
 Zero-point vibrational energy     548749.8 (Joules/Mol)
                                  131.15436 (Kcal/Mol)
 Warning -- explicit consideration of  21 degrees of freedom as
           vibrations may cause significant error
 Vibrational temperatures:     31.03    50.99    99.72   126.63   193.03
          (Kelvin)            210.37   274.63   304.06   315.57   380.12
                              476.90   498.32   593.74   618.88   704.12
                              723.67   749.97   786.12   802.35   829.81
                              864.83   902.57   913.63   933.96   964.88
                             1013.63  1027.13  1082.52  1105.12  1145.06
                             1157.75  1223.86  1253.28  1262.27  1301.53
                             1313.88  1327.64  1396.21  1406.57  1421.86
                             1544.06  1554.72  1561.67  1578.76  1626.06
                             1691.70  1748.31  1798.18  1812.76  1817.62
                             1834.80  1873.15  1907.57  1943.96  1952.06
                             1999.17  2053.86  2060.31  2101.63  2123.78
                             2167.42  2177.35  2251.78  2279.96  2292.80
                             2304.95  2328.85  2414.88  3365.05  4462.78
                             4579.85  4585.13  4594.30  4618.89  4666.76
                             4693.63  4750.79  5091.37

 Zero-point correction=                           0.209008 (Hartree/Particle)
 Thermal correction to Energy=                    0.223167
 Thermal correction to Enthalpy=                  0.224111
 Thermal correction to Gibbs Free Energy=         0.166129
 Sum of electronic and zero-point Energies=           -845.763389
 Sum of electronic and thermal Energies=              -845.749230
 Sum of electronic and thermal Enthalpies=            -845.748286
 Sum of electronic and thermal Free Energies=         -845.806267

                     E (Thermal)             CV                S
                      KCal/Mol        Cal/Mol-Kelvin    Cal/Mol-Kelvin
 Total                  140.039             55.430            122.032
 Electronic               0.000              0.000              0.000
 Translational            0.889              2.981             42.462
 Rotational               0.889              2.981             33.120
 Vibrational            138.262             49.469             46.450
 Vibration     1          0.593              1.985              6.484
 Vibration     2          0.594              1.982              5.499
 Vibration     3          0.598              1.969              4.173
 Vibration     4          0.601              1.958              3.704
 Vibration     5          0.613              1.919              2.886
 Vibration     6          0.617              1.907              2.721
 Vibration     7          0.634              1.852              2.219
 Vibration     8          0.643              1.824              2.032
 Vibration     9          0.647              1.812              1.965
 Vibration    10          0.671              1.739              1.634
 Vibration    11          0.714              1.613              1.253
 Vibration    12          0.724              1.583              1.183
 Vibration    13          0.776              1.443              0.917
 Vibration    14          0.791              1.405              0.858
 Vibration    15          0.845              1.274              0.685
 Vibration    16          0.858              1.243              0.651
 Vibration    17          0.876              1.203              0.607
 Vibration    18          0.902              1.148              0.552
 Vibration    19          0.913              1.123              0.529
 Vibration    20          0.933              1.082              0.491
 Vibration    21          0.959              1.029              0.448

 Optimization completed.
    -- Stationary point found.

 1\1\GINC-NODE372\Freq\RB3LYP\6-31G(d)\C12H9N7\VSC10255\12-Dec-2020\0\\
 #N Geom=AllCheck Guess=TCheck SCRF=Check GenChk RB3LYP/6-31G(d) Freq\\
 CID_133440143_JID_9633_neutraal\\0,1\C,1.4230287999,0.2867425217,-1.45
 36892358\C,1.8695208714,-0.8484919023,-0.7644538933\N,1.0410526868,-1.
 6666123322,-0.1310797915\C,-0.2775525377,-1.3764792521,-0.1480255868\C
 ,-0.7199377869,-0.1984698084,-0.8192265578\N,0.1348250212,0.6073850832
 ,-1.4701848237\C,-2.0886927167,0.2289045477,-0.8313151337\N,-3.2032459
 535,0.5637694205,-0.834190822\N,-1.0576625229,-2.2622704473,0.54554263

 Normal termination of Gaussian 16 at Sat Dec 12 10:12:44 2020.

 ----------------------------------------------------------------------
 # B3LYP/6-311++G(d,p) empiricaldispersion=gd3bj scf=xqc pop=npa geom=c
 heck
 ----------------------------------------------------------------------

 ---------------------------------------
 CID_133440143_JID_9633_Energie_neutraal
 ---------------------------------------
 Structure from the checkpoint file:  "JID_9633.chk"
 Charge =  0 Multiplicity = 1

 SCF Done:  E(RB3LYP) =  -846.188904525     A.U. after   17 cycles
 Normal termination of Gaussian 16 at Sat Dec 12 10:17:31 2020.

 ----------------------------------------------------------------------
 # B3LYP/6-311++G(d,p) empiricaldispersion=gd3bj scf=xqc pop=npa geom=c
 heck
 ----------------------------------------------------------------------

 -------------------------------------
 CID_133440143_JID_9633_Energie_kation
 -------------------------------------
 Structure from the checkpoint file:  "JID_9633.chk"
 Charge =  1 Multiplicity = 2

 SCF Done:  E(UB3LYP) =  -845.884040348     A.U. after   28 cycles
 Normal termination of Gaussian 16 at Sat Dec 12 10:28:04 2020.
 Gaussian 16:  ES64L-G16RevA.03 25-Dec-2016

 ------------------------------------
 CID_133440143_JID_9633_Energie_anion
 ------------------------------------
 Structure from the checkpoint file:  "JID_9633.chk"
 Charge = -1 Multiplicity = 2

                         Standard orientation:
 ---------------------------------------------------------------------
 Center     Atomic      Atomic             Coordinates (Angstroms)
 Number     Number       Type             X           Y           Z
 ---------------------------------------------------------------------
      1          6           0        3.534838   -1.053320   -1.408002
      2          6           0        2.864613   -2.111121   -0.779503
      3          7           0        1.961624   -1.915347    0.170828
      4          6           0        1.696925   -0.645616    0.546196
      5          6           0        2.411036    0.423346   -0.071288
      6          7           0        3.309309    0.203705   -1.045266
      7          6           0        2.249711    1.796297    0.309849
      8          7           0        2.108319    2.906722    0.628183
      9          7           0        0.767051   -0.536262    1.545001
     10          6           0       -0.109586    0.610904    1.769578
     11          6           0       -1.066519    0.838216    0.628397
     12          6           0       -1.154991    1.956781   -0.158875
     13          6           0       -2.115884    1.989948   -1.207973
     14          7           0       -2.942032    1.002133   -1.488713
     15          6           0       -2.853650   -0.100672   -0.716205
     16          6           0       -3.535118   -1.318025   -0.696905
     17          6           0       -2.962300   -2.036330    0.359020
     18          7           0       -1.984609   -1.365357    0.995419
     19          7           0       -1.923918   -0.185326    0.335769
     20          1           0        4.260001   -1.224653   -2.198157
     21          1           0        3.062253   -3.144128   -1.058801
     22          1           0        0.284211   -1.421254    1.680024
     23          1           0       -0.681549    0.382439    2.673390
     24          1           0        0.465995    1.514984    1.954676
     25          1           0       -0.486728    2.791552    0.014017
     26          1           0       -2.188724    2.875704   -1.835313
     27          1           0       -4.328111   -1.616596   -1.364218
     28          1           0       -3.212007   -3.032380    0.700106
 ---------------------------------------------------------------------

 SCF Done:  E(UB3LYP) =  -846.225523143     A.U. after   24 cycles

 The electronic state is 2-A.
 Alpha  occ. eigenvalues --  -14.29840 -14.22759 -14.21602 -14.19879 -14.17970
 Alpha  occ. eigenvalues --  -14.17915 -14.17685 -10.13467 -10.13357 -10.11830
 Alpha  occ. eigenvalues --  -10.11023 -10.10133 -10.09751 -10.09439 -10.07889
 Alpha  occ. eigenvalues --  -10.07463 -10.07345 -10.07029 -10.06155  -0.96256
 Alpha  occ. eigenvalues --   -0.86751  -0.83608  -0.81936  -0.78261  -0.76860
 Alpha  occ. eigenvalues --   -0.75575  -0.68199  -0.65957  -0.65043  -0.60967
 Alpha  occ. eigenvalues --   -0.55487  -0.54114  -0.52816  -0.51632  -0.49693
 Alpha  occ. eigenvalues --   -0.43731  -0.43118  -0.41537  -0.39828  -0.39274
 Alpha  occ. eigenvalues --   -0.38140  -0.37134  -0.34985  -0.34723  -0.33586
 Alpha  occ. eigenvalues --   -0.32819  -0.31125  -0.30469  -0.29866  -0.28707
 Alpha  occ. eigenvalues --   -0.28301  -0.26362  -0.24346  -0.23980  -0.22379
 Alpha  occ. eigenvalues --   -0.21540  -0.21182  -0.20941  -0.17862  -0.17385
 Alpha  occ. eigenvalues --   -0.15722  -0.15522  -0.12641  -0.12087  -0.10523
 Alpha  occ. eigenvalues --    0.01777
 Alpha virt. eigenvalues --    0.04606   0.07950   0.08829   0.08901   0.09317
 Alpha virt. eigenvalues --    0.09594   0.10174   0.10628   0.11219   0.12313
 Alpha virt. eigenvalues --    0.12729   0.13939   0.14142   0.14241   0.14640

  Beta  occ. eigenvalues --  -14.29761 -14.22772 -14.21589 -14.19657 -14.17691
  Beta  occ. eigenvalues --  -14.17494 -14.17482 -10.13491 -10.13395 -10.11622
  Beta  occ. eigenvalues --  -10.11039 -10.10012 -10.09728 -10.09269 -10.07893
  Beta  occ. eigenvalues --  -10.07566 -10.07073 -10.07054 -10.06134  -0.96130
  Beta  occ. eigenvalues --   -0.86451  -0.83304  -0.81571  -0.77895  -0.76467
  Beta  occ. eigenvalues --   -0.75228  -0.68076  -0.65776  -0.64798  -0.60749
  Beta  occ. eigenvalues --   -0.54943  -0.53754  -0.52739  -0.51539  -0.49614
  Beta  occ. eigenvalues --   -0.43542  -0.42920  -0.41317  -0.39633  -0.39149
  Beta  occ. eigenvalues --   -0.37966  -0.36860  -0.34916  -0.34542  -0.33439
  Beta  occ. eigenvalues --   -0.32616  -0.31001  -0.29892  -0.29622  -0.28468
  Beta  occ. eigenvalues --   -0.28184  -0.25609  -0.24015  -0.22986  -0.21862
  Beta  occ. eigenvalues --   -0.21205  -0.20826  -0.20484  -0.16943  -0.16481
  Beta  occ. eigenvalues --   -0.15332  -0.15122  -0.12221  -0.11617  -0.09859
  Beta virt. eigenvalues --    0.06263   0.07780   0.07959   0.08837   0.08971
  Beta virt. eigenvalues --    0.09307   0.09657   0.10379   0.10659   0.11194
  Beta virt. eigenvalues --    0.12309   0.12726   0.13961   0.14174   0.14323

 Mulliken charges and spin densities:
               1          2
     1  C    0.116452  -0.068511
     2  C   -0.172903   0.230004
     3  N   -0.111122   0.084348
     4  C   -0.689518  -0.053466
     5  C    0.901333   0.134379
     6  N   -0.048286   0.230221
     7  C   -1.083930  -0.039024
     8  N   -0.310625   0.101423
     9  N    0.131966   0.013203
    10  C   -0.774279  -0.019905
    11  C    0.472973   0.197007
    12  C   -0.191728   0.001334
    13  C   -0.294428   0.081133
    14  N   -0.117224   0.097462
    15  C   -0.411654  -0.009363
    16  C    0.211309   0.011933
    17  C   -0.359568   0.015717
    18  N   -0.149587  -0.005928
    19  N    0.265570   0.009515
    20  H    0.142594   0.003795
    21  H    0.142479  -0.017555
    22  H    0.322442  -0.006205
    23  H    0.194039   0.019438
    24  H    0.189089  -0.004665
    25  H    0.180185   0.005322
    26  H    0.173333  -0.009035
    27  H    0.155393  -0.000897
    28  H    0.115691  -0.001678
 Sum of Mulliken charges =  -1.00000   1.00000

 Dipole moment (field-independent basis, Debye):
    X=             -4.0040    Y=             -2.6181    Z=              1.3316  Tot=              4.9658
 Quadrupole moment (field-independent basis, Debye-Ang):
   XX=           -154.9854   YY=           -135.1290   ZZ=           -121.7207
   XY=             -5.6905   XZ=             -4.4248   YZ=              1.9323

 Summary of Natural Population Analysis:

                                       Natural Population
                Natural  -----------------------------------------------
    Atom  No    Charge         Core      Valence    Rydberg      Total
 -----------------------------------------------------------------------
      C    1   -0.04369      0.99961     2.03035    0.01373     3.04369
      C    2    0.06871      0.99961     1.91821    0.01346     2.93129
      N    3   -0.21951      0.99968     2.70954    0.01029     3.71951
      C    4    0.19841      0.99952     1.78329    0.01877     2.80159
      C    5    0.00671      0.99941     1.98009    0.01379     2.99329
      N    6   -0.13046      0.99968     2.61872    0.01205     3.63046
      C    7    0.15058      0.99964     1.83118    0.01860     2.84942
      N    8   -0.18151      0.99979     2.67125    0.01047     3.68151
      N    9   -0.31106      0.99967     2.79905    0.01234     3.81106
      C   10   -0.10949      0.99958     2.10027    0.00964     3.10949
      C   11    0.15295      0.99952     1.83569    0.01185     2.84705
      C   12   -0.15118      0.99951     2.14441    0.00726     3.15118
      C   13    0.06273      0.99963     1.92362    0.01402     2.93727
      N   14   -0.21208      0.99967     2.70201    0.01040     3.71208
      C   15    0.16957      0.99956     1.81288    0.01799     2.83043
      C   16   -0.17605      0.99952     2.16801    0.00853     3.17605
      C   17    0.00315      0.99965     1.98335    0.01385     2.99685
      N   18   -0.18280      0.99974     2.67152    0.01154     3.68280
      N   19   -0.09357      0.99956     2.58157    0.01244     3.59357
      H   20    0.08515      0.00000     0.41349    0.00136     0.41485
      H   21    0.08027      0.00000     0.41831    0.00142     0.41973
      H   22    0.20415      0.00000     0.29399    0.00186     0.29585
      H   23    0.10888      0.00000     0.39005    0.00107     0.39112
      H   24    0.11528      0.00000     0.38334    0.00138     0.38472
      H   25    0.11913      0.00000     0.37941    0.00145     0.38087
      H   26    0.08483      0.00000     0.41398    0.00119     0.41517
      H   27    0.10773      0.00000     0.39148    0.00079     0.39227
      H   28    0.09316      0.00000     0.40601    0.00083     0.40684
 =======================================================================
   * Total *   -0.00000     18.99255    45.75507    0.25238    65.00000

 Normal termination of Gaussian 16 at Sat Dec 12 10:36:58 2020.
