 Gaussian 16, Revision A.03,

 -----------------------------------------------------------
 # opt freq B3LYP/6-31G(d) empiricaldispersion=gd3bj scf=xqc
 -----------------------------------------------------------

 ------------------------------
 CID_79154394_JID_5825_neutraal
 ------------------------------
 Symbolic Z-matrix:
 Charge =  0 Multiplicity = 1

 SCF Done:  E(RB3LYP) =  -668.953634087     A.U. after   15 cycles
 SCF Done:  E(RB3LYP) =  -668.955493869     A.U. after   13 cycles
 SCF Done:  E(RB3LYP) =  -668.953663856     A.U. after   13 cycles
 SCF Done:  E(RB3LYP) =  -668.958504603     A.U. after   12 cycles
 SCF Done:  E(RB3LYP) =  -668.959937713     A.U. after   14 cycles
 SCF Done:  E(RB3LYP) =  -668.960392486     A.U. after   11 cycles
 SCF Done:  E(RB3LYP) =  -668.960611156     A.U. after   12 cycles
 SCF Done:  E(RB3LYP) =  -668.960778043     A.U. after   11 cycles
 SCF Done:  E(RB3LYP) =  -668.960960306     A.U. after   11 cycles
 SCF Done:  E(RB3LYP) =  -668.961000120     A.U. after   10 cycles
 SCF Done:  E(RB3LYP) =  -668.961057019     A.U. after    9 cycles
 SCF Done:  E(RB3LYP) =  -668.961063256     A.U. after    9 cycles
 SCF Done:  E(RB3LYP) =  -668.961064935     A.U. after    8 cycles
 SCF Done:  E(RB3LYP) =  -668.961065517     A.U. after    8 cycles
 SCF Done:  E(RB3LYP) =  -668.961065608     A.U. after    7 cycles
 Optimization completed.
    -- Stationary point found.
 Normal termination of Gaussian 16 at Thu Dec 10 17:20:36 2020.

 --------------------------------------------------------------------
 #N Geom=AllCheck Guess=TCheck SCRF=Check GenChk RB3LYP/6-31G(d) Freq
 --------------------------------------------------------------------

 Structure from the checkpoint file:  "JID_5825.chk"
 ------------------------------
 CID_79154394_JID_5825_neutraal
 ------------------------------
 Charge =  0 Multiplicity = 1

 SCF Done:  E(RB3LYP) =  -668.961065608     A.U. after    1 cycles

  Exact polarizability: 167.363   0.954 160.063   5.391   3.161  89.816
 Approx polarizability: 244.066  -6.524 235.490  17.559   6.757 138.225

                      1                      2                      3
                      A                      A                      A
 Frequencies --     40.8811                51.4063                66.1892
 Red. masses --      4.1019                 3.1886                 3.8697
 Frc consts  --      0.0040                 0.0050                 0.0100
 IR Inten    --      0.6444                 2.0948                 0.8801

                      4                      5                      6
                      A                      A                      A
 Frequencies --     75.4952               112.9706               118.9375
 Red. masses --      3.9166                 3.3429                 1.3225
 Frc consts  --      0.0132                 0.0251                 0.0110
 IR Inten    --      1.8455                 3.8510                 0.3535

                      7                      8                      9
                      A                      A                      A
 Frequencies --    138.2500               187.9599               204.5674
 Red. masses --      2.7013                 1.0784                 1.5934
 Frc consts  --      0.0304                 0.0224                 0.0393
 IR Inten    --      0.7898                 0.2794                 3.9818

                     10                     11                     12
                      A                      A                      A
 Frequencies --    209.7212               232.3455               248.5395
 Red. masses --      1.9543                 1.9655                 3.2440
 Frc consts  --      0.0506                 0.0625                 0.1181
 IR Inten    --      1.6532                 1.4278                 0.7151

                     13                     14                     15
                      A                      A                      A
 Frequencies --    266.8971               280.7547               319.2058
 Red. masses --      2.3425                 2.3103                 2.1433
 Frc consts  --      0.0983                 0.1073                 0.1287
 IR Inten    --     27.7801                10.6420                24.8849

                     16                     17                     18
                      A                      A                      A
 Frequencies --    344.8711               383.8834               403.3905
 Red. masses --      2.4148                 3.7565                 2.7802
 Frc consts  --      0.1692                 0.3262                 0.2665
 IR Inten    --     11.5705                 1.6356                 9.4498

                     19                     20                     21
                      A                      A                      A
 Frequencies --    445.7168               464.3693               470.4170
 Red. masses --      4.5389                 3.0332                 3.5020
 Frc consts  --      0.5313                 0.3854                 0.4566
 IR Inten    --      3.1132                 6.5967                 5.0966

                     22                     23                     24
                      A                      A                      A
 Frequencies --    514.6480               555.1404               632.0127
 Red. masses --      3.6655                 1.6900                 4.5931
 Frc consts  --      0.5720                 0.3069                 1.0809
 IR Inten    --      6.9910                52.0951                16.6270

                     25                     26                     27
                      A                      A                      A
 Frequencies --    635.1856               705.5329               710.3277
 Red. masses --      4.9598                 3.3207                 4.9159
 Frc consts  --      1.1790                 0.9739                 1.4614
 IR Inten    --     10.4494                22.1886                 3.9396

                     28                     29                     30
                      A                      A                      A
 Frequencies --    745.3536               751.9925               803.5148
 Red. masses --      3.3890                 4.5177                 5.3787
 Frc consts  --      1.1093                 1.5052                 2.0461
 IR Inten    --     16.9247                17.4956                 4.9190

                     31                     32                     33
                      A                      A                      A
 Frequencies --    823.5864               841.4455               884.6788
 Red. masses --      1.3724                 3.8749                 1.2902
 Frc consts  --      0.5485                 1.6165                 0.5950
 IR Inten    --     32.2767                11.9461                80.6115

                     34                     35                     36
                      A                      A                      A
 Frequencies --    931.4924               940.0375               971.4838
 Red. masses --      1.3573                 1.2969                 2.0440
 Frc consts  --      0.6939                 0.6752                 1.1366
 IR Inten    --      9.0741                 1.3125                18.2609

                     37                     38                     39
                      A                      A                      A
 Frequencies --   1024.8240              1033.4457              1045.0166
 Red. masses --      2.1689                 1.7849                 2.4120
 Frc consts  --      1.3421                 1.1232                 1.5519
 IR Inten    --      3.1257                18.2615                35.9553

                     40                     41                     42
                      A                      A                      A
 Frequencies --   1068.2568              1074.0738              1098.6949
 Red. masses --      2.0535                 1.4916                 1.3898
 Frc consts  --      1.3807                 1.0138                 0.9885
 IR Inten    --      1.4880                 3.8540                 8.4473

                     43                     44                     45
                      A                      A                      A
 Frequencies --   1150.0085              1155.6954              1177.8421
 Red. masses --      1.2227                 1.8997                 1.3841
 Frc consts  --      0.9527                 1.4949                 1.1313
 IR Inten    --      1.1409                 6.8954                 2.3074

                     46                     47                     48
                      A                      A                      A
 Frequencies --   1187.2216              1198.9786              1233.7736
 Red. masses --      1.3755                 1.6144                 1.7731
 Frc consts  --      1.1423                 1.3674                 1.5902
 IR Inten    --      2.9575                 2.2739                41.1020

                     49                     50                     51
                      A                      A                      A
 Frequencies --   1248.1226              1294.9595              1305.0881
 Red. masses --      3.0724                 3.4653                 2.7951
 Frc consts  --      2.8200                 3.4237                 2.8049
 IR Inten    --    113.1374                10.7488               120.6279

                     52                     53                     54
                      A                      A                      A
 Frequencies --   1309.2424              1338.3124              1369.6633
 Red. masses --      1.5386                 1.4750                 3.7524
 Frc consts  --      1.5539                 1.5565                 4.1475
 IR Inten    --     34.4533                 1.7079                20.5287

                     55                     56                     57
                      A                      A                      A
 Frequencies --   1432.4915              1441.3583              1445.0102
 Red. masses --      2.2388                 1.4266                 1.4314
 Frc consts  --      2.7067                 1.7463                 1.7610
 IR Inten    --    212.1894                54.7145                57.8483

                     58                     59                     60
                      A                      A                      A
 Frequencies --   1461.9067              1472.0694              1477.8413
 Red. masses --      1.1864                 1.5380                 2.7848
 Frc consts  --      1.4939                 1.9636                 3.5834
 IR Inten    --     10.7826                 0.5399                38.4278

                     61                     62                     63
                      A                      A                      A
 Frequencies --   1501.4037              1513.3044              1518.5099
 Red. masses --      1.2471                 1.0613                 1.0600
 Frc consts  --      1.6563                 1.4321                 1.4400
 IR Inten    --     57.3653                 6.8229                 4.1508

                     64                     65                     66
                      A                      A                      A
 Frequencies --   1524.4389              1532.6850              1536.7450
 Red. masses --      1.0529                 1.1062                 1.0599
 Frc consts  --      1.4416                 1.5311                 1.4748
 IR Inten    --     17.5251                 7.1679                 7.7704

                     67                     68                     69
                      A                      A                      A
 Frequencies --   1538.9772              1561.1281              1565.7345
 Red. masses --      1.0978                 2.0190                 1.4727
 Frc consts  --      1.5319                 2.8991                 2.1272
 IR Inten    --      8.1816                18.6820               129.2625

                     70                     71                     72
                      A                      A                      A
 Frequencies --   1639.8969              1676.2208              1691.7545
 Red. masses --      5.8831                 4.3948                 1.1758
 Frc consts  --      9.3216                 7.2753                 1.9826
 IR Inten    --     18.9880                14.8473                42.8586

                     73                     74                     75
                      A                      A                      A
 Frequencies --   1780.6158              2976.8306              3024.6255
 Red. masses --      7.0667                 1.0718                 1.0467
 Frc consts  --     13.2011                 5.5962                 5.6420
 IR Inten    --    462.8267                84.7322                34.5376

                     76                     77                     78
                      A                      A                      A
 Frequencies --   3026.6040              3037.5225              3055.3292
 Red. masses --      1.0451                 1.0417                 1.0901
 Frc consts  --      5.6407                 5.6626                 5.9955
 IR Inten    --     51.9243                70.0763                30.3595

                     79                     80                     81
                      A                      A                      A
 Frequencies --   3080.4666              3087.1871              3090.7722
 Red. masses --      1.0911                 1.0977                 1.1023
 Frc consts  --      6.1004                 6.1639                 6.2040
 IR Inten    --     19.5124                43.5865                10.2973

                     82                     83                     84
                      A                      A                      A
 Frequencies --   3132.0170              3175.4615              3183.4965
 Red. masses --      1.0997                 1.0868                 1.0966
 Frc consts  --      6.3558                 6.4567                 6.5479
 IR Inten    --     16.5488                13.2166                 8.1565

                     85                     86                     87
                      A                      A                      A
 Frequencies --   3190.5256              3193.3024              3235.8830
 Red. masses --      1.0968                 1.0943                 1.0900
 Frc consts  --      6.5779                 6.5745                 6.7246
 IR Inten    --      2.6759                29.0362                 0.7632

                     88                     89                     90
                      A                      A                      A
 Frequencies --   3459.3479              3547.9157              3585.9019
 Red. masses --      1.0494                 1.0929                 1.0749
 Frc consts  --      7.3994                 8.1054                 8.1432
 IR Inten    --      4.1651                 1.3276                25.8806

 - Thermochemistry -
 -------------------
 Temperature   298.150 Kelvin.  Pressure   1.00000 Atm.
 Atom     1 has atomic number  6 and mass  12.00000

 Molecular mass:   207.13716 amu.
 Principal axes and moments of inertia in atomic units:
                           1         2         3
     Eigenvalues --  2477.076373690.314525525.07802
           X            0.99958   0.02772  -0.00874
           Y           -0.02767   0.99960   0.00559
           Z            0.00889  -0.00535   0.99995
 This molecule is an asymmetric top.
 Rotational symmetry number  1.
 Warning -- assumption of classical behavior for rotation
           may cause significant error
 Rotational temperatures (Kelvin)      0.03497     0.02347     0.01568
 Rotational constants (GHZ):           0.72858     0.48905     0.32665
 Zero-point vibrational energy     725066.8 (Joules/Mol)
                                  173.29513 (Kcal/Mol)
 Warning -- explicit consideration of  23 degrees of freedom as
           vibrations may cause significant error
 Vibrational temperatures:     58.82    73.96    95.23   108.62   162.54
          (Kelvin)            171.12   198.91   270.43   294.33   301.74
                              334.29   357.59   384.01   403.94   459.27
                              496.19   552.32   580.39   641.29   668.12
                              676.83   740.46   798.72   909.33   913.89
                             1015.10  1022.00  1072.40  1081.95  1156.08
                             1184.96  1210.65  1272.86  1340.21  1352.50
                             1397.75  1474.49  1486.90  1503.55  1536.98
                             1545.35  1580.78  1654.61  1662.79  1694.65
                             1708.15  1725.06  1775.13  1795.77  1863.16
                             1877.73  1883.71  1925.53  1970.64  2061.04
                             2073.79  2079.05  2103.36  2117.98  2126.28
                             2160.19  2177.31  2184.80  2193.33  2205.19
                             2211.03  2214.24  2246.12  2252.74  2359.45
                             2411.71  2434.06  2561.91  4283.00  4351.76
                             4354.61  4370.32  4395.94  4432.10  4441.77
                             4446.93  4506.27  4568.78  4580.34  4590.45
                             4594.45  4655.71  4977.23  5104.66  5159.31

 Zero-point correction=                           0.276163 (Hartree/Particle)
 Thermal correction to Energy=                    0.292023
 Thermal correction to Enthalpy=                  0.292968
 Thermal correction to Gibbs Free Energy=         0.232777
 Sum of electronic and zero-point Energies=           -668.684902
 Sum of electronic and thermal Energies=              -668.669042
 Sum of electronic and thermal Enthalpies=            -668.668098
 Sum of electronic and thermal Free Energies=         -668.728289

                     E (Thermal)             CV                S
                      KCal/Mol        Cal/Mol-Kelvin    Cal/Mol-Kelvin
 Total                  183.247             58.775            126.682
 Electronic               0.000              0.000              0.000
 Translational            0.889              2.981             41.889
 Rotational               0.889              2.981             32.291
 Vibrational            181.470             52.814             52.502
 Vibration     1          0.594              1.981              5.216
 Vibration     2          0.596              1.977              4.763
 Vibration     3          0.598              1.970              4.264
 Vibration     4          0.599              1.965              4.005
 Vibration     5          0.607              1.939              3.217
 Vibration     6          0.609              1.934              3.118
 Vibration     7          0.614              1.915              2.828
 Vibration     8          0.633              1.856              2.248
 Vibration     9          0.640              1.833              2.092
 Vibration    10          0.642              1.826              2.046
 Vibration    11          0.653              1.791              1.861
 Vibration    12          0.662              1.765              1.741
 Vibration    13          0.672              1.734              1.616
 Vibration    14          0.680              1.709              1.529
 Vibration    15          0.705              1.637              1.314
 Vibration    16          0.723              1.586              1.190
 Vibration    17          0.753              1.505              1.024
 Vibration    18          0.769              1.463              0.950
 Vibration    19          0.805              1.370              0.809
 Vibration    20          0.822              1.329              0.753
 Vibration    21          0.827              1.316              0.736
 Vibration    22          0.870              1.218              0.622
 Vibration    23          0.911              1.128              0.534

                           ! Non-Optimized Parameters !
 Normal termination of Gaussian 16 at Thu Dec 10 17:31:10 2020.

 ----------------------------------------------------------------------
 # B3LYP/6-311++G(d,p) empiricaldispersion=gd3bj scf=xqc pop=npa geom=c
 heck
 ----------------------------------------------------------------------

 --------------------------------------
 CID_79154394_JID_5825_Energie_neutraal
 --------------------------------------
 Structure from the checkpoint file:  "JID_5825.chk"
 Charge =  0 Multiplicity = 1

 SCF Done:  E(RB3LYP) =  -669.156117469     A.U. after   16 cycles
 Normal termination of Gaussian 16 at Thu Dec 10 17:36:34 2020.

 ----------------------------------------------------------------------
 # B3LYP/6-311++G(d,p) empiricaldispersion=gd3bj scf=xqc pop=npa geom=c
 heck
 ----------------------------------------------------------------------

 ------------------------------------
 CID_79154394_JID_5825_Energie_kation
 ------------------------------------
 Structure from the checkpoint file:  "JID_5825.chk"
 Charge =  1 Multiplicity = 2

 SCF Done:  E(UB3LYP) =  -668.871891762     A.U. after   28 cycles
 Normal termination of Gaussian 16 at Thu Dec 10 17:51:14 2020.
 Gaussian 16:  ES64L-G16RevA.03 25-Dec-2016

 ----------------------------------------------------------------------
 # B3LYP/6-311++G(d,p) empiricaldispersion=gd3bj scf=xqc pop=npa geom=c
 heck
 ----------------------------------------------------------------------

 -----------------------------------
 CID_79154394_JID_5825_Energie_anion
 -----------------------------------
 Structure from the checkpoint file:  "JID_5825.chk"
 Charge = -1 Multiplicity = 2

                         Standard orientation:
 ---------------------------------------------------------------------
 Center     Atomic      Atomic             Coordinates (Angstroms)
 Number     Number       Type             X           Y           Z
 ---------------------------------------------------------------------
      1          6           0        0.879704    3.300930    0.475418
      2          6           0        1.270865    1.880184    0.161490
      3          6           0        0.286757    0.922794   -0.172920
      4          6           0        0.660147   -0.388591   -0.469788
      5          6           0        1.995778   -0.791255   -0.395628
      6          6           0        2.970612    0.147573   -0.060296
      7          6           0        2.602914    1.469161    0.199433
      8          6           0        2.342272   -2.239763   -0.654814
      9          7           0        1.565769   -3.115405    0.239004
     10          7           0       -1.063935    1.345880   -0.192390
     11          6           0       -2.208653    0.556136   -0.401086
     12          8           0       -3.084604    0.940237   -1.170650
     13          7           0       -2.294318   -0.610538    0.317310
     14          6           0       -1.577579   -0.872960    1.557189
     15          6           0       -3.400092   -1.506491    0.022473
     16          1           0        0.485555    3.826086   -0.406949
     17          1           0        0.096836    3.338357    1.242749
     18          1           0        1.740350    3.873045    0.832949
     19          1           0       -0.093600   -1.118360   -0.737816
     20          1           0        4.013950   -0.150341    0.003923
     21          1           0        3.366506    2.198370    0.459116
     22          1           0        2.070549   -2.509647   -1.683709
     23          1           0        3.435012   -2.367858   -0.573155
     24          1           0        1.781399   -4.090771    0.036615
     25          1           0        1.858125   -2.948335    1.201014
     26          1           0       -1.215528    2.251607   -0.620020
     27          1           0       -2.302524   -1.127626    2.341186
     28          1           0       -0.870826   -1.703881    1.442735
     29          1           0       -1.029323    0.013982    1.871509
     30          1           0       -4.219109   -1.382942    0.745427
     31          1           0       -3.780119   -1.285597   -0.973755
     32          1           0       -3.049385   -2.543848    0.067096
 ---------------------------------------------------------------------

 SCF Done:  E(UB3LYP) =  -669.145249473     A.U. after   33 cycles
 SCF Done:  E(UB3LYP) =  -669.145249473     a.u. after    1 cycles

 The electronic state is 2-A.
 Alpha  occ. eigenvalues --  -18.99077 -14.24923 -14.24415 -14.18571 -10.20312
 Alpha  occ. eigenvalues --  -10.11824 -10.10615 -10.10385 -10.09057 -10.08221
 Alpha  occ. eigenvalues --  -10.07873 -10.07450 -10.07254 -10.06704 -10.06394
 Alpha  occ. eigenvalues --   -0.95817  -0.85051  -0.83199  -0.78059  -0.74648
 Alpha  occ. eigenvalues --   -0.68132  -0.64391  -0.63018  -0.60910  -0.60417
 Alpha  occ. eigenvalues --   -0.54495  -0.52486  -0.48751  -0.46833  -0.43169
 Alpha  occ. eigenvalues --   -0.41488  -0.38988  -0.38251  -0.38112  -0.37195
 Alpha  occ. eigenvalues --   -0.36463  -0.33836  -0.33533  -0.32659  -0.32576
 Alpha  occ. eigenvalues --   -0.31038  -0.30901  -0.30734  -0.30458  -0.29480
 Alpha  occ. eigenvalues --   -0.28853  -0.28267  -0.25851  -0.25192  -0.24027
 Alpha  occ. eigenvalues --   -0.20925  -0.17876  -0.15341  -0.14925  -0.13542
 Alpha  occ. eigenvalues --   -0.12213   0.04246
 Alpha virt. eigenvalues --    0.06118   0.06575   0.07673   0.08110   0.08567
 Alpha virt. eigenvalues --    0.08827   0.08929   0.09883   0.10239   0.10353
 Alpha virt. eigenvalues --    0.11078   0.11347   0.12520   0.12543   0.13039

  Beta  occ. eigenvalues --  -18.99075 -14.24921 -14.24411 -14.18503 -10.20312
  Beta  occ. eigenvalues --  -10.11835 -10.10598 -10.10367 -10.09033 -10.08183
  Beta  occ. eigenvalues --  -10.07852 -10.07433 -10.07234 -10.06695 -10.06355
  Beta  occ. eigenvalues --   -0.95814  -0.85044  -0.83189  -0.77955  -0.74588
  Beta  occ. eigenvalues --   -0.68058  -0.64347  -0.62990  -0.60840  -0.60384
  Beta  occ. eigenvalues --   -0.54405  -0.52451  -0.48698  -0.46799  -0.43136
  Beta  occ. eigenvalues --   -0.41445  -0.38967  -0.38205  -0.38070  -0.37123
  Beta  occ. eigenvalues --   -0.36434  -0.33780  -0.33479  -0.32616  -0.32524
  Beta  occ. eigenvalues --   -0.31014  -0.30878  -0.30715  -0.30409  -0.29434
  Beta  occ. eigenvalues --   -0.28834  -0.28212  -0.25805  -0.25133  -0.23983
  Beta  occ. eigenvalues --   -0.20892  -0.17863  -0.15295  -0.14823  -0.13427
  Beta  occ. eigenvalues --   -0.12127
  Beta virt. eigenvalues --    0.06277   0.06822   0.07304   0.07963   0.08423
  Beta virt. eigenvalues --    0.08868   0.09224   0.09438   0.10239   0.10517
  Beta virt. eigenvalues --    0.10600   0.11406   0.11658   0.12596   0.12873

 Mulliken charges and spin densities:
               1          2
     1  C    0.899346  -1.565901
     2  C   -0.465451   1.086075
     3  C   -1.648088   1.417030
     4  C   -0.553540   0.761412
     5  C    0.331871   0.260019
     6  C   -0.117304  -0.683733
     7  C    0.994271  -1.452253
     8  C    1.530423  -2.270452
     9  N   -0.368437   0.020199
    10  N   -0.129776   0.043317
    11  C   -0.194990   0.239499
    12  O   -0.342809  -0.002429
    13  N   -0.172542   0.085037
    14  C   -0.032696  -0.451695
    15  C    0.141816  -0.478623
    16  H   -0.086922   0.241119
    17  H    0.021321   0.151738
    18  H   -0.189930   0.338599
    19  H    0.436132  -0.162832
    20  H   -0.260741   0.389644
    21  H   -0.176641   0.308115
    22  H   -0.193204   0.357860
    23  H   -0.348592   0.510798
    24  H   -0.310755   0.558571
    25  H   -0.104175   0.302260
    26  H    0.249574   0.077614
    27  H   -0.117655   0.260959
    28  H    0.199481   0.003718
    29  H   -0.038008   0.219297
    30  H   -0.009336   0.158953
    31  H    0.126013   0.052375
    32  H   -0.068657   0.223710
 Sum of Mulliken charges =  -1.00000   1.00000

 Dipole moment (field-independent basis, Debye):
    X=             -2.7320    Y=              4.1114    Z=              0.2942  Tot=              4.9451
 Quadrupole moment (field-independent basis, Debye-Ang):
   XX=           -150.6683   YY=           -157.4131   ZZ=           -120.9087
   XY=             12.8560   XZ=             -3.7470   YZ=              3.4010

 Summary of Natural Population Analysis:

                                       Natural Population
                Natural  -----------------------------------------------
    Atom  No    Charge         Core      Valence    Rydberg      Total
 -----------------------------------------------------------------------
      C    1   -0.29472      0.99964     2.29014    0.00494     3.29472
      C    2   -0.02797      0.99948     2.01814    0.01034     3.02797
      C    3    0.07792      0.99942     1.91165    0.01101     2.92208
      C    4   -0.10650      0.99947     2.09835    0.00868     3.10650
      C    5   -0.01291      0.99951     2.00239    0.01101     3.01291
      C    6   -0.10818      0.99951     2.09848    0.01020     3.10818
      C    7   -0.09194      0.99952     2.08330    0.00912     3.09194
      C    8   -0.09344      0.99959     2.08120    0.01264     3.09344
      N    9   -0.42022      0.99978     2.90976    0.01068     3.92022
      N   10   -0.32846      0.99964     2.81931    0.00950     3.82846
      C   11    0.41340      0.99966     1.56416    0.02278     2.58660
      O   12   -0.33972      0.99988     3.33476    0.00508     4.33972
      N   13   -0.26043      0.99965     2.75174    0.00904     3.76043
      C   14   -0.18133      0.99963     2.17348    0.00821     3.18133
      C   15   -0.17454      0.99964     2.16829    0.00661     3.17454
      H   16    0.10005      0.00000     0.39826    0.00169     0.39995
      H   17    0.10475      0.00000     0.39383    0.00142     0.39525
      H   18    0.10413      0.00000     0.39486    0.00101     0.39587
      H   19    0.11119      0.00000     0.38651    0.00230     0.38881
      H   20    0.10011      0.00000     0.39872    0.00117     0.39989
      H   21    0.09723      0.00000     0.40179    0.00098     0.40277
      H   22    0.09470      0.00000     0.40386    0.00144     0.40530
      H   23    0.08267      0.00000     0.41510    0.00222     0.41733
      H   24    0.17933      0.00000     0.31435    0.00632     0.32067
      H   25    0.17424      0.00000     0.32214    0.00362     0.32576
      H   26    0.19747      0.00000     0.29991    0.00262     0.30253
      H   27    0.09224      0.00000     0.40677    0.00100     0.40776
      H   28    0.10727      0.00000     0.39127    0.00146     0.39273
      H   29    0.10763      0.00000     0.39109    0.00128     0.39237
      H   30    0.08838      0.00000     0.41024    0.00138     0.41162
      H   31    0.11190      0.00000     0.38711    0.00099     0.38810
      H   32    0.09573      0.00000     0.40304    0.00122     0.40427
 =======================================================================
   * Total *    0.00000     14.99403    40.82401    0.18196    56.00000

 Normal termination of Gaussian 16 at Thu Dec 10 18:09:21 2020.
