 Gaussian 16, Revision A.03,

 -----------------------------------------------------------
 # opt freq B3LYP/6-31G(d) empiricaldispersion=gd3bj scf=xqc
 -----------------------------------------------------------

 -------------------------------
 CID_149795911_JID_3471_neutraal
 -------------------------------
 Symbolic Z-matrix:
 Charge =  0 Multiplicity = 1

 SCF Done:  E(RB3LYP) =  -628.583948756     A.U. after   16 cycles
 SCF Done:  E(RB3LYP) =  -628.587769732     A.U. after   15 cycles
 SCF Done:  E(RB3LYP) =  -628.589339609     A.U. after   15 cycles
 SCF Done:  E(RB3LYP) =  -628.589755089     A.U. after   13 cycles
 SCF Done:  E(RB3LYP) =  -628.589870477     A.U. after   13 cycles
 SCF Done:  E(RB3LYP) =  -628.589928900     A.U. after   13 cycles
 SCF Done:  E(RB3LYP) =  -628.590041422     A.U. after   12 cycles
 SCF Done:  E(RB3LYP) =  -628.590117356     A.U. after   13 cycles
 SCF Done:  E(RB3LYP) =  -628.590146210     A.U. after   11 cycles
 SCF Done:  E(RB3LYP) =  -628.590158109     A.U. after   11 cycles
 SCF Done:  E(RB3LYP) =  -628.590161445     A.U. after   10 cycles
 SCF Done:  E(RB3LYP) =  -628.590161758     A.U. after    8 cycles
 SCF Done:  E(RB3LYP) =  -628.590161800     A.U. after    8 cycles
 Optimization completed.
    -- Stationary point found.
 Normal termination of Gaussian 16 at Wed Dec  9 23:25:03 2020.

 --------------------------------------------------------------------
 #N Geom=AllCheck Guess=TCheck SCRF=Check GenChk RB3LYP/6-31G(d) Freq
 --------------------------------------------------------------------

 Structure from the checkpoint file:  "JID_3471.chk"
 -------------------------------
 CID_149795911_JID_3471_neutraal
 -------------------------------
 Charge =  0 Multiplicity = 1

 SCF Done:  E(RB3LYP) =  -628.590161800     A.U. after    1 cycles

  Exact polarizability: 119.284  11.300 118.622  -2.693  -3.208  86.953
 Approx polarizability: 162.123  34.657 179.407 -12.911 -15.057 146.177

                      1                      2                      3
                      A                      A                      A
 Frequencies --     20.1183                29.8173                50.5424
 Red. masses --      3.5038                 7.3382                 3.3045
 Frc consts  --      0.0008                 0.0038                 0.0050
 IR Inten    --      0.4590                 0.0761                 1.2273

                      4                      5                      6
                      A                      A                      A
 Frequencies --     57.6556               111.1715               128.2937
 Red. masses --      3.0298                 5.6029                 4.5090
 Frc consts  --      0.0059                 0.0408                 0.0437
 IR Inten    --      0.6007                 0.9500                 0.9791

                      7                      8                      9
                      A                      A                      A
 Frequencies --    163.7201               187.0612               216.1261
 Red. masses --      5.0538                 3.5916                 1.5931
 Frc consts  --      0.0798                 0.0740                 0.0438
 IR Inten    --      0.6728                 0.6738                 0.4280

                     10                     11                     12
                      A                      A                      A
 Frequencies --    218.7240               236.3358               240.8392
 Red. masses --      1.1024                 1.3489                 1.4185
 Frc consts  --      0.0311                 0.0444                 0.0485
 IR Inten    --      0.0488                 0.2214                 0.8201

                     13                     14                     15
                      A                      A                      A
 Frequencies --    253.2715               266.5456               334.7691
 Red. masses --      1.0761                 3.3501                 2.5892
 Frc consts  --      0.0407                 0.1402                 0.1710
 IR Inten    --      0.2138                 1.0582                 1.7003

                     16                     17                     18
                      A                      A                      A
 Frequencies --    340.5610               378.8316               433.1101
 Red. masses --      2.9765                 2.6330                 3.4126
 Frc consts  --      0.2034                 0.2226                 0.3772
 IR Inten    --      5.2518                 4.6097                 2.8496

                     19                     20                     21
                      A                      A                      A
 Frequencies --    453.2411               497.2276               526.5967
 Red. masses --      5.2879                 4.3190                 3.6488
 Frc consts  --      0.6400                 0.6291                 0.5961
 IR Inten    --      7.1839                 7.3293                 6.9827

                     22                     23                     24
                      A                      A                      A
 Frequencies --    575.0868               655.6576               723.9008
 Red. masses --     13.4105                 4.8408                 3.7271
 Frc consts  --      2.6131                 1.2261                 1.1508
 IR Inten    --     15.3764                 8.4457                 2.6129

                     25                     26                     27
                      A                      A                      A
 Frequencies --    768.8178               814.0812               881.0537
 Red. masses --      6.2391                 6.8461                 2.3450
 Frc consts  --      2.1728                 2.6732                 1.0725
 IR Inten    --      6.8357                 6.5865                11.8634

                     28                     29                     30
                      A                      A                      A
 Frequencies --    902.3393               937.5709               951.8557
 Red. masses --      2.5649                 2.4766                 1.2406
 Frc consts  --      1.2304                 1.2826                 0.6622
 IR Inten    --      3.9809                17.6833                 4.1068

                     31                     32                     33
                      A                      A                      A
 Frequencies --    952.3425               970.0120               984.2853
 Red. masses --      1.1739                 1.9768                 1.5284
 Frc consts  --      0.6273                 1.0959                 0.8724
 IR Inten    --      0.8164                72.6562                 0.0725

                     34                     35                     36
                      A                      A                      A
 Frequencies --    995.2729              1036.6716              1079.3899
 Red. masses --      2.2929                 2.3786                 2.5700
 Frc consts  --      1.3382                 1.5061                 1.7642
 IR Inten    --     44.1332                 9.5835               343.0500

                     37                     38                     39
                      A                      A                      A
 Frequencies --   1129.3145              1152.5471              1193.2911
 Red. masses --      2.3922                 2.3466                 2.1205
 Frc consts  --      1.7975                 1.8366                 1.7790
 IR Inten    --      0.0697                 5.4233                 6.5525

                     40                     41                     42
                      A                      A                      A
 Frequencies --   1204.1608              1213.5331              1263.4896
 Red. masses --      1.9302                 1.7951                 2.7614
 Frc consts  --      1.6490                 1.5575                 2.5973
 IR Inten    --      4.2138                 1.6558               159.2131

                     43                     44                     45
                      A                      A                      A
 Frequencies --   1317.2261              1338.1773              1360.7771
 Red. masses --      1.5624                 4.7871                 1.4612
 Frc consts  --      1.5972                 5.0507                 1.5942
 IR Inten    --    109.0874                95.3326                 4.5910

                     46                     47                     48
                      A                      A                      A
 Frequencies --   1365.6733              1375.8746              1400.8383
 Red. masses --      1.3370                 1.3375                 1.3287
 Frc consts  --      1.4692                 1.4917                 1.5362
 IR Inten    --      1.3341                15.2923                33.4013

                     49                     50                     51
                      A                      A                      A
 Frequencies --   1424.6342              1425.1794              1431.3479
 Red. masses --      1.2194                 1.3227                 1.2548
 Frc consts  --      1.4582                 1.5829                 1.5147
 IR Inten    --      2.3235                 6.8188                 3.4966

                     52                     53                     54
                      A                      A                      A
 Frequencies --   1448.6338              1453.0638              1517.2429
 Red. masses --      1.2301                 1.2301                 1.0483
 Frc consts  --      1.5209                 1.5302                 1.4218
 IR Inten    --      8.2355                10.9971                 0.7276

                     55                     56                     57
                      A                      A                      A
 Frequencies --   1518.9606              1520.5661              1523.4933
 Red. masses --      1.0411                 1.0493                 1.0447
 Frc consts  --      1.4153                 1.4295                 1.4286
 IR Inten    --      1.8092                 2.1648                 1.6107

                     58                     59                     60
                      A                      A                      A
 Frequencies --   1532.7953              1533.8898              1540.9594
 Red. masses --      1.0452                 1.0502                 1.0562
 Frc consts  --      1.4469                 1.4558                 1.4776
 IR Inten    --      5.4771                 8.3476                24.1778

                     61                     62                     63
                      A                      A                      A
 Frequencies --   1543.6194              1838.4465              2270.4106
 Red. masses --      1.0572                11.6110                13.6719
 Frc consts  --      1.4842                23.1218                41.5228
 IR Inten    --     13.3937               189.3108               454.0073

                     64                     65                     66
                      A                      A                      A
 Frequencies --   3043.5665              3049.1202              3053.8468
 Red. masses --      1.0415                 1.0474                 1.0772
 Frc consts  --      5.6842                 5.7371                 5.9188
 IR Inten    --     17.6511                 9.0569                48.8574

                     67                     68                     69
                      A                      A                      A
 Frequencies --   3055.3318              3058.9960              3087.7217
 Red. masses --      1.0350                 1.0352                 1.0860
 Frc consts  --      5.6925                 5.7076                 6.1002
 IR Inten    --     28.1290                13.0683                 5.2432

                     70                     71                     72
                      A                      A                      A
 Frequencies --   3106.2612              3111.2325              3121.6052
 Red. masses --      1.0906                 1.0972                 1.1030
 Frc consts  --      6.1998                 6.2574                 6.3326
 IR Inten    --     22.4285                 3.9745                24.3751

                     73                     74                     75
                      A                      A                      A
 Frequencies --   3126.5049              3132.3295              3135.8762
 Red. masses --      1.1031                 1.0920                 1.1032
 Frc consts  --      6.3529                 6.3128                 6.3915
 IR Inten    --     28.5406                28.0105                 4.6412

                     76                     77                     78
                      A                      A                      A
 Frequencies --   3137.6652              3141.4746              3142.1696
 Red. masses --      1.1009                 1.1010                 1.1014
 Frc consts  --      6.3859                 6.4019                 6.4072
 IR Inten    --     29.0534                24.8801                41.6990

 - Thermochemistry -
 -------------------
 Temperature   298.150 Kelvin.  Pressure   1.00000 Atm.
 Atom     1 has atomic number  6 and mass  12.00000

 Molecular mass:   185.11643 amu.
 Principal axes and moments of inertia in atomic units:
                           1         2         3
     Eigenvalues --  1845.497332753.149743984.63806
           X            0.99941   0.03384  -0.00516
           Y           -0.03375   0.99931   0.01556
           Z            0.00569  -0.01537   0.99987
 This molecule is an asymmetric top.
 Rotational symmetry number  1.
 Warning -- assumption of classical behavior for rotation
           may cause significant error
 Rotational temperatures (Kelvin)      0.04693     0.03146     0.02174
 Rotational constants (GHZ):           0.97792     0.65552     0.45292
 Zero-point vibrational energy     620351.9 (Joules/Mol)
                                  148.26767 (Kcal/Mol)
 Warning -- explicit consideration of  22 degrees of freedom as
           vibrations may cause significant error
 Vibrational temperatures:     28.95    42.90    72.72    82.95   159.95
          (Kelvin)            184.59   235.56   269.14   310.96   314.70
                              340.03   346.51   364.40   383.50   481.66
                              489.99   545.05   623.15   652.11   715.40
                              757.66   827.42   943.34  1041.53  1106.16
                             1171.28  1267.64  1298.27  1348.96  1369.51
                             1370.21  1395.63  1416.17  1431.98  1491.54
                             1553.00  1624.83  1658.26  1716.88  1732.52
                             1746.00  1817.88  1895.19  1925.34  1957.85
                             1964.90  1979.58  2015.49  2049.73  2050.52
                             2059.39  2084.26  2090.63  2182.97  2185.45
                             2187.76  2191.97  2205.35  2206.93  2217.10
                             2220.92  2645.11  3266.61  4379.01  4387.00
                             4393.80  4395.94  4401.21  4442.54  4469.22
                             4476.37  4491.29  4498.34  4506.72  4511.83
                             4514.40  4519.88  4520.88

 Zero-point correction=                           0.236280 (Hartree/Particle)
 Thermal correction to Energy=                    0.251431
 Thermal correction to Enthalpy=                  0.252375
 Thermal correction to Gibbs Free Energy=         0.192405
 Sum of electronic and zero-point Energies=           -628.353882
 Sum of electronic and thermal Energies=              -628.338731
 Sum of electronic and thermal Enthalpies=            -628.337787
 Sum of electronic and thermal Free Energies=         -628.397757

                     E (Thermal)             CV                S
                      KCal/Mol        Cal/Mol-Kelvin    Cal/Mol-Kelvin
 Total                  157.775             53.409            126.218
 Electronic               0.000              0.000              0.000
 Translational            0.889              2.981             41.554
 Rotational               0.889              2.981             31.382
 Vibrational            155.998             47.447             53.282
 Vibration     1          0.593              1.986              6.622
 Vibration     2          0.594              1.984              5.842
 Vibration     3          0.595              1.977              4.796
 Vibration     4          0.596              1.974              4.536
 Vibration     5          0.607              1.940              3.248
 Vibration     6          0.611              1.925              2.971
 Vibration     7          0.623              1.887              2.506
 Vibration     8          0.632              1.858              2.257
 Vibration     9          0.645              1.816              1.991
 Vibration    10          0.646              1.813              1.970
 Vibration    11          0.655              1.785              1.830
 Vibration    12          0.658              1.778              1.797
 Vibration    13          0.664              1.757              1.708
 Vibration    14          0.672              1.734              1.619
 Vibration    15          0.716              1.606              1.237
 Vibration    16          0.720              1.594              1.210
 Vibration    17          0.749              1.515              1.044
 Vibration    18          0.794              1.398              0.849
 Vibration    19          0.812              1.354              0.786
 Vibration    20          0.853              1.256              0.665
 Vibration    21          0.882              1.191              0.595
 Vibration    22          0.931              1.085              0.495

                           ! Non-Optimized Parameters !
 Normal termination of Gaussian 16 at Wed Dec  9 23:32:39 2020.

 ----------------------------------------------------------------------
 # B3LYP/6-311++G(d,p) empiricaldispersion=gd3bj scf=xqc pop=npa geom=c
 heck
 ----------------------------------------------------------------------

 ---------------------------------------
 CID_149795911_JID_3471_Energie_neutraal
 ---------------------------------------
 Structure from the checkpoint file:  "JID_3471.chk"
 Charge =  0 Multiplicity = 1

 SCF Done:  E(RB3LYP) =  -628.770200326     A.U. after   15 cycles
 Normal termination of Gaussian 16 at Wed Dec  9 23:36:08 2020.

 ----------------------------------------------------------------------
 # B3LYP/6-311++G(d,p) empiricaldispersion=gd3bj scf=xqc pop=npa geom=c
 heck
 ----------------------------------------------------------------------

 -------------------------------------
 CID_149795911_JID_3471_Energie_kation
 -------------------------------------
 Structure from the checkpoint file:  "JID_3471.chk"
 Charge =  1 Multiplicity = 2

 SCF Done:  E(UB3LYP) =  -628.431718845     A.U. after   24 cycles
 Normal termination of Gaussian 16 at Wed Dec  9 23:44:06 2020.
 Gaussian 16:  ES64L-G16RevA.03 25-Dec-2016

 ----------------------------------------------------------------------
 # B3LYP/6-311++G(d,p) empiricaldispersion=gd3bj scf=xqc pop=npa geom=c
 heck
 ----------------------------------------------------------------------

 ------------------------------------
 CID_149795911_JID_3471_Energie_anion
 ------------------------------------
 Structure from the checkpoint file:  "JID_3471.chk"
 Charge = -1 Multiplicity = 2

                         Standard orientation:
 ---------------------------------------------------------------------
 Center     Atomic      Atomic             Coordinates (Angstroms)
 Number     Number       Type             X           Y           Z
 ---------------------------------------------------------------------
      1          6           0       -3.481421   -0.461822   -0.047022
      2          6           0       -2.015953   -0.853498    0.181628
      3          6           0       -1.708951   -2.232933   -0.410731
      4          6           0       -1.107829    0.209468   -0.441592
      5          7           0       -1.309439    1.485653    0.262582
      6          7           0       -0.564640    2.402156   -0.102507
      7          7           0        0.083538    3.310945   -0.336755
      8          8           0        0.289343   -0.135306   -0.507582
      9          6           0        0.990967   -0.380852    0.640703
     10          8           0        0.500069   -0.411064    1.743718
     11          6           0        2.460459   -0.589028    0.321412
     12          6           0        2.657648   -1.801898   -0.602061
     13          6           0        3.062937    0.689387   -0.286269
     14          1           0       -3.718558   -0.428064   -1.118575
     15          1           0       -3.703377    0.518510    0.383526
     16          1           0       -4.144562   -1.199236    0.417042
     17          1           0       -1.811894   -0.867435    1.254627
     18          1           0       -1.840505   -2.236119   -1.500298
     19          1           0       -0.685871   -2.552247   -0.193418
     20          1           0       -2.390931   -2.979294    0.009201
     21          1           0       -1.361081    0.332256   -1.501935
     22          1           0        2.933030   -0.788294    1.288421
     23          1           0        2.176351   -1.633795   -1.570114
     24          1           0        3.726039   -1.971516   -0.773146
     25          1           0        2.236790   -2.712513   -0.161700
     26          1           0        2.907133    1.555085    0.366021
     27          1           0        4.140907    0.561546   -0.431462
     28          1           0        2.607867    0.907860   -1.256931
 ---------------------------------------------------------------------

 SCF Done:  E(UB3LYP) =  -628.760619531     A.U. after   33 cycles
 SCF Done:  E(UB3LYP) =  -628.760619532     a.u. after    1 cycles

 The electronic state is 2-A.
 Alpha  occ. eigenvalues --  -19.06343 -19.01301 -14.34022 -14.24553 -14.23252
 Alpha  occ. eigenvalues --  -10.20090 -10.16341 -10.09199 -10.07382 -10.06870
 Alpha  occ. eigenvalues --  -10.06708 -10.05690 -10.05622  -1.01797  -0.99909
 Alpha  occ. eigenvalues --   -0.92528  -0.85252  -0.72182  -0.70243  -0.62049
 Alpha  occ. eigenvalues --   -0.59447  -0.58559  -0.54129  -0.50223  -0.47627
 Alpha  occ. eigenvalues --   -0.42712  -0.39766  -0.38939  -0.38109  -0.37103
 Alpha  occ. eigenvalues --   -0.35994  -0.34930  -0.33845  -0.32813  -0.32020
 Alpha  occ. eigenvalues --   -0.31114  -0.30245  -0.29302  -0.28755  -0.28404
 Alpha  occ. eigenvalues --   -0.27448  -0.25473  -0.24839  -0.24695  -0.24159
 Alpha  occ. eigenvalues --   -0.23799  -0.21106  -0.18667  -0.17363  -0.13720
 Alpha  occ. eigenvalues --    0.04640
 Alpha virt. eigenvalues --    0.06277   0.07132   0.08419   0.08460   0.09094
 Alpha virt. eigenvalues --    0.09735   0.10130   0.10630   0.11434   0.11794
 Alpha virt. eigenvalues --    0.12225   0.12469   0.12942   0.13197   0.13926

  Beta  occ. eigenvalues --  -19.06339 -19.01296 -14.33741 -14.24183 -14.23298
  Beta  occ. eigenvalues --  -10.20088 -10.16260 -10.09192 -10.07378 -10.06857
  Beta  occ. eigenvalues --  -10.06673 -10.05663 -10.05586  -1.01479  -0.99680
  Beta  occ. eigenvalues --   -0.92507  -0.85000  -0.72128  -0.70207  -0.61911
  Beta  occ. eigenvalues --   -0.59398  -0.58496  -0.54043  -0.50172  -0.47422
  Beta  occ. eigenvalues --   -0.42645  -0.39359  -0.38821  -0.37645  -0.36955
  Beta  occ. eigenvalues --   -0.35658  -0.34864  -0.33639  -0.32322  -0.31730
  Beta  occ. eigenvalues --   -0.30967  -0.30203  -0.29250  -0.28717  -0.28371
  Beta  occ. eigenvalues --   -0.27407  -0.25362  -0.24813  -0.24590  -0.24122
  Beta  occ. eigenvalues --   -0.23759  -0.21065  -0.18182  -0.17232  -0.13615
  Beta virt. eigenvalues --    0.06961   0.07485   0.08704   0.08963   0.09315
  Beta virt. eigenvalues --    0.09665   0.10059   0.10452   0.10962   0.11683
  Beta virt. eigenvalues --    0.12039   0.12580   0.12710   0.13220   0.13378

 Mulliken charges and spin densities:
               1          2
     1  C    0.384317  -0.990045
     2  C   -1.512727   1.889448
     3  C    0.632102  -1.133552
     4  C    0.933700  -1.478550
     5  N   -0.093105   0.197072
     6  N    0.234555   0.017806
     7  N   -0.280165   0.124547
     8  O    0.048616   0.048029
     9  C    0.690477  -0.992295
    10  O   -0.210102   0.012028
    11  C   -1.527322   1.759795
    12  C    0.842198  -1.420419
    13  C   -0.007704  -0.581838
    14  H   -0.096612   0.233598
    15  H   -0.037716   0.194984
    16  H   -0.084191   0.222944
    17  H    0.228489   0.006972
    18  H   -0.179722   0.327082
    19  H    0.185809  -0.047156
    20  H   -0.433444   0.577514
    21  H   -0.136416   0.328790
    22  H   -0.003959   0.193036
    23  H   -0.078114   0.243384
    24  H   -0.463114   0.620119
    25  H   -0.157122   0.295325
    26  H    0.076532   0.073085
    27  H   -0.159369   0.315938
    28  H    0.204108  -0.037643
 Sum of Mulliken charges =  -1.00000   1.00000

 Dipole moment (field-independent basis, Debye):
    X=             -0.1257    Y=              1.4407    Z=              0.4566  Tot=              1.5165
 Quadrupole moment (field-independent basis, Debye-Ang):
   XX=           -136.2831   YY=           -129.6164   ZZ=           -106.7752
   XY=              1.3368   XZ=              1.3462   YZ=             -3.0996

 Summary of Natural Population Analysis:

                                       Natural Population
                Natural  -----------------------------------------------
    Atom  No    Charge         Core      Valence    Rydberg      Total
 -----------------------------------------------------------------------
      C    1   -0.28299      0.99965     2.27848    0.00486     3.28299
      C    2   -0.13363      0.99958     2.12275    0.01131     3.13363
      C    3   -0.28394      0.99965     2.27804    0.00626     3.28394
      C    4    0.15648      0.99950     1.82615    0.01787     2.84352
      N    5   -0.21390      0.99968     2.70102    0.01320     3.71390
      N    6    0.14138      0.99970     2.34304    0.01588     3.35862
      N    7   -0.00730      0.99982     2.49422    0.01327     3.50730
      O    8   -0.29623      0.99986     3.28674    0.00964     4.29623
      C    9    0.41741      0.99964     1.55654    0.02641     2.58259
      O   10   -0.29627      0.99987     3.29108    0.00532     4.29627
      C   11   -0.15482      0.99957     2.14506    0.01019     3.15482
      C   12   -0.28169      0.99965     2.27610    0.00594     3.28169
      C   13   -0.28246      0.99965     2.27669    0.00612     3.28246
      H   14    0.09538      0.00000     0.40342    0.00120     0.40462
      H   15    0.10781      0.00000     0.39091    0.00128     0.39219
      H   16    0.09879      0.00000     0.40028    0.00093     0.40121
      H   17    0.11216      0.00000     0.38579    0.00205     0.38784
      H   18    0.09764      0.00000     0.40116    0.00121     0.40236
      H   19    0.10183      0.00000     0.39692    0.00124     0.39817
      H   20    0.10059      0.00000     0.39826    0.00115     0.39941
      H   21    0.08671      0.00000     0.41179    0.00149     0.41329
      H   22    0.10375      0.00000     0.39445    0.00180     0.39625
      H   23    0.10409      0.00000     0.39457    0.00133     0.39591
      H   24    0.10087      0.00000     0.39761    0.00152     0.39913
      H   25    0.10147      0.00000     0.39724    0.00129     0.39853
      H   26    0.10347      0.00000     0.39563    0.00089     0.39653
      H   27    0.09902      0.00000     0.40006    0.00092     0.40098
      H   28    0.10439      0.00000     0.39455    0.00106     0.39561
 =======================================================================
   * Total *    0.00000     12.99580    36.83858    0.16562    50.00000

 Normal termination of Gaussian 16 at Wed Dec  9 23:55:03 2020.
