 Gaussian 16, Revision A.03,

 -----------------------------------------------------------
 # opt freq B3LYP/6-31G(d) empiricaldispersion=gd3bj scf=xqc
 -----------------------------------------------------------

 -------------------------------
 CID_112650153_JID_5312_neutraal
 -------------------------------
 Symbolic Z-matrix:
 Charge =  0 Multiplicity = 1

 SCF Done:  E(RB3LYP) =  -634.217987699     A.U. after   14 cycles
 SCF Done:  E(RB3LYP) =  -634.221667257     A.U. after   12 cycles
 SCF Done:  E(RB3LYP) =  -634.221646647     A.U. after   12 cycles
 SCF Done:  E(RB3LYP) =  -634.222644000     A.U. after   12 cycles
 SCF Done:  E(RB3LYP) =  -634.222872750     A.U. after   11 cycles
 SCF Done:  E(RB3LYP) =  -634.223000044     A.U. after   11 cycles
 SCF Done:  E(RB3LYP) =  -634.223076333     A.U. after   12 cycles
 SCF Done:  E(RB3LYP) =  -634.223129808     A.U. after   10 cycles
 SCF Done:  E(RB3LYP) =  -634.223157760     A.U. after   10 cycles
 SCF Done:  E(RB3LYP) =  -634.223162574     A.U. after    9 cycles
 SCF Done:  E(RB3LYP) =  -634.223164518     A.U. after    8 cycles
 SCF Done:  E(RB3LYP) =  -634.223164914     A.U. after    8 cycles
 SCF Done:  E(RB3LYP) =  -634.223165069     A.U. after    7 cycles
 SCF Done:  E(RB3LYP) =  -634.223165120     A.U. after    7 cycles
 Optimization completed.
    -- Stationary point found.
 Normal termination of Gaussian 16 at Thu Dec 10 15:32:36 2020.

 --------------------------------------------------------------------
 #N Geom=AllCheck Guess=TCheck SCRF=Check GenChk RB3LYP/6-31G(d) Freq
 --------------------------------------------------------------------

 Structure from the checkpoint file:  "JID_5312.chk"
 -------------------------------
 CID_112650153_JID_5312_neutraal
 -------------------------------
 Charge =  0 Multiplicity = 1

 SCF Done:  E(RB3LYP) =  -634.223165120     A.U. after    1 cycles

  Exact polarizability: 167.736   0.481 154.875  -8.976  -3.209 106.716
 Approx polarizability: 226.613   0.223 240.922 -17.242  -7.210 157.059

                      1                      2                      3
                      A                      A                      A
 Frequencies --     21.7059                29.8460                40.9888
 Red. masses --      3.9452                 3.5312                 3.9277
 Frc consts  --      0.0011                 0.0019                 0.0039
 IR Inten    --      0.3922                 0.3773                 0.1940

                      4                      5                      6
                      A                      A                      A
 Frequencies --     79.9064               105.2935               152.9683
 Red. masses --      3.2373                 3.0942                 1.3930
 Frc consts  --      0.0122                 0.0202                 0.0192
 IR Inten    --      0.1210                 1.0166                 0.0694

                      7                      8                      9
                      A                      A                      A
 Frequencies --    163.2060               174.0862               222.1701
 Red. masses --      1.9393                 2.2834                 1.7835
 Frc consts  --      0.0304                 0.0408                 0.0519
 IR Inten    --      1.1277                 1.4034                 1.6619

                     10                     11                     12
                      A                      A                      A
 Frequencies --    235.8478               243.4990               262.5983
 Red. masses --      3.0142                 1.6188                 1.8862
 Frc consts  --      0.0988                 0.0566                 0.0766
 IR Inten    --      0.4557                 3.1822                 0.4313

                     13                     14                     15
                      A                      A                      A
 Frequencies --    270.7917               281.9649               296.6948
 Red. masses --      1.9795                 2.2614                 1.7115
 Frc consts  --      0.0855                 0.1059                 0.0888
 IR Inten    --      4.2330                 6.1902                 0.1868

                     16                     17                     18
                      A                      A                      A
 Frequencies --    334.0951               381.9149               439.8211
 Red. masses --      1.7513                 2.6657                 2.2206
 Frc consts  --      0.1152                 0.2291                 0.2531
 IR Inten    --      3.0594                 1.7250                 1.5492

                     19                     20                     21
                      A                      A                      A
 Frequencies --    450.7292               480.9812               487.6697
 Red. masses --      3.5804                 3.1938                 2.3490
 Frc consts  --      0.4286                 0.4353                 0.3291
 IR Inten    --      0.5352                 9.0617                 5.2398

                     22                     23                     24
                      A                      A                      A
 Frequencies --    513.2972               535.1169               577.8507
 Red. masses --      3.1784                 3.6473                 3.3619
 Frc consts  --      0.4934                 0.6154                 0.6614
 IR Inten    --      0.5433                 4.3810                 0.5922

                     25                     26                     27
                      A                      A                      A
 Frequencies --    635.1323               735.5147               750.2883
 Red. masses --      3.9087                 3.1648                 2.5258
 Frc consts  --      0.9290                 1.0088                 0.8377
 IR Inten    --      0.4189                10.8284                36.5566

                     28                     29                     30
                      A                      A                      A
 Frequencies --    766.8102               806.7851               819.6240
 Red. masses --      3.2059                 1.2962                 2.6110
 Frc consts  --      1.1106                 0.4971                 1.0334
 IR Inten    --     27.9696                17.3722                27.6111

                     31                     32                     33
                      A                      A                      A
 Frequencies --    836.5471               859.9962               891.8776
 Red. masses --      1.1565                 4.0328                 1.5736
 Frc consts  --      0.4768                 1.7573                 0.7375
 IR Inten    --      2.1716                 1.7535                46.3588

                     34                     35                     36
                      A                      A                      A
 Frequencies --    925.3811               954.9206               974.2264
 Red. masses --      1.9339                 1.3379                 1.5164
 Frc consts  --      0.9757                 0.7188                 0.8480
 IR Inten    --     30.2832                 0.1888                 5.0905

                     37                     38                     39
                      A                      A                      A
 Frequencies --    993.0422              1006.7154              1021.9175
 Red. masses --      1.6251                 2.3330                 1.5464
 Frc consts  --      0.9442                 1.3931                 0.9515
 IR Inten    --      5.5372                21.0451                 5.6632

                     40                     41                     42
                      A                      A                      A
 Frequencies --   1074.1694              1085.1447              1092.2540
 Red. masses --      1.5808                 2.1334                 2.6397
 Frc consts  --      1.0747                 1.4802                 1.8555
 IR Inten    --      0.6998                10.6810                13.9229

                     43                     44                     45
                      A                      A                      A
 Frequencies --   1099.4429              1105.3850              1121.9746
 Red. masses --      2.4179                 1.5618                 2.1455
 Frc consts  --      1.7220                 1.1244                 1.5913
 IR Inten    --      4.1041                13.3399                 5.6542

                     46                     47                     48
                      A                      A                      A
 Frequencies --   1141.7215              1143.0870              1171.9331
 Red. masses --      1.5819                 2.3327                 2.0696
 Frc consts  --      1.2149                 1.7958                 1.6747
 IR Inten    --     15.3418                38.6141                10.0841

                     49                     50                     51
                      A                      A                      A
 Frequencies --   1191.6607              1200.8463              1207.0023
 Red. masses --      1.6177                 2.0723                 1.6982
 Frc consts  --      1.3535                 1.7607                 1.4577
 IR Inten    --      5.5952                 2.3989                 4.4343

                     52                     53                     54
                      A                      A                      A
 Frequencies --   1255.3223              1262.9901              1286.2234
 Red. masses --      1.2425                 2.5329                 1.8680
 Frc consts  --      1.1536                 2.3805                 1.8208
 IR Inten    --     10.7050                 1.5657                19.3742

                     55                     56                     57
                      A                      A                      A
 Frequencies --   1306.7938              1313.1869              1332.6929
 Red. masses --      4.0670                 1.6991                 1.4567
 Frc consts  --      4.0920                 1.7263                 1.5243
 IR Inten    --      5.9478                 4.2704                 9.4283

                     58                     59                     60
                      A                      A                      A
 Frequencies --   1337.7476              1378.6531              1391.4738
 Red. masses --      1.2600                 1.4779                 1.3914
 Frc consts  --      1.3285                 1.6550                 1.5873
 IR Inten    --     10.0132                10.0323                17.4792

                     61                     62                     63
                      A                      A                      A
 Frequencies --   1404.0335              1422.9517              1429.0774
 Red. masses --      1.2657                 1.2918                 1.3486
 Frc consts  --      1.4700                 1.5410                 1.6227
 IR Inten    --     12.3601                 5.7702                 6.1063

                     64                     65                     66
                      A                      A                      A
 Frequencies --   1446.2836              1446.6987              1470.3143
 Red. masses --      1.3419                 1.2429                 2.1539
 Frc consts  --      1.6538                 1.5327                 2.7434
 IR Inten    --     23.5461                 1.7651                29.3997

                     67                     68                     69
                      A                      A                      A
 Frequencies --   1483.3679              1499.5621              1503.0876
 Red. masses --      1.1637                 2.0958                 1.1567
 Frc consts  --      1.5087                 2.7767                 1.5397
 IR Inten    --      1.9484                 9.5096                 1.7835

                     70                     71                     72
                      A                      A                      A
 Frequencies --   1505.0114              1513.6323              1516.3773
 Red. masses --      1.1000                 1.0683                 1.0596
 Frc consts  --      1.4680                 1.4421                 1.4355
 IR Inten    --      8.0817                 4.6013                 9.1539

                     73                     74                     75
                      A                      A                      A
 Frequencies --   1525.1657              1528.3924              1532.1144
 Red. masses --      1.0713                 1.1313                 1.1113
 Frc consts  --      1.4682                 1.5571                 1.5369
 IR Inten    --      1.1017                 7.4850                 2.8434

                     76                     77                     78
                      A                      A                      A
 Frequencies --   1541.3076              1548.3172              1554.4839
 Red. masses --      1.1125                 1.0749                 1.0633
 Frc consts  --      1.5572                 1.5182                 1.5139
 IR Inten    --     36.9654                 9.2546                 2.0111

                     79                     80                     81
                      A                      A                      A
 Frequencies --   1574.3460              1630.5113              1651.2993
 Red. masses --      1.0944                 5.8509                 5.7744
 Frc consts  --      1.5982                 9.1648                 9.2771
 IR Inten    --      3.9807                17.5658                13.5600

                     82                     83                     84
                      A                      A                      A
 Frequencies --   2930.7614              2961.3578              2987.5861
 Red. masses --      1.0745                 1.0590                 1.0653
 Frc consts  --      5.4378                 5.4716                 5.6021
 IR Inten    --     64.8695                66.8941                62.9693

                     85                     86                     87
                      A                      A                      A
 Frequencies --   3012.2342              3031.5416              3033.8198
 Red. masses --      1.0701                 1.0816                 1.0861
 Frc consts  --      5.7207                 5.8567                 5.8897
 IR Inten    --     40.4107                 7.7307                61.1260

                     88                     89                     90
                      A                      A                      A
 Frequencies --   3043.9036              3045.4759              3055.8667
 Red. masses --      1.0380                 1.0797                 1.0371
 Frc consts  --      5.6667                 5.9001                 5.7062
 IR Inten    --     17.6579                75.4429                25.8311

                     91                     92                     93
                      A                      A                      A
 Frequencies --   3060.4504              3077.0209              3095.3667
 Red. masses --      1.0742                 1.0916                 1.1003
 Frc consts  --      5.9280                 6.0896                 6.2115
 IR Inten    --     66.8217                24.8563                14.7377

                     94                     95                     96
                      A                      A                      A
 Frequencies --   3104.6002              3109.5257              3121.8591
 Red. masses --      1.1020                 1.0959                 1.1020
 Frc consts  --      6.2580                 6.2430                 6.3279
 IR Inten    --     28.7633                39.2836                30.0789

                     97                     98                     99
                      A                      A                      A
 Frequencies --   3127.6957              3135.9281              3174.6389
 Red. masses --      1.1011                 1.1021                 1.0884
 Frc consts  --      6.3463                 6.3855                 6.4627
 IR Inten    --     20.3908                23.3821                12.7801

                    100                    101                    102
                      A                      A                      A
 Frequencies --   3181.9167              3213.7328              3520.8968
 Red. masses --      1.0903                 1.0961                 1.0716
 Frc consts  --      6.5036                 6.6699                 7.8268
 IR Inten    --     24.4536                23.4291                 5.4401

 - Thermochemistry -
 -------------------
 Temperature   298.150 Kelvin.  Pressure   1.00000 Atm.
 Atom     1 has atomic number  6 and mass  12.00000

 Molecular mass:   207.17355 amu.
 Principal axes and moments of inertia in atomic units:
                           1         2         3
     Eigenvalues --  1743.960395476.082786176.60609
           X            0.99988   0.01354  -0.00779
           Y           -0.01351   0.99990   0.00483
           Z            0.00786  -0.00473   0.99996
 This molecule is an asymmetric top.
 Rotational symmetry number  1.
 Warning -- assumption of classical behavior for rotation
           may cause significant error
 Rotational temperatures (Kelvin)      0.04967     0.01582     0.01402
 Rotational constants (GHZ):           1.03485     0.32957     0.29219
 Zero-point vibrational energy     849432.6 (Joules/Mol)
                                  203.01927 (Kcal/Mol)
 Warning -- explicit consideration of  24 degrees of freedom as
           vibrations may cause significant error
 Vibrational temperatures:     31.23    42.94    58.97   114.97   151.49
          (Kelvin)            220.09   234.82   250.47   319.65   339.33
                              350.34   377.82   389.61   405.68   426.88
                              480.69   549.49   632.80   648.50   692.02
                              701.65   738.52   769.91   831.40   913.81
                             1058.24  1079.50  1103.27  1160.78  1179.26
                             1203.60  1237.34  1283.21  1331.42  1373.92
                             1401.69  1428.77  1448.44  1470.31  1545.49
                             1561.28  1571.51  1581.85  1590.40  1614.27
                             1642.68  1644.65  1686.15  1714.53  1727.75
                             1736.61  1806.13  1817.16  1850.59  1880.18
                             1889.38  1917.45  1924.72  1983.57  2002.02
                             2020.09  2047.31  2056.12  2080.88  2081.48
                             2115.45  2134.24  2157.54  2162.61  2165.38
                             2177.78  2181.73  2194.37  2199.02  2204.37
                             2217.60  2227.68  2236.56  2265.13  2345.94
                             2375.85  4216.71  4260.73  4298.47  4333.93
                             4361.71  4364.99  4379.50  4381.76  4396.71
                             4403.31  4427.15  4453.54  4466.83  4473.91
                             4491.66  4500.06  4511.90  4567.60  4578.07
                             4623.84  5065.79

 Zero-point correction=                           0.323532 (Hartree/Particle)
 Thermal correction to Energy=                    0.339437
 Thermal correction to Enthalpy=                  0.340381
 Thermal correction to Gibbs Free Energy=         0.279021
 Sum of electronic and zero-point Energies=           -633.899633
 Sum of electronic and thermal Energies=              -633.883728
 Sum of electronic and thermal Enthalpies=            -633.882784
 Sum of electronic and thermal Free Energies=         -633.944144

                     E (Thermal)             CV                S
                      KCal/Mol        Cal/Mol-Kelvin    Cal/Mol-Kelvin
 Total                  213.000             59.944            129.142
 Electronic               0.000              0.000              0.000
 Translational            0.889              2.981             41.889
 Rotational               0.889              2.981             32.445
 Vibrational            211.222             53.982             54.808
 Vibration     1          0.593              1.985              6.472
 Vibration     2          0.594              1.984              5.840
 Vibration     3          0.594              1.981              5.211
 Vibration     4          0.600              1.963              3.893
 Vibration     5          0.605              1.945              3.354
 Vibration     6          0.619              1.899              2.635
 Vibration     7          0.623              1.888              2.512
 Vibration     8          0.627              1.874              2.391
 Vibration     9          0.648              1.807              1.941
 Vibration    10          0.655              1.786              1.834
 Vibration    11          0.659              1.774              1.777
 Vibration    12          0.670              1.741              1.644
 Vibration    13          0.674              1.727              1.591
 Vibration    14          0.681              1.707              1.522
 Vibration    15          0.690              1.680              1.435
 Vibration    16          0.716              1.607              1.240
 Vibration    17          0.751              1.509              1.032
 Vibration    18          0.800              1.383              0.827
 Vibration    19          0.810              1.359              0.794
 Vibration    20          0.837              1.292              0.707
 Vibration    21          0.844              1.277              0.690
 Vibration    22          0.868              1.221              0.626
 Vibration    23          0.890              1.172              0.576
 Vibration    24          0.934              1.079              0.489

                           ! Non-Optimized Parameters !
 Normal termination of Gaussian 16 at Thu Dec 10 15:44:43 2020.

 ----------------------------------------------------------------------
 # B3LYP/6-311++G(d,p) empiricaldispersion=gd3bj scf=xqc pop=npa geom=c
 heck
 ----------------------------------------------------------------------

 ---------------------------------------
 CID_112650153_JID_5312_Energie_neutraal
 ---------------------------------------
 Structure from the checkpoint file:  "JID_5312.chk"
 Charge =  0 Multiplicity = 1

 SCF Done:  E(RB3LYP) =  -634.395815288     A.U. after   14 cycles
 Normal termination of Gaussian 16 at Thu Dec 10 15:50:07 2020.

 ----------------------------------------------------------------------
 # B3LYP/6-311++G(d,p) empiricaldispersion=gd3bj scf=xqc pop=npa geom=c
 heck
 ----------------------------------------------------------------------

 -------------------------------------
 CID_112650153_JID_5312_Energie_kation
 -------------------------------------
 Structure from the checkpoint file:  "JID_5312.chk"
 Charge =  1 Multiplicity = 2

 SCF Done:  E(UB3LYP) =  -634.123379574     A.U. after   27 cycles
 Normal termination of Gaussian 16 at Thu Dec 10 16:06:06 2020.
 Gaussian 16:  ES64L-G16RevA.03 25-Dec-2016

 ----------------------------------------------------------------------
 # B3LYP/6-311++G(d,p) empiricaldispersion=gd3bj scf=xqc pop=npa geom=c
 heck
 ----------------------------------------------------------------------

 ------------------------------------
 CID_112650153_JID_5312_Energie_anion
 ------------------------------------
 Structure from the checkpoint file:  "JID_5312.chk"
 Charge = -1 Multiplicity = 2

                         Standard orientation:
 ---------------------------------------------------------------------
 Center     Atomic      Atomic             Coordinates (Angstroms)
 Number     Number       Type             X           Y           Z
 ---------------------------------------------------------------------
      1          6           0        3.632451   -0.395142   -1.677050
      2          6           0        3.014705    0.712801   -0.826707
      3          7           0        3.052438    0.448212    0.611315
      4          6           0        2.507878    1.566315    1.362304
      5          6           0        2.577333   -0.851974    1.082933
      6          6           0        1.071798   -1.154458    1.015193
      7          7           0        0.620106   -1.450496   -0.349288
      8          6           0       -0.822061   -1.625168   -0.424214
      9          6           0       -1.634713   -0.338768   -0.284544
     10          6           0       -3.008258   -0.364284    0.030273
     11          6           0       -3.671191    0.861348    0.105737
     12          6           0       -2.977210    2.047362   -0.129600
     13          6           0       -1.624524    1.960831   -0.442335
     14          7           0       -0.967846    0.797909   -0.520526
     15          6           0       -3.735043   -1.662943    0.272529
     16          1           0        4.631450   -0.649516   -1.306375
     17          1           0        3.726919   -0.055394   -2.714260
     18          1           0        3.019764   -1.301530   -1.676862
     19          1           0        3.586450    1.637927   -0.984261
     20          1           0        1.990723    0.936211   -1.185259
     21          1           0        1.443534    1.774795    1.147798
     22          1           0        2.607458    1.373426    2.436641
     23          1           0        3.077844    2.473547    1.127100
     24          1           0        3.113848   -1.638690    0.544015
     25          1           0        2.880508   -0.927344    2.135918
     26          1           0        0.880098   -2.049403    1.624064
     27          1           0        0.507839   -0.328911    1.481089
     28          1           0        0.836980   -0.641999   -0.927826
     29          1           0       -1.075144   -2.087451   -1.390873
     30          1           0       -1.128001   -2.346984    0.342387
     31          1           0       -4.730785    0.884149    0.349956
     32          1           0       -3.472947    3.011413   -0.073268
     33          1           0       -1.037443    2.855740   -0.639186
     34          1           0       -3.652386   -2.339576   -0.586528
     35          1           0       -3.328000   -2.198714    1.139178
     36          1           0       -4.798583   -1.486587    0.458927
 ---------------------------------------------------------------------

 SCF Done:  E(UB3LYP) =  -634.382926999     A.U. after   33 cycles
 SCF Done:  E(UB3LYP) =  -634.382926999     a.u. after    1 cycles

 The electronic state is 2-A.
 Alpha  occ. eigenvalues --  -14.20803 -14.19773 -14.19235 -10.10156 -10.10022
 Alpha  occ. eigenvalues --  -10.09705 -10.09624 -10.09341 -10.09011 -10.08744
 Alpha  occ. eigenvalues --  -10.08160 -10.07449 -10.07096 -10.07082 -10.06730
 Alpha  occ. eigenvalues --   -0.84269  -0.82939  -0.79725  -0.70763  -0.67830
 Alpha  occ. eigenvalues --   -0.66500  -0.63997  -0.59990  -0.57835  -0.56204
 Alpha  occ. eigenvalues --   -0.53227  -0.50241  -0.49461  -0.46710  -0.41480
 Alpha  occ. eigenvalues --   -0.39798  -0.39518  -0.38118  -0.37475  -0.35537
 Alpha  occ. eigenvalues --   -0.34779  -0.33800  -0.33159  -0.32294  -0.31542
 Alpha  occ. eigenvalues --   -0.30230  -0.29867  -0.29497  -0.29094  -0.27961
 Alpha  occ. eigenvalues --   -0.27257  -0.27033  -0.26620  -0.26352  -0.25513
 Alpha  occ. eigenvalues --   -0.24942  -0.24427  -0.17872  -0.15588  -0.14600
 Alpha  occ. eigenvalues --   -0.13102  -0.11551   0.04444
 Alpha virt. eigenvalues --    0.06292   0.06834   0.07007   0.07303   0.08121
 Alpha virt. eigenvalues --    0.08380   0.08807   0.09461   0.09733   0.10181
 Alpha virt. eigenvalues --    0.10339   0.10630   0.11451   0.12170   0.12788

  Beta  occ. eigenvalues --  -14.20802 -14.19671 -14.19232 -10.10124 -10.10015
  Beta  occ. eigenvalues --  -10.09691 -10.09619 -10.09331 -10.09000 -10.08736
  Beta  occ. eigenvalues --  -10.08163 -10.07348 -10.07080 -10.07076 -10.06691
  Beta  occ. eigenvalues --   -0.84153  -0.82916  -0.79701  -0.70644  -0.67752
  Beta  occ. eigenvalues --   -0.66481  -0.63970  -0.59918  -0.57774  -0.56165
  Beta  occ. eigenvalues --   -0.53180  -0.50148  -0.49352  -0.46689  -0.41427
  Beta  occ. eigenvalues --   -0.39772  -0.39476  -0.38075  -0.37445  -0.35514
  Beta  occ. eigenvalues --   -0.34716  -0.33734  -0.33125  -0.32250  -0.31501
  Beta  occ. eigenvalues --   -0.30203  -0.29825  -0.29434  -0.29016  -0.27798
  Beta  occ. eigenvalues --   -0.27216  -0.27008  -0.26569  -0.26334  -0.25480
  Beta  occ. eigenvalues --   -0.24898  -0.24402  -0.17422  -0.15468  -0.14417
  Beta  occ. eigenvalues --   -0.13083  -0.11543
  Beta virt. eigenvalues --    0.06242   0.07110   0.07408   0.07473   0.07748
  Beta virt. eigenvalues --    0.08526   0.08715   0.09156   0.09666   0.09831
  Beta virt. eigenvalues --    0.10370   0.10725   0.10976   0.11592   0.12348

 Mulliken charges and spin densities:
               1          2
     1  C   -0.187062  -0.317174
     2  C   -0.391640   0.065950
     3  N    0.059999   0.065341
     4  C   -0.013263  -0.331665
     5  C   -0.060733  -0.572193
     6  C   -0.393447   0.196728
     7  N    0.151275   0.001136
     8  C    0.361701  -1.476909
     9  C   -2.448600   1.878195
    10  C   -2.933369   4.519056
    11  C    1.921726  -3.072928
    12  C    0.820553  -0.850591
    13  C    0.986250  -0.983527
    14  N    0.023695   0.141180
    15  C    2.607666  -3.041782
    16  H    0.100407   0.041164
    17  H    0.032976   0.094494
    18  H    0.110635   0.041992
    19  H    0.001091   0.134176
    20  H    0.187305  -0.037844
    21  H    0.060473   0.087706
    22  H   -0.097042   0.224302
    23  H   -0.006646   0.128445
    24  H    0.177454  -0.020411
    25  H    0.070922   0.095867
    26  H   -0.170475   0.312600
    27  H    0.167413  -0.079088
    28  H    0.244673   0.069109
    29  H   -0.141230   0.337486
    30  H    0.229501  -0.083237
    31  H   -0.673090   0.812050
    32  H   -0.672305   0.847956
    33  H   -0.120914   0.277410
    34  H   -0.115151   0.282384
    35  H   -0.173170   0.334087
    36  H   -0.717576   0.878537
 Sum of Mulliken charges =  -1.00000   1.00000

 Dipole moment (field-independent basis, Debye):
    X=              8.3052    Y=             -0.6258    Z=             -0.4608  Tot=              8.3415
 Quadrupole moment (field-independent basis, Debye-Ang):
   XX=           -191.1203   YY=           -138.9070   ZZ=           -122.9016
   XY=             -0.8325   XZ=             -0.6684   YZ=             -3.0490

 Summary of Natural Population Analysis:

                                       Natural Population
                Natural  -----------------------------------------------
    Atom  No    Charge         Core      Valence    Rydberg      Total
 -----------------------------------------------------------------------
      C    1   -0.29553      0.99966     2.29153    0.00434     3.29553
      C    2   -0.08757      0.99963     2.07703    0.01092     3.08757
      N    3   -0.28354      0.99973     2.77023    0.01358     3.78354
      C    4   -0.17956      0.99965     2.17152    0.00839     3.17956
      C    5   -0.08830      0.99960     2.07564    0.01306     3.08830
      C    6   -0.09915      0.99962     2.08948    0.01005     3.09915
      N    7   -0.34692      0.99975     2.83587    0.01129     3.84692
      C    8   -0.10069      0.99960     2.08908    0.01202     3.10069
      C    9    0.10966      0.99948     1.87681    0.01404     2.89034
      C   10   -0.03496      0.99947     2.02536    0.01013     3.03496
      C   11   -0.06473      0.99951     2.05453    0.01069     3.06473
      C   12   -0.12220      0.99956     2.11270    0.00994     3.12220
      C   13    0.02733      0.99957     1.95824    0.01486     2.97267
      N   14   -0.24299      0.99967     2.73115    0.01217     3.74299
      C   15   -0.29446      0.99964     2.28880    0.00602     3.29446
      H   16    0.09671      0.00000     0.40200    0.00129     0.40329
      H   17    0.09866      0.00000     0.40060    0.00073     0.40134
      H   18    0.10503      0.00000     0.39364    0.00133     0.39497
      H   19    0.09014      0.00000     0.40856    0.00130     0.40986
      H   20    0.08502      0.00000     0.41319    0.00179     0.41498
      H   21    0.08967      0.00000     0.40887    0.00146     0.41033
      H   22    0.09277      0.00000     0.40638    0.00085     0.40723
      H   23    0.09148      0.00000     0.40750    0.00102     0.40852
      H   24    0.09675      0.00000     0.40186    0.00139     0.40325
      H   25    0.09328      0.00000     0.40582    0.00090     0.40672
      H   26    0.08924      0.00000     0.40927    0.00149     0.41076
      H   27    0.08684      0.00000     0.41146    0.00169     0.41316
      H   28    0.18094      0.00000     0.31461    0.00445     0.31906
      H   29    0.10134      0.00000     0.39746    0.00120     0.39866
      H   30    0.09714      0.00000     0.40131    0.00155     0.40286
      H   31    0.10182      0.00000     0.39609    0.00209     0.39818
      H   32    0.10348      0.00000     0.39505    0.00147     0.39652
      H   33    0.08790      0.00000     0.41086    0.00123     0.41210
      H   34    0.10546      0.00000     0.39295    0.00159     0.39454
      H   35    0.10356      0.00000     0.39522    0.00123     0.39644
      H   36    0.10636      0.00000     0.39191    0.00173     0.39364
 =======================================================================
   * Total *    0.00000     14.99413    41.81258    0.19328    57.00000

 Normal termination of Gaussian 16 at Thu Dec 10 16:26:28 2020.
