 Gaussian 16, Revision A.03,

 -----------------------------------------------------------
 # opt freq B3LYP/6-31G(d) empiricaldispersion=gd3bj scf=xqc
 -----------------------------------------------------------

 -------------------------------
 CID_102567989_JID_3320_neutraal
 -------------------------------
 Symbolic Z-matrix:
 Charge =  0 Multiplicity = 1

 SCF Done:  E(RB3LYP) =  -608.680736453     A.U. after   15 cycles
 SCF Done:  E(RB3LYP) =  -608.683316995     A.U. after   15 cycles
 SCF Done:  E(RB3LYP) =  -608.685186486     A.U. after   12 cycles
 SCF Done:  E(RB3LYP) =  -608.685498458     A.U. after   13 cycles
 SCF Done:  E(RB3LYP) =  -608.685572047     A.U. after   13 cycles
 SCF Done:  E(RB3LYP) =  -608.685641822     A.U. after   11 cycles
 SCF Done:  E(RB3LYP) =  -608.685637894     A.U. after   12 cycles
 SCF Done:  E(RB3LYP) =  -608.685663084     A.U. after   10 cycles
 SCF Done:  E(RB3LYP) =  -608.685669934     A.U. after   10 cycles
 SCF Done:  E(RB3LYP) =  -608.685683580     A.U. after   12 cycles
 SCF Done:  E(RB3LYP) =  -608.685691190     A.U. after    9 cycles
 SCF Done:  E(RB3LYP) =  -608.685691735     A.U. after   10 cycles
 SCF Done:  E(RB3LYP) =  -608.685691466     A.U. after    8 cycles
 SCF Done:  E(RB3LYP) =  -608.685691490     A.U. after    7 cycles
 SCF Done:  E(RB3LYP) =  -608.685691779     A.U. after    9 cycles
 SCF Done:  E(RB3LYP) =  -608.685691499     A.U. after   10 cycles
 Optimization completed.
    -- Stationary point found.
 Normal termination of Gaussian 16 at Wed Dec  9 22:59:55 2020.

 --------------------------------------------------------------------
 #N Geom=AllCheck Guess=TCheck SCRF=Check GenChk RB3LYP/6-31G(d) Freq
 --------------------------------------------------------------------

 Structure from the checkpoint file:  "JID_3320.chk"
 -------------------------------
 CID_102567989_JID_3320_neutraal
 -------------------------------
 Charge =  0 Multiplicity = 1

 SCF Done:  E(RB3LYP) =  -608.685691499     A.U. after    1 cycles

  Exact polarizability: 133.538  13.447 108.067  -1.871  -4.519  90.558
 Approx polarizability: 202.152  38.762 164.461 -17.024 -18.907 142.676

                      1                      2                      3
                      A                      A                      A
 Frequencies --     25.4170                46.1704                88.5415
 Red. masses --      5.9577                 4.6022                 3.4731
 Frc consts  --      0.0023                 0.0058                 0.0160
 IR Inten    --      0.1566                 0.9209                 0.3185

                      4                      5                      6
                      A                      A                      A
 Frequencies --    112.7088               149.1915               202.0689
 Red. masses --      2.6678                 3.3736                 1.8887
 Frc consts  --      0.0200                 0.0442                 0.0454
 IR Inten    --      1.3069                 0.5898                 0.8075

                      7                      8                      9
                      A                      A                      A
 Frequencies --    228.7984               241.4344               279.8265
 Red. masses --      3.1091                 4.0701                 1.9422
 Frc consts  --      0.0959                 0.1398                 0.0896
 IR Inten    --      1.1423                 2.8160                 1.0768

                     10                     11                     12
                      A                      A                      A
 Frequencies --    283.2859               314.9995               335.3620
 Red. masses --      2.8485                 2.4274                 2.2443
 Frc consts  --      0.1347                 0.1419                 0.1487
 IR Inten    --      5.2367                 0.8130                 1.2308

                     13                     14                     15
                      A                      A                      A
 Frequencies --    397.7355               420.6117               439.7359
 Red. masses --      2.6683                 1.5018                 2.1970
 Frc consts  --      0.2487                 0.1565                 0.2503
 IR Inten    --      1.3726                52.9392                54.7376

                     16                     17                     18
                      A                      A                      A
 Frequencies --    449.5693               474.1954               500.7023
 Red. masses --      1.7667                 2.9438                 2.4460
 Frc consts  --      0.2104                 0.3900                 0.3613
 IR Inten    --     14.1676                17.4401                 6.7391

                     19                     20                     21
                      A                      A                      A
 Frequencies --    544.1226               565.8876               601.7465
 Red. masses --      3.6409                12.8670                 2.1584
 Frc consts  --      0.6351                 2.4277                 0.4605
 IR Inten    --      3.5456                10.0509                 4.7237

                     22                     23                     24
                      A                      A                      A
 Frequencies --    658.0797               764.3327               787.4701
 Red. masses --      7.3006                 2.8497                 2.6915
 Frc consts  --      1.8628                 0.9809                 0.9834
 IR Inten    --      6.0611                 4.2085                 3.8640

                     25                     26                     27
                      A                      A                      A
 Frequencies --    815.9561               872.0518               884.2088
 Red. masses --      1.1344                 2.4668                 1.5292
 Frc consts  --      0.4450                 1.1053                 0.7044
 IR Inten    --      2.3962                 6.5064                 6.3345

                     28                     29                     30
                      A                      A                      A
 Frequencies --    898.9046               917.3946               958.1325
 Red. masses --      2.0097                 3.2203                 3.3660
 Frc consts  --      0.9568                 1.5968                 1.8206
 IR Inten    --      8.4596                 8.1938                35.8193

                     31                     32                     33
                      A                      A                      A
 Frequencies --    981.1541              1013.6661              1028.4211
 Red. masses --      2.2352                 2.3301                 1.8231
 Frc consts  --      1.2678                 1.4107                 1.1361
 IR Inten    --      2.4710                10.8177                10.1353

                     34                     35                     36
                      A                      A                      A
 Frequencies --   1046.7411              1094.1525              1104.8595
 Red. masses --      1.8188                 2.3979                 2.2000
 Frc consts  --      1.1741                 1.6914                 1.5823
 IR Inten    --      6.3361                 1.9548                23.9955

                     37                     38                     39
                      A                      A                      A
 Frequencies --   1129.8927              1140.3094              1145.6767
 Red. masses --      2.4806                 2.1319                 1.7936
 Frc consts  --      1.8659                 1.6333                 1.3871
 IR Inten    --    103.9428                 7.5646                13.4153

                     40                     41                     42
                      A                      A                      A
 Frequencies --   1197.5147              1225.7786              1236.1936
 Red. masses --      1.3728                 2.1506                 1.4227
 Frc consts  --      1.1599                 1.9039                 1.2809
 IR Inten    --      9.2655                 6.9800                 3.2434

                     43                     44                     45
                      A                      A                      A
 Frequencies --   1261.4830              1291.2164              1331.8368
 Red. masses --      1.7191                 1.3411                 1.6787
 Frc consts  --      1.6118                 1.3174                 1.7544
 IR Inten    --     26.1797                11.7643                12.9189

                     46                     47                     48
                      A                      A                      A
 Frequencies --   1345.9952              1348.4524              1361.9184
 Red. masses --      1.2512                 1.2647                 1.2813
 Frc consts  --      1.3355                 1.3549                 1.4003
 IR Inten    --     19.9485                97.1230                 8.5320

                     49                     50                     51
                      A                      A                      A
 Frequencies --   1374.4026              1380.6674              1404.8448
 Red. masses --      3.5568                 1.5271                 1.6080
 Frc consts  --      3.9586                 1.7151                 1.8698
 IR Inten    --     70.7971                 0.4370                14.6530

                     52                     53                     54
                      A                      A                      A
 Frequencies --   1407.3614              1408.2584              1423.5310
 Red. masses --      1.4959                 1.2883                 1.3009
 Frc consts  --      1.7457                 1.5053                 1.5532
 IR Inten    --     10.7205                 8.0639                 6.0909

                     55                     56                     57
                      A                      A                      A
 Frequencies --   1443.2156              1447.0281              1502.8558
 Red. masses --      1.3824                 1.5502                 1.0775
 Frc consts  --      1.6964                 1.9125                 1.4339
 IR Inten    --     35.1220                25.3202                 3.4087

                     58                     59                     60
                      A                      A                      A
 Frequencies --   1504.8349              1510.8918              1518.9881
 Red. masses --      1.0775                 1.0950                 1.0816
 Frc consts  --      1.4376                 1.4728                 1.4704
 IR Inten    --     12.0653                12.2438                 4.7087

                     61                     62                     63
                      A                      A                      A
 Frequencies --   1524.7641              1530.6362              1531.8273
 Red. masses --      1.0686                 1.0487                 1.0825
 Frc consts  --      1.4638                 1.4476                 1.4966
 IR Inten    --      6.5208                 1.7204                 6.2759

                     64                     65                     66
                      A                      A                      A
 Frequencies --   1553.1307              2269.1149              2937.2179
 Red. masses --      1.0917                13.5869                 1.0729
 Frc consts  --      1.5516                41.2178                 5.4535
 IR Inten    --      2.4870               513.6007                91.9024

                     67                     68                     69
                      A                      A                      A
 Frequencies --   3012.1240              3040.6205              3041.9238
 Red. masses --      1.0698                 1.0621                 1.0666
 Frc consts  --      5.7185                 5.7853                 5.8149
 IR Inten    --     37.8250                19.5865                26.6853

                     70                     71                     72
                      A                      A                      A
 Frequencies --   3047.8014              3062.0095              3065.2542
 Red. masses --      1.0631                 1.0369                 1.0853
 Frc consts  --      5.8185                 5.7281                 6.0079
 IR Inten    --     31.5505                16.6228                16.4538

                     73                     74                     75
                      A                      A                      A
 Frequencies --   3066.3701              3078.6551              3088.6735
 Red. masses --      1.0619                 1.0990                 1.1003
 Frc consts  --      5.8826                 6.1373                 6.1847
 IR Inten    --     23.7234                53.4797                54.1066

                     76                     77                     78
                      A                      A                      A
 Frequencies --   3093.5640              3117.1587              3130.4381
 Red. masses --      1.0988                 1.0964                 1.1014
 Frc consts  --      6.1954                 6.2765                 6.3593
 IR Inten    --     43.5706                25.6021                 7.8087

                     79                     80                     81
                      A                      A                      A
 Frequencies --   3130.7438              3137.7763              3705.1837
 Red. masses --      1.1025                 1.1030                 1.0655
 Frc consts  --      6.3671                 6.3986                 8.6181
 IR Inten    --     45.2966                32.8360                21.5344

 - Thermochemistry -
 -------------------
 Temperature   298.150 Kelvin.  Pressure   1.00000 Atm.
 Atom     1 has atomic number  6 and mass  12.00000

 Molecular mass:   184.13241 amu.
 Principal axes and moments of inertia in atomic units:
                           1         2         3
     Eigenvalues --  1812.101932512.934863557.90229
           X            0.99884   0.04315   0.02151
           Y           -0.04340   0.99899   0.01150
           Z           -0.02099  -0.01243   0.99970
 This molecule is an asymmetric top.
 Rotational symmetry number  1.
 Warning -- assumption of classical behavior for rotation
           may cause significant error
 Rotational temperatures (Kelvin)      0.04780     0.03447     0.02434
 Rotational constants (GHZ):           0.99594     0.71818     0.50725
 Zero-point vibrational energy     664141.4 (Joules/Mol)
                                  158.73361 (Kcal/Mol)
 Warning -- explicit consideration of  21 degrees of freedom as
           vibrations may cause significant error
 Vibrational temperatures:     36.57    66.43   127.39   162.16   214.65
          (Kelvin)            290.73   329.19   347.37   402.61   407.59
                              453.21   482.51   572.25   605.17   632.68
                              646.83   682.26   720.40   782.87   814.19
                              865.78   946.83  1099.70  1132.99  1173.98
                             1254.69  1272.18  1293.32  1319.93  1378.54
                             1411.66  1458.44  1479.67  1506.03  1574.24
                             1589.65  1625.66  1640.65  1648.37  1722.96
                             1763.62  1778.61  1814.99  1857.77  1916.22
                             1936.59  1940.12  1959.50  1977.46  1986.47
                             2021.26  2024.88  2026.17  2048.14  2076.47
                             2081.95  2162.27  2165.12  2173.84  2185.49
                             2193.80  2202.24  2203.96  2234.61  3264.75
                             4226.00  4333.77  4374.77  4376.65  4385.11
                             4405.55  4410.22  4411.82  4429.50  4443.91
                             4450.95  4484.90  4504.00  4504.44  4514.56
                             5330.93

 Zero-point correction=                           0.252958 (Hartree/Particle)
 Thermal correction to Energy=                    0.266106
 Thermal correction to Enthalpy=                  0.267051
 Thermal correction to Gibbs Free Energy=         0.212864
 Sum of electronic and zero-point Energies=           -608.432733
 Sum of electronic and thermal Energies=              -608.419585
 Sum of electronic and thermal Enthalpies=            -608.418641
 Sum of electronic and thermal Free Energies=         -608.472827

                     E (Thermal)             CV                S
                      KCal/Mol        Cal/Mol-Kelvin    Cal/Mol-Kelvin
 Total                  166.984             50.200            114.045
 Electronic               0.000              0.000              0.000
 Translational            0.889              2.981             41.538
 Rotational               0.889              2.981             31.161
 Vibrational            165.207             44.238             41.347
 Vibration     1          0.593              1.985              6.158
 Vibration     2          0.595              1.979              4.975
 Vibration     3          0.601              1.957              3.692
 Vibration     4          0.607              1.939              3.222
 Vibration     5          0.618              1.904              2.683
 Vibration     6          0.639              1.837              2.114
 Vibration     7          0.651              1.797              1.888
 Vibration     8          0.658              1.777              1.792
 Vibration     9          0.680              1.711              1.535
 Vibration    10          0.682              1.705              1.514
 Vibration    11          0.702              1.645              1.336
 Vibration    12          0.716              1.605              1.234
 Vibration    13          0.764              1.475              0.971
 Vibration    14          0.783              1.425              0.890
 Vibration    15          0.800              1.384              0.827
 Vibration    16          0.808              1.362              0.797
 Vibration    17          0.831              1.307              0.726
 Vibration    18          0.856              1.248              0.656
 Vibration    19          0.899              1.153              0.556
 Vibration    20          0.922              1.105              0.512
 Vibration    21          0.960              1.028              0.447

 Optimization completed.
    -- Stationary point found.
 Normal termination of Gaussian 16 at Wed Dec  9 23:09:13 2020.

 ----------------------------------------------------------------------
 # B3LYP/6-311++G(d,p) empiricaldispersion=gd3bj scf=xqc pop=npa geom=c
 heck
 ----------------------------------------------------------------------

 ---------------------------------------
 CID_102567989_JID_3320_Energie_neutraal
 ---------------------------------------
 Structure from the checkpoint file:  "JID_3320.chk"
 Charge =  0 Multiplicity = 1

 SCF Done:  E(RB3LYP) =  -608.863540584     A.U. after   16 cycles
 Normal termination of Gaussian 16 at Wed Dec  9 23:13:39 2020.

 ----------------------------------------------------------------------
 # B3LYP/6-311++G(d,p) empiricaldispersion=gd3bj scf=xqc pop=npa geom=c
 heck
 ----------------------------------------------------------------------

 -------------------------------------
 CID_102567989_JID_3320_Energie_kation
 -------------------------------------
 Structure from the checkpoint file:  "JID_3320.chk"
 Charge =  1 Multiplicity = 2

 SCF Done:  E(UB3LYP) =  -608.578792626     A.U. after   26 cycles
 Normal termination of Gaussian 16 at Wed Dec  9 23:24:05 2020.
 Gaussian 16:  ES64L-G16RevA.03 25-Dec-2016

 ----------------------------------------------------------------------
 # B3LYP/6-311++G(d,p) empiricaldispersion=gd3bj scf=xqc pop=npa geom=c
 heck
 ----------------------------------------------------------------------

 ------------------------------------
 CID_102567989_JID_3320_Energie_anion
 ------------------------------------
 Structure from the checkpoint file:  "JID_3320.chk"
 Charge = -1 Multiplicity = 2

                         Standard orientation:
 ---------------------------------------------------------------------
 Center     Atomic      Atomic             Coordinates (Angstroms)
 Number     Number       Type             X           Y           Z
 ---------------------------------------------------------------------
      1          6           0        1.327375    2.499372    0.644801
      2          6           0        0.170969    2.061240   -0.253183
      3          7           0       -0.896620    1.391898    0.484969
      4          6           0       -2.184401    1.320750   -0.198258
      5          6           0       -2.302930    0.142990   -1.179449
      6          6           0       -2.019832   -1.178467   -0.451371
      7          6           0       -0.677317   -1.152199    0.287895
      8          6           0       -0.585712    0.133346    1.151691
      9          6           0        0.479883   -1.308687   -0.709960
     10          7           0        1.759304   -1.372300    0.042850
     11          7           0        2.669711   -0.654368   -0.373193
     12          7           0        3.579470   -0.030156   -0.670539
     13          8           0       -0.661793   -2.289698    1.152041
     14          1           0        2.046388    3.091191    0.068622
     15          1           0        1.874568    1.650154    1.065284
     16          1           0        0.951060    3.106459    1.474125
     17          1           0       -0.278082    2.955089   -0.701969
     18          1           0        0.575872    1.476172   -1.100698
     19          1           0       -2.966052    1.213288    0.569162
     20          1           0       -2.362926    2.273500   -0.708241
     21          1           0       -1.603600    0.283924   -2.014340
     22          1           0       -3.308696    0.118627   -1.616691
     23          1           0       -2.051412   -2.034235   -1.136698
     24          1           0       -2.794607   -1.352574    0.306213
     25          1           0        0.403927    0.192694    1.612844
     26          1           0       -1.308701   -0.010914    1.965478
     27          1           0        0.354679   -2.265001   -1.229635
     28          1           0        0.501070   -0.505880   -1.451055
     29          1           0        0.229591   -2.330489    1.539662
 ---------------------------------------------------------------------

 SCF Done:  E(UB3LYP) =  -608.855225192     A.U. after   31 cycles

 The electronic state is 2-A.
 Alpha  occ. eigenvalues --  -19.01258 -14.33145 -14.23411 -14.22955 -14.19668
 Alpha  occ. eigenvalues --  -10.11867 -10.09540 -10.09019 -10.08510 -10.08207
 Alpha  occ. eigenvalues --  -10.05909 -10.05870 -10.05684  -1.00325  -0.91988
 Alpha  occ. eigenvalues --   -0.84637  -0.82106  -0.69570  -0.65819  -0.64124
 Alpha  occ. eigenvalues --   -0.60732  -0.55231  -0.51673  -0.49189  -0.44372
 Alpha  occ. eigenvalues --   -0.42179  -0.40465  -0.39733  -0.38773  -0.37189
 Alpha  occ. eigenvalues --   -0.36161  -0.34709  -0.34288  -0.32347  -0.31851
 Alpha  occ. eigenvalues --   -0.30472  -0.29843  -0.28922  -0.27089  -0.26778
 Alpha  occ. eigenvalues --   -0.25955  -0.25095  -0.24023  -0.23322  -0.22993
 Alpha  occ. eigenvalues --   -0.21017  -0.18551  -0.17831  -0.12898  -0.10050
 Alpha  occ. eigenvalues --    0.04786
 Alpha virt. eigenvalues --    0.06803   0.07899   0.08555   0.08958   0.09948
 Alpha virt. eigenvalues --    0.10583   0.10796   0.10960   0.11588   0.12611
 Alpha virt. eigenvalues --    0.13357   0.13575   0.13832   0.14163   0.14761

  Beta  occ. eigenvalues --  -19.01238 -14.32842 -14.23026 -14.22992 -14.19669
  Beta  occ. eigenvalues --  -10.11869 -10.09440 -10.09001 -10.08492 -10.08194
  Beta  occ. eigenvalues --  -10.05880 -10.05848 -10.05676  -0.99733  -0.91947
  Beta  occ. eigenvalues --   -0.84341  -0.82093  -0.69524  -0.65729  -0.64097
  Beta  occ. eigenvalues --   -0.60578  -0.55188  -0.51602  -0.49133  -0.44241
  Beta  occ. eigenvalues --   -0.42067  -0.40306  -0.39338  -0.38449  -0.37000
  Beta  occ. eigenvalues --   -0.36006  -0.34621  -0.33776  -0.32029  -0.31421
  Beta  occ. eigenvalues --   -0.30182  -0.29653  -0.28873  -0.27063  -0.26734
  Beta  occ. eigenvalues --   -0.25911  -0.25074  -0.23989  -0.23252  -0.22951
  Beta  occ. eigenvalues --   -0.20982  -0.18169  -0.17449  -0.12795  -0.10035
  Beta virt. eigenvalues --    0.07310   0.08383   0.08612   0.09020   0.10128
  Beta virt. eigenvalues --    0.10627   0.10971   0.11130   0.11331   0.11883
  Beta virt. eigenvalues --    0.12839   0.13533   0.13693   0.14043   0.14524

 Mulliken charges and spin densities:
               1          2
     1  C    0.203039  -0.655090
     2  C   -0.210261  -0.058496
     3  N    0.068952   0.082336
     4  C   -0.066438  -0.235881
     5  C    0.377749  -0.601237
     6  C    0.645061  -0.910564
     7  C   -1.256104   1.248153
     8  C    0.327531  -0.879033
     9  C    0.709549  -1.224297
    10  N   -0.176518  -0.135039
    11  N    0.226607   0.224594
    12  N   -0.428600   0.359368
    13  O   -0.175621   0.033992
    14  H    0.090008   0.039682
    15  H   -0.058186   0.179410
    16  H    0.089554   0.050382
    17  H   -0.280864   0.425593
    18  H    0.162199  -0.096158
    19  H   -0.065457   0.201634
    20  H   -0.304363   0.459674
    21  H   -0.122225   0.252106
    22  H   -0.804303   0.999994
    23  H   -0.075451   0.232138
    24  H   -0.007013   0.185403
    25  H    0.159747  -0.023654
    26  H    0.076845   0.126363
    27  H   -0.261134   0.484548
    28  H    0.017306   0.094561
    29  H    0.138392   0.139516
 Sum of Mulliken charges =  -1.00000   1.00000

 Dipole moment (field-independent basis, Debye):
    X=              1.4581    Y=              0.7704    Z=              2.2822  Tot=              2.8157
 Quadrupole moment (field-independent basis, Debye-Ang):
   XX=           -141.2336   YY=           -119.4797   ZZ=           -107.7198
   XY=              2.2345   XZ=             -5.1637   YZ=              1.8269

 Summary of Natural Population Analysis:

                                       Natural Population
                Natural  -----------------------------------------------
    Atom  No    Charge         Core      Valence    Rydberg      Total
 -----------------------------------------------------------------------
      C    1   -0.28843      0.99966     2.28394    0.00483     3.28843
      C    2   -0.08224      0.99961     2.07155    0.01108     3.08224
      N    3   -0.28536      0.99972     2.77100    0.01464     3.78536
      C    4   -0.07976      0.99961     2.06788    0.01226     3.07976
      C    5   -0.20057      0.99962     2.19200    0.00895     3.20057
      C    6   -0.19626      0.99958     2.18500    0.01168     3.19626
      C    7    0.11948      0.99949     1.86507    0.01596     2.88052
      C    8   -0.09763      0.99954     2.08542    0.01266     3.09763
      C    9   -0.09759      0.99951     2.08631    0.01177     3.09759
      N   10   -0.22847      0.99970     2.71352    0.01525     3.72847
      N   11    0.14029      0.99970     2.34457    0.01545     3.35971
      N   12   -0.01049      0.99982     2.49762    0.01305     3.51049
      O   13   -0.37884      0.99989     3.37235    0.00660     4.37884
      H   14    0.09938      0.00000     0.39990    0.00072     0.40062
      H   15    0.09969      0.00000     0.39903    0.00128     0.40031
      H   16    0.09604      0.00000     0.40255    0.00142     0.40396
      H   17    0.09292      0.00000     0.40553    0.00155     0.40708
      H   18    0.07773      0.00000     0.42044    0.00183     0.42227
      H   19    0.08970      0.00000     0.40903    0.00127     0.41030
      H   20    0.09751      0.00000     0.40094    0.00155     0.40249
      H   21    0.09483      0.00000     0.40357    0.00160     0.40517
      H   22    0.10188      0.00000     0.39603    0.00209     0.39812
      H   23    0.10373      0.00000     0.39506    0.00121     0.39627
      H   24    0.10221      0.00000     0.39640    0.00139     0.39779
      H   25    0.10259      0.00000     0.39589    0.00152     0.39741
      H   26    0.09790      0.00000     0.40074    0.00135     0.40210
      H   27    0.09888      0.00000     0.39951    0.00162     0.40112
      H   28    0.09632      0.00000     0.40163    0.00204     0.40368
      H   29    0.23456      0.00000     0.26226    0.00318     0.26544
 =======================================================================
   * Total *   -0.00000     12.99546    36.82474    0.17980    50.00000

 Normal termination of Gaussian 16 at Wed Dec  9 23:36:29 2020.
