 Gaussian 16, Revision A.03,

 -----------------------------------------------------------
 # opt freq B3LYP/6-31G(d) empiricaldispersion=gd3bj scf=xqc
 -----------------------------------------------------------

 ------------------------------
 CID_59370285_JID_1095_neutraal
 ------------------------------
 Symbolic Z-matrix:
 Charge =  0 Multiplicity = 1

 SCF Done:  E(RB3LYP) =  -505.482979287     A.U. after   13 cycles
 SCF Done:  E(RB3LYP) =  -505.485596256     A.U. after   10 cycles
 SCF Done:  E(RB3LYP) =  -505.486001190     A.U. after   10 cycles
 SCF Done:  E(RB3LYP) =  -505.486062782     A.U. after   10 cycles
 SCF Done:  E(RB3LYP) =  -505.486082137     A.U. after    9 cycles
 SCF Done:  E(RB3LYP) =  -505.486087815     A.U. after    9 cycles
 SCF Done:  E(RB3LYP) =  -505.486089432     A.U. after    7 cycles
 SCF Done:  E(RB3LYP) =  -505.486090428     A.U. after    7 cycles
 SCF Done:  E(RB3LYP) =  -505.486090817     A.U. after    7 cycles
 SCF Done:  E(RB3LYP) =  -505.486091343     A.U. after    7 cycles
 SCF Done:  E(RB3LYP) =  -505.486092590     A.U. after    7 cycles
 SCF Done:  E(RB3LYP) =  -505.486092717     A.U. after    7 cycles
 SCF Done:  E(RB3LYP) =  -505.486092764     A.U. after    8 cycles
 SCF Done:  E(RB3LYP) =  -505.486092752     A.U. after    7 cycles
 SCF Done:  E(RB3LYP) =  -505.486092704     A.U. after    7 cycles
 SCF Done:  E(RB3LYP) =  -505.486092659     A.U. after    6 cycles
 Optimization completed.
    -- Stationary point found.

 1\1\GINC-NODE121\FOpt\RB3LYP\6-31G(d)\C9H20O2\VSC10255\08-Dec-2020\0\\
 # opt freq B3LYP/6-31G(d) empiricaldispersion=gd3bj scf=xqc\\CID_59370
 285_JID_1095_neutraal\\0,1\C,1.1777188428,0.0440891668,-0.0261631116\C
 ,0.2981919046,-0.7810904609,-0.978120461\C,0.9711034054,-2.1280966766,
 -1.284229926\C,-1.0784855504,-1.0178668532,-0.3384480135\C,0.134729951
 1,-0.0195123616,-2.305929913\O,-0.4513056592,1.261271504,-2.1216651428
 \C,-1.7696078675,1.4444069635,-2.6001967491\C,-1.8354531039,2.29383566
 19,-3.8784348815\C,-0.8588666824,1.7829370145,-4.9408673137\C,-3.27870

 Normal termination of Gaussian 16 at Tue Dec  8 19:17:42 2020.

 --------------------------------------------------------------------
 #N Geom=AllCheck Guess=TCheck SCRF=Check GenChk RB3LYP/6-31G(d) Freq
 --------------------------------------------------------------------

 Structure from the checkpoint file:  "JID_1095.chk"
 ------------------------------
 CID_59370285_JID_1095_neutraal
 ------------------------------
 Charge =  0 Multiplicity = 1

 SCF Done:  E(RB3LYP) =  -505.486092659     A.U. after    1 cycles

  Exact polarizability: 119.657   1.587  96.289  -0.024  -0.037  93.186
 Approx polarizability: 141.900   0.645 134.589   1.506  -0.529 139.183

                      1                      2                      3
                      A                      A                      A
 Frequencies --     14.0965                33.5389                53.5541
 Red. masses --      3.4828                 3.2949                 3.1227
 Frc consts  --      0.0004                 0.0022                 0.0053
 IR Inten    --      1.0906                 0.2490                 0.4717

                      4                      5                      6
                      A                      A                      A
 Frequencies --    109.3791               172.1425               222.4144
 Red. masses --      2.7424                 3.5164                 1.0468
 Frc consts  --      0.0193                 0.0614                 0.0305
 IR Inten    --      0.6341                 0.5583                 0.0935

                      7                      8                      9
                      A                      A                      A
 Frequencies --    237.6735               251.7399               254.3466
 Red. masses --      1.0685                 1.7680                 2.7418
 Frc consts  --      0.0356                 0.0660                 0.1045
 IR Inten    --      0.4087                 0.2235                11.4898

                     10                     11                     12
                      A                      A                      A
 Frequencies --    271.0860               280.3100               283.6903
 Red. masses --      1.1746                 1.1245                 1.0746
 Frc consts  --      0.0509                 0.0521                 0.0510
 IR Inten    --      1.0840                61.3015                 5.4412

                     13                     14                     15
                      A                      A                      A
 Frequencies --    288.4046               323.5851               333.9299
 Red. masses --      1.1297                 2.3836                 2.1363
 Frc consts  --      0.0554                 0.1470                 0.1404
 IR Inten    --     26.2845                 0.4640                 4.9695

                     16                     17                     18
                      A                      A                      A
 Frequencies --    372.2886               399.3649               405.6011
 Red. masses --      2.5437                 2.1929                 2.4526
 Frc consts  --      0.2077                 0.2061                 0.2377
 IR Inten    --      2.5591                 2.4479                 1.7206

                     19                     20                     21
                      A                      A                      A
 Frequencies --    409.2160               443.2929               500.4018
 Red. masses --      2.2774                 2.8141                 2.0132
 Frc consts  --      0.2247                 0.3258                 0.2970
 IR Inten    --      0.8259                 9.9185                 6.0648

                     22                     23                     24
                      A                      A                      A
 Frequencies --    510.5953               577.7449               753.4603
 Red. masses --      2.4895                 3.8508                 3.4887
 Frc consts  --      0.3824                 0.7573                 1.1669
 IR Inten    --      2.9177                11.9860                 1.3305

                     25                     26                     27
                      A                      A                      A
 Frequencies --    769.9653               907.4876               912.5386
 Red. masses --      3.7423                 1.9795                 2.2579
 Frc consts  --      1.3072                 0.9605                 1.1078
 IR Inten    --      6.4984                 2.3165                12.3804

                     28                     29                     30
                      A                      A                      A
 Frequencies --    929.9642               938.6865               941.2175
 Red. masses --      2.1464                 1.5314                 2.2995
 Frc consts  --      1.0937                 0.7950                 1.2002
 IR Inten    --     12.4216                 1.5633                 6.7313

                     31                     32                     33
                      A                      A                      A
 Frequencies --    953.6271               965.4398               974.3701
 Red. masses --      1.6066                 1.3464                 1.2614
 Frc consts  --      0.8608                 0.7394                 0.7056
 IR Inten    --      4.3950                 0.6590                 0.9587

                     34                     35                     36
                      A                      A                      A
 Frequencies --    981.1109              1021.4188              1038.7341
 Red. masses --      2.3345                 1.6491                 1.4290
 Frc consts  --      1.3240                 1.0137                 0.9084
 IR Inten    --     21.6760                11.8480                 5.7823

                     37                     38                     39
                      A                      A                      A
 Frequencies --   1063.9759              1093.7401              1154.1389
 Red. masses --      1.4805                 1.5008                 2.8727
 Frc consts  --      0.9875                 1.0578                 2.2546
 IR Inten    --      3.2642                14.6678               257.9277

                     40                     41                     42
                      A                      A                      A
 Frequencies --   1180.9169              1221.6326              1237.9876
 Red. masses --      1.6160                 3.1416                 2.5671
 Frc consts  --      1.3278                 2.7624                 2.3181
 IR Inten    --     44.2142                26.3855                45.0690

                     43                     44                     45
                      A                      A                      A
 Frequencies --   1257.5380              1265.5764              1302.3428
 Red. masses --      2.4905                 2.2004                 2.8029
 Frc consts  --      2.3204                 2.0765                 2.8010
 IR Inten    --      4.4133                20.3236                 1.6193

                     46                     47                     48
                      A                      A                      A
 Frequencies --   1340.2564              1362.5080              1390.5736
 Red. masses --      1.3774                 1.2383                 1.4007
 Frc consts  --      1.4578                 1.3544                 1.5958
 IR Inten    --     17.4221                 4.0441                24.8936

                     49                     50                     51
                      A                      A                      A
 Frequencies --   1410.1054              1422.3744              1423.7241
 Red. masses --      1.3802                 1.3167                 1.2631
 Frc consts  --      1.6170                 1.5695                 1.5085
 IR Inten    --     24.8882                10.4458                 7.9301

                     52                     53                     54
                      A                      A                      A
 Frequencies --   1425.7748              1433.7868              1449.2966
 Red. masses --      1.2544                 1.3071                 1.2573
 Frc consts  --      1.5024                 1.5831                 1.5560
 IR Inten    --      4.1518                 9.5517                15.3660

                     55                     56                     57
                      A                      A                      A
 Frequencies --   1463.5944              1501.1434              1510.2606
 Red. masses --      1.2644                 1.0783                 1.0478
 Frc consts  --      1.5958                 1.4316                 1.4081
 IR Inten    --      4.4960                 2.3413                 0.1307

                     58                     59                     60
                      A                      A                      A
 Frequencies --   1515.1861              1515.6465              1519.2812
 Red. masses --      1.0510                 1.0541                 1.0491
 Frc consts  --      1.4216                 1.4267                 1.4267
 IR Inten    --      0.5820                 0.9550                 0.2161

                     61                     62                     63
                      A                      A                      A
 Frequencies --   1521.9494              1526.9629              1529.5632
 Red. masses --      1.0460                 1.0754                 1.0613
 Frc consts  --      1.4275                 1.4774                 1.4629
 IR Inten    --      0.2185                 2.0097                 1.6404

                     64                     65                     66
                      A                      A                      A
 Frequencies --   1537.2093              1538.9863              1545.5156
 Red. masses --      1.0587                 1.0642                 1.0840
 Frc consts  --      1.4740                 1.4851                 1.5256
 IR Inten    --      4.0298                 5.4428                23.7918

                     67                     68                     69
                      A                      A                      A
 Frequencies --   1552.8172              3003.7793              3028.8384
 Red. masses --      1.0646                 1.0581                 1.0583
 Frc consts  --      1.5124                 5.6247                 5.7203
 IR Inten    --     14.4506                39.1074                12.4751

                     70                     71                     72
                      A                      A                      A
 Frequencies --   3035.7304              3039.8644              3041.4277
 Red. masses --      1.0356                 1.0370                 1.0379
 Frc consts  --      5.6229                 5.6458                 5.6569
 IR Inten    --     28.8791                39.2633                20.4890

                     73                     74                     75
                      A                      A                      A
 Frequencies --   3046.8858              3048.3244              3052.9238
 Red. masses --      1.0407                 1.0394                 1.1021
 Frc consts  --      5.6922                 5.6906                 6.0519
 IR Inten    --     26.8209                14.4956                48.4404

                     76                     77                     78
                      A                      A                      A
 Frequencies --   3086.5420              3098.7321              3101.7170
 Red. masses --      1.1038                 1.1020                 1.1003
 Frc consts  --      6.1955                 6.2346                 6.2367
 IR Inten    --     19.7747                 4.7242                 9.1190

                     79                     80                     81
                      A                      A                      A
 Frequencies --   3102.9886              3103.9262              3110.4200
 Red. masses --      1.1012                 1.1019                 1.1006
 Frc consts  --      6.2471                 6.2550                 6.2735
 IR Inten    --     48.1116                24.6793                91.5623

                     82                     83                     84
                      A                      A                      A
 Frequencies --   3111.0421              3125.2962              3125.4495
 Red. masses --      1.1010                 1.1023                 1.1011
 Frc consts  --      6.2783                 6.3435                 6.3375
 IR Inten    --     45.9332                17.7669                33.5992

                     85                     86                     87
                      A                      A                      A
 Frequencies --   3135.9205              3151.5453              3732.8295
 Red. masses --      1.1001                 1.0997                 1.0660
 Frc consts  --      6.3741                 6.4354                 8.7512
 IR Inten    --     29.0321                16.7737                 5.2292

 - Thermochemistry -
 -------------------
 Temperature   298.150 Kelvin.  Pressure   1.00000 Atm.
 Atom     1 has atomic number  6 and mass  12.00000

 Molecular mass:   160.14633 amu.
 Principal axes and moments of inertia in atomic units:
                           1         2         3
     Eigenvalues --   823.099283730.916243734.84681
           X            0.99994  -0.01030  -0.00279
           Y            0.00014  -0.24890   0.96853
           Z            0.01067   0.96848   0.24888
 This molecule is an asymmetric top.
 Rotational symmetry number  1.
 Warning -- assumption of classical behavior for rotation
           may cause significant error
 Rotational temperatures (Kelvin)      0.10523     0.02322     0.02319
 Rotational constants (GHZ):           2.19262     0.48373     0.48322
 Zero-point vibrational energy     743688.3 (Joules/Mol)
                                  177.74576 (Kcal/Mol)
 Warning -- explicit consideration of  23 degrees of freedom as
           vibrations may cause significant error
 Vibrational temperatures:     20.28    48.26    77.05   157.37   247.67
          (Kelvin)            320.00   341.96   362.20   365.95   390.03
                              403.30   408.17   414.95   465.57   480.45
                              535.64   574.60   583.57   588.77   637.80
                              719.97   734.63   831.25  1084.06  1107.81
                             1305.67  1312.94  1338.01  1350.56  1354.20
                             1372.06  1389.05  1401.90  1411.60  1469.59
                             1494.51  1530.82  1573.65  1660.55  1699.08
                             1757.66  1781.19  1809.32  1820.88  1873.78
                             1928.33  1960.35  2000.73  2028.83  2046.48
                             2048.42  2051.37  2062.90  2085.21  2105.79
                             2159.81  2172.93  2180.01  2180.68  2185.91
                             2189.75  2196.96  2200.70  2211.70  2214.26
                             2223.65  2234.16  4321.77  4357.82  4367.74
                             4373.69  4375.94  4383.79  4385.86  4392.48
                             4440.85  4458.38  4462.68  4464.51  4465.86
                             4475.20  4476.10  4496.60  4496.82  4511.89
                             4534.37  5370.71

 Zero-point correction=                           0.283256 (Hartree/Particle)
 Thermal correction to Energy=                    0.297641
 Thermal correction to Enthalpy=                  0.298585
 Thermal correction to Gibbs Free Energy=         0.241580
 Sum of electronic and zero-point Energies=           -505.202837
 Sum of electronic and thermal Energies=              -505.188452
 Sum of electronic and thermal Enthalpies=            -505.187508
 Sum of electronic and thermal Free Energies=         -505.244512

                     E (Thermal)             CV                S
                      KCal/Mol        Cal/Mol-Kelvin    Cal/Mol-Kelvin
 Total                  186.772             53.599            119.976
 Electronic               0.000              0.000              0.000
 Translational            0.889              2.981             41.122
 Rotational               0.889              2.981             30.818
 Vibrational            184.995             47.638             48.037
 Vibration     1          0.593              1.986              7.329
 Vibration     2          0.594              1.983              5.608
 Vibration     3          0.596              1.976              4.682
 Vibration     4          0.606              1.942              3.280
 Vibration     5          0.626              1.877              2.412
 Vibration     6          0.648              1.807              1.939
 Vibration     7          0.656              1.783              1.820
 Vibration     8          0.664              1.760              1.718
 Vibration     9          0.665              1.755              1.700
 Vibration    10          0.675              1.727              1.589
 Vibration    11          0.680              1.710              1.532
 Vibration    12          0.682              1.704              1.511
 Vibration    13          0.685              1.695              1.483
 Vibration    14          0.708              1.628              1.292
 Vibration    15          0.715              1.608              1.241
 Vibration    16          0.744              1.529              1.070
 Vibration    17          0.765              1.471              0.965
 Vibration    18          0.771              1.458              0.942
 Vibration    19          0.774              1.450              0.929
 Vibration    20          0.803              1.376              0.816
 Vibration    21          0.856              1.249              0.657
 Vibration    22          0.866              1.227              0.632
 Vibration    23          0.934              1.079              0.490

 Optimization completed.
    -- Stationary point found.

 1\1\GINC-NODE121\Freq\RB3LYP\6-31G(d)\C9H20O2\VSC10255\08-Dec-2020\0\\
 #N Geom=AllCheck Guess=TCheck SCRF=Check GenChk RB3LYP/6-31G(d) Freq\\
 CID_59370285_JID_1095_neutraal\\0,1\C,1.1777188428,0.0440891668,-0.026
 1631116\C,0.2981919046,-0.7810904609,-0.978120461\C,0.9711034054,-2.12
 80966766,-1.284229926\C,-1.0784855504,-1.0178668532,-0.3384480135\C,0.
 1347299511,-0.0195123616,-2.305929913\O,-0.4513056592,1.261271504,-2.1
 216651428\C,-1.7696078675,1.4444069635,-2.6001967491\C,-1.8354531039,2
 .2938356619,-3.8784348815\C,-0.8588666824,1.7829370145,-4.9408673137\C

 Normal termination of Gaussian 16 at Tue Dec  8 19:24:44 2020.

 ----------------------------------------------------------------------
 # B3LYP/6-311++G(d,p) empiricaldispersion=gd3bj scf=xqc pop=npa geom=c
 heck
 ----------------------------------------------------------------------

 --------------------------------------
 CID_59370285_JID_1095_Energie_neutraal
 --------------------------------------
 Structure from the checkpoint file:  "JID_1095.chk"
 Charge =  0 Multiplicity = 1

 SCF Done:  E(RB3LYP) =  -505.644207487     A.U. after   13 cycles
 Normal termination of Gaussian 16 at Tue Dec  8 19:27:57 2020.

 ----------------------------------------------------------------------
 # B3LYP/6-311++G(d,p) empiricaldispersion=gd3bj scf=xqc pop=npa geom=c
 heck
 ----------------------------------------------------------------------

 ------------------------------------
 CID_59370285_JID_1095_Energie_kation
 ------------------------------------
 Structure from the checkpoint file:  "JID_1095.chk"
 Charge =  1 Multiplicity = 2

 SCF Done:  E(UB3LYP) =  -505.319376797     A.U. after   21 cycles
 Normal termination of Gaussian 16 at Tue Dec  8 19:35:22 2020.
 Gaussian 16:  ES64L-G16RevA.03 25-Dec-2016

 -----------------------------------
 CID_59370285_JID_1095_Energie_anion
 -----------------------------------
 Structure from the checkpoint file:  "JID_1095.chk"
 Charge = -1 Multiplicity = 2

                         Standard orientation:
 ---------------------------------------------------------------------
 Center     Atomic      Atomic             Coordinates (Angstroms)
 Number     Number       Type             X           Y           Z
 ---------------------------------------------------------------------
      1          6           0       -2.820955   -0.203890    1.399549
      2          6           0       -2.367506    0.013911   -0.052229
      3          6           0       -3.353849   -0.658263   -1.019827
      4          6           0       -2.286392    1.518928   -0.350271
      5          6           0       -0.986527   -0.635343   -0.255120
      6          8           0       -0.007551   -0.101013    0.624594
      7          6           0        1.004593    0.704985    0.053293
      8          6           0        2.367295   -0.000080   -0.022103
      9          6           0        2.246203   -1.384986   -0.663098
     10          6           0        3.348869    0.891718   -0.794086
     11          8           0        2.798583   -0.126265    1.339316
     12          1           0       -3.789879    0.275932    1.581540
     13          1           0       -2.088799    0.214428    2.096316
     14          1           0       -2.927093   -1.272958    1.621446
     15          1           0       -4.360502   -0.242700   -0.896579
     16          1           0       -3.055800   -0.506334   -2.064873
     17          1           0       -3.414876   -1.738584   -0.839604
     18          1           0       -1.583945    2.013192    0.328224
     19          1           0       -1.956412    1.703771   -1.380526
     20          1           0       -3.267020    1.992423   -0.224152
     21          1           0       -1.058467   -1.713589   -0.055929
     22          1           0       -0.671092   -0.515714   -1.302457
     23          1           0        0.715766    1.038781   -0.952890
     24          1           0        1.121883    1.592586    0.686082
     25          1           0        1.862184   -1.323549   -1.687875
     26          1           0        3.228216   -1.873436   -0.707132
     27          1           0        1.573161   -2.007949   -0.069365
     28          1           0        3.412332    1.881710   -0.330102
     29          1           0        4.352405    0.449133   -0.782747
     30          1           0        3.049845    1.012702   -1.841632
     31          1           0        3.619442   -0.643493    1.334333
 ---------------------------------------------------------------------

 SCF Done:  E(UB3LYP) =  -505.631348514     A.U. after   27 cycles

 The electronic state is 2-A.
 Alpha  occ. eigenvalues --  -19.01550 -19.01132 -10.12233 -10.10922 -10.10838
 Alpha  occ. eigenvalues --  -10.08209 -10.06075 -10.05657 -10.05628 -10.05572
 Alpha  occ. eigenvalues --  -10.05231  -0.93362  -0.91237  -0.72299  -0.68187
 Alpha  occ. eigenvalues --   -0.60817  -0.58923  -0.58827  -0.58620  -0.54316
 Alpha  occ. eigenvalues --   -0.47120  -0.44215  -0.39766  -0.38756  -0.37448
 Alpha  occ. eigenvalues --   -0.36647  -0.34850  -0.33506  -0.32691  -0.31853
 Alpha  occ. eigenvalues --   -0.30885  -0.29238  -0.28843  -0.28180  -0.27086
 Alpha  occ. eigenvalues --   -0.26703  -0.26050  -0.25373  -0.24057  -0.23602
 Alpha  occ. eigenvalues --   -0.22629  -0.22415  -0.20896  -0.16975  -0.14872
 Alpha  occ. eigenvalues --    0.04382
 Alpha virt. eigenvalues --    0.06280   0.07912   0.08088   0.08978   0.09165
 Alpha virt. eigenvalues --    0.09583   0.10133   0.10793   0.11130   0.11590
 Alpha virt. eigenvalues --    0.12051   0.12583   0.13113   0.13702   0.14466

  Beta  occ. eigenvalues --  -19.01543 -19.01104 -10.12231 -10.10903 -10.10819
  Beta  occ. eigenvalues --  -10.08208 -10.06047 -10.05632 -10.05613 -10.05531
  Beta  occ. eigenvalues --  -10.05191  -0.93342  -0.91181  -0.72282  -0.68147
  Beta  occ. eigenvalues --   -0.60776  -0.58872  -0.58757  -0.58581  -0.54252
  Beta  occ. eigenvalues --   -0.47053  -0.44165  -0.39715  -0.38714  -0.37424
  Beta  occ. eigenvalues --   -0.36612  -0.34816  -0.33471  -0.32657  -0.31809
  Beta  occ. eigenvalues --   -0.30841  -0.29207  -0.28813  -0.28141  -0.27052
  Beta  occ. eigenvalues --   -0.26676  -0.26012  -0.25338  -0.24029  -0.23570
  Beta  occ. eigenvalues --   -0.22601  -0.22378  -0.20850  -0.16940  -0.14856
  Beta virt. eigenvalues --    0.06530   0.07361   0.08479   0.08753   0.09420
  Beta virt. eigenvalues --    0.09585   0.10058   0.10575   0.11076   0.11671
  Beta virt. eigenvalues --    0.12069   0.12369   0.12789   0.13392   0.14017

 Mulliken charges and spin densities:
               1          2
     1  C    0.084154  -0.549408
     2  C   -1.298207   1.997152
     3  C    0.389486  -0.993695
     4  C    0.435520  -1.063177
     5  C    0.314470  -0.958897
     6  O   -0.023899   0.023889
     7  C    1.112921  -1.609073
     8  C   -2.223351   2.561982
     9  C    1.162654  -1.806071
    10  C    0.986911  -1.476808
    11  O   -0.142264  -0.034688
    12  H   -0.055479   0.189801
    13  H    0.131480   0.040774
    14  H    0.003572   0.122513
    15  H   -0.128425   0.281937
    16  H   -0.220005   0.357113
    17  H   -0.162215   0.291094
    18  H    0.120805   0.013073
    19  H   -0.245785   0.393866
    20  H   -0.074578   0.232811
    21  H    0.052887   0.082474
    22  H    0.123091   0.026869
    23  H   -0.065051   0.215511
    24  H    0.169734   0.020606
    25  H   -0.287101   0.436820
    26  H   -0.393713   0.552266
    27  H    0.038029   0.156518
    28  H   -0.141421   0.293989
    29  H   -0.433007   0.582515
    30  H   -0.228698   0.371898
    31  H   -0.002515   0.246346
 Sum of Mulliken charges =  -1.00000   1.00000

 Dipole moment (field-independent basis, Debye):
    X=             -2.8230    Y=              0.6188    Z=              2.3837  Tot=              3.7462
 Quadrupole moment (field-independent basis, Debye-Ang):
   XX=           -149.2337   YY=           -103.8728   ZZ=           -111.6663
   XY=              3.3302   XZ=             -0.5589   YZ=              0.6814

 Summary of Natural Population Analysis:

                                       Natural Population
                Natural  -----------------------------------------------
    Atom  No    Charge         Core      Valence    Rydberg      Total
 -----------------------------------------------------------------------
      C    1   -0.28464      0.99962     2.27904    0.00598     3.28464
      C    2   -0.06291      0.99959     2.05173    0.01159     3.06291
      C    3   -0.28565      0.99962     2.27867    0.00736     3.28565
      C    4   -0.28709      0.99962     2.27982    0.00764     3.28709
      C    5   -0.00207      0.99950     1.98906    0.01352     3.00207
      O    6   -0.30429      0.99988     3.29551    0.00890     4.30429
      C    7   -0.00793      0.99948     1.99490    0.01355     3.00793
      C    8    0.11018      0.99956     1.87539    0.01488     2.88982
      C    9   -0.30064      0.99961     2.29354    0.00749     3.30064
      C   10   -0.29670      0.99962     2.29010    0.00699     3.29670
      O   11   -0.37484      0.99989     3.36827    0.00669     4.37484
      H   12    0.09602      0.00000     0.40315    0.00084     0.40398
      H   13    0.10722      0.00000     0.39166    0.00112     0.39278
      H   14    0.09753      0.00000     0.40165    0.00083     0.40247
      H   15    0.10001      0.00000     0.39899    0.00100     0.39999
      H   16    0.10160      0.00000     0.39723    0.00117     0.39840
      H   17    0.09900      0.00000     0.39996    0.00104     0.40100
      H   18    0.10251      0.00000     0.39635    0.00114     0.39749
      H   19    0.10066      0.00000     0.39819    0.00115     0.39934
      H   20    0.09821      0.00000     0.40093    0.00085     0.40179
      H   21    0.08664      0.00000     0.41204    0.00133     0.41336
      H   22    0.08549      0.00000     0.41277    0.00174     0.41451
      H   23    0.08570      0.00000     0.41275    0.00155     0.41430
      H   24    0.09179      0.00000     0.40690    0.00130     0.40821
      H   25    0.10330      0.00000     0.39517    0.00153     0.39670
      H   26    0.09995      0.00000     0.39844    0.00160     0.40005
      H   27    0.10714      0.00000     0.39147    0.00139     0.39286
      H   28    0.10138      0.00000     0.39747    0.00115     0.39862
      H   29    0.10171      0.00000     0.39658    0.00171     0.39829
      H   30    0.10297      0.00000     0.39554    0.00149     0.39703
      H   31    0.22774      0.00000     0.26903    0.00323     0.27226
 =======================================================================
   * Total *    0.00000     10.99599    33.87229    0.13172    45.00000

 Normal termination of Gaussian 16 at Tue Dec  8 19:44:42 2020.
