 Gaussian 16, Revision A.03,

 -----------------------------------------------------------
 # opt freq B3LYP/6-31G(d) empiricaldispersion=gd3bj scf=xqc
 -----------------------------------------------------------

 -------------------------------
 CID_153745554_JID_6814_neutraal
 -------------------------------
 Symbolic Z-matrix:
 Charge =  0 Multiplicity = 1

 SCF Done:  E(RB3LYP) =  -1126.69147922     A.U. after   15 cycles
 SCF Done:  E(RB3LYP) =  -1126.70282875     A.U. after   14 cycles
 SCF Done:  E(RB3LYP) =  -1126.69536867     A.U. after   15 cycles
 SCF Done:  E(RB3LYP) =  -1126.70084233     A.U. after   14 cycles
 SCF Done:  E(RB3LYP) =  -1126.70379476     A.U. after   11 cycles
 SCF Done:  E(RB3LYP) =  -1126.70310308     A.U. after   14 cycles
 SCF Done:  E(RB3LYP) =  -1126.70494367     A.U. after   13 cycles
 SCF Done:  E(RB3LYP) =  -1126.70518765     A.U. after   12 cycles
 SCF Done:  E(RB3LYP) =  -1126.70520716     A.U. after   12 cycles
 SCF Done:  E(RB3LYP) =  -1126.70532587     A.U. after   12 cycles
 SCF Done:  E(RB3LYP) =  -1126.70537406     A.U. after   10 cycles
 SCF Done:  E(RB3LYP) =  -1126.70538527     A.U. after    9 cycles
 SCF Done:  E(RB3LYP) =  -1126.70538790     A.U. after    9 cycles
 SCF Done:  E(RB3LYP) =  -1126.70538886     A.U. after    9 cycles
 SCF Done:  E(RB3LYP) =  -1126.70538930     A.U. after    8 cycles
 SCF Done:  E(RB3LYP) =  -1126.70538934     A.U. after    7 cycles
 Optimization completed.
    -- Stationary point found.
 Normal termination of Gaussian 16 at Fri Dec 11 00:46:22 2020.

 --------------------------------------------------------------------
 #N Geom=AllCheck Guess=TCheck SCRF=Check GenChk RB3LYP/6-31G(d) Freq
 --------------------------------------------------------------------

 Structure from the checkpoint file:  "JID_6814.chk"
 -------------------------------
 CID_153745554_JID_6814_neutraal
 -------------------------------
 Charge =  0 Multiplicity = 1

 SCF Done:  E(RB3LYP) =  -1126.70538934     A.U. after    1 cycles

  Exact polarizability: 182.831  -1.609 132.578  -0.343  -6.750 107.646
 Approx polarizability: 251.532  10.742 207.721  -6.679 -23.039 187.528

                      1                      2                      3
                      A                      A                      A
 Frequencies --     37.4767                49.5102                60.4873
 Red. masses --      7.6924                 4.9333                 3.7771
 Frc consts  --      0.0064                 0.0071                 0.0081
 IR Inten    --      0.6903                 0.4668                 1.0667

                      4                      5                      6
                      A                      A                      A
 Frequencies --     70.1281                87.6599               103.4746
 Red. masses --      4.9781                 5.1854                 4.6469
 Frc consts  --      0.0144                 0.0235                 0.0293
 IR Inten    --      2.1366                 0.2432                 2.9698

                      7                      8                      9
                      A                      A                      A
 Frequencies --    131.7442               159.7484               166.2238
 Red. masses --      4.9567                 2.1088                 4.6042
 Frc consts  --      0.0507                 0.0317                 0.0750
 IR Inten    --      2.6444                 0.6652                 2.9923

                     10                     11                     12
                      A                      A                      A
 Frequencies --    216.8188               217.8093               243.1935
 Red. masses --      4.7548                 3.0979                 4.8147
 Frc consts  --      0.1317                 0.0866                 0.1678
 IR Inten    --      0.3372                 2.1481                 1.4490

                     13                     14                     15
                      A                      A                      A
 Frequencies --    282.2334               307.1288               308.9804
 Red. masses --      1.2636                 4.4896                 5.9863
 Frc consts  --      0.0593                 0.2495                 0.3367
 IR Inten    --      0.1484                 3.0325                 5.5949

                     16                     17                     18
                      A                      A                      A
 Frequencies --    343.2764               350.9590               381.0404
 Red. masses --      2.4345                 5.6331                 4.1564
 Frc consts  --      0.1690                 0.4088                 0.3556
 IR Inten    --      1.7994                 2.6281                10.0481

                     19                     20                     21
                      A                      A                      A
 Frequencies --    408.7294               425.6471               464.5152
 Red. masses --      5.0703                 1.4574                 2.8866
 Frc consts  --      0.4991                 0.1556                 0.3670
 IR Inten    --      5.1297                58.2511                 4.4811

                     22                     23                     24
                      A                      A                      A
 Frequencies --    482.0159               499.5927               526.4514
 Red. masses --      3.5520                 3.7148                 2.7097
 Frc consts  --      0.4862                 0.5463                 0.4425
 IR Inten    --     38.0980                 1.1153                41.1746

                     25                     26                     27
                      A                      A                      A
 Frequencies --    591.0284               612.9845               677.3900
 Red. masses --      1.6915                 3.8780                 3.6514
 Frc consts  --      0.3481                 0.8585                 0.9872
 IR Inten    --     61.9602                50.5589                67.8698

                     28                     29                     30
                      A                      A                      A
 Frequencies --    699.8341               733.3630               771.3752
 Red. masses --      4.2926                 5.0346                 1.5580
 Frc consts  --      1.2387                 1.5953                 0.5462
 IR Inten    --      7.4915                 8.1248                10.1951

                     31                     32                     33
                      A                      A                      A
 Frequencies --    808.9381               813.3211               818.1036
 Red. masses --      2.5724                 1.6706                 1.9055
 Frc consts  --      0.9918                 0.6511                 0.7514
 IR Inten    --      0.6063                15.1516                 3.0246

                     34                     35                     36
                      A                      A                      A
 Frequencies --    855.5159               877.9914               881.9421
 Red. masses --      5.3995                 3.2506                 2.3204
 Frc consts  --      2.3284                 1.4764                 1.0634
 IR Inten    --     28.4474                15.1562                 2.1875

                     37                     38                     39
                      A                      A                      A
 Frequencies --    924.5855               930.4801               946.8741
 Red. masses --      1.5061                 4.4433                 3.3942
 Frc consts  --      0.7586                 2.2666                 1.7930
 IR Inten    --      5.8232                25.5380                 0.7650

                     40                     41                     42
                      A                      A                      A
 Frequencies --    985.8345              1001.0256              1008.7311
 Red. masses --      1.4448                 1.3637                 1.3083
 Frc consts  --      0.8273                 0.8051                 0.7843
 IR Inten    --     21.6200                 0.2744                19.9675

                     43                     44                     45
                      A                      A                      A
 Frequencies --   1075.9873              1078.2709              1100.5912
 Red. masses --      1.8916                 2.1046                 4.3762
 Frc consts  --      1.2903                 1.4417                 3.1232
 IR Inten    --     35.0395                 7.8433                17.6471

                     46                     47                     48
                      A                      A                      A
 Frequencies --   1111.1719              1144.1714              1159.7136
 Red. masses --      1.7587                 2.6448                 1.7314
 Frc consts  --      1.2794                 2.0400                 1.3720
 IR Inten    --      2.9203                28.8642                 2.5687

                     49                     50                     51
                      A                      A                      A
 Frequencies --   1187.4436              1208.5314              1247.7001
 Red. masses --      2.1294                 2.6266                 1.3420
 Frc consts  --      1.7690                 2.2602                 1.2309
 IR Inten    --    155.3556               132.1567                 3.8612

                     52                     53                     54
                      A                      A                      A
 Frequencies --   1253.3783              1287.2338              1303.7632
 Red. masses --      1.2763                 1.2557                 1.5632
 Frc consts  --      1.1813                 1.2258                 1.5655
 IR Inten    --     15.0893                 0.9849                22.5180

                     55                     56                     57
                      A                      A                      A
 Frequencies --   1316.7134              1342.1345              1349.6418
 Red. masses --      1.2176                 1.2563                 2.0313
 Frc consts  --      1.2437                 1.3333                 2.1800
 IR Inten    --     11.8391                18.4916                48.1796

                     58                     59                     60
                      A                      A                      A
 Frequencies --   1368.4745              1381.8541              1392.8802
 Red. masses --      1.8328                 1.3473                 1.3898
 Frc consts  --      2.0223                 1.5158                 1.5887
 IR Inten    --     14.2963                 3.9713                 8.5447

                     61                     62                     63
                      A                      A                      A
 Frequencies --   1407.9937              1452.6826              1506.7150
 Red. masses --      1.3545                 1.2414                 1.0946
 Frc consts  --      1.5821                 1.5435                 1.4641
 IR Inten    --     92.2141                 1.5865                 4.7293

                     64                     65                     66
                      A                      A                      A
 Frequencies --   1520.9755              1535.1751              1547.7783
 Red. masses --      1.0803                 1.0403                 1.0564
 Frc consts  --      1.4724                 1.4445                 1.4910
 IR Inten    --      0.5132                 6.8150                 9.5132

                     67                     68                     69
                      A                      A                      A
 Frequencies --   1659.4735              1697.7006              1825.8025
 Red. masses --      6.7870                 6.1190                12.4771
 Frc consts  --     11.0121                10.3909                24.5060
 IR Inten    --     12.8659                 8.2069               287.3132

                     70                     71                     72
                      A                      A                      A
 Frequencies --   1863.6330              3025.7992              3038.9071
 Red. masses --     10.0198                 1.0637                 1.0628
 Frc consts  --     20.5037                 5.7378                 5.7826
 IR Inten    --    264.9107                23.6558                45.6947

                     73                     74                     75
                      A                      A                      A
 Frequencies --   3048.7786              3071.2411              3083.9837
 Red. masses --      1.0358                 1.0991                 1.1003
 Frc consts  --      5.6724                 6.1085                 6.1655
 IR Inten    --     16.8882                23.7793                30.6912

                     76                     77                     78
                      A                      A                      A
 Frequencies --   3114.8973              3129.7317              3129.8068
 Red. masses --      1.1023                 1.0854                 1.1006
 Frc consts  --      6.3013                 6.2638                 6.3523
 IR Inten    --     39.0441                 1.9366                24.1188

                     79                     80                     81
                      A                      A                      A
 Frequencies --   3169.1063              3177.5835              3226.2722
 Red. masses --      1.0909                 1.0892                 1.0886
 Frc consts  --      6.4552                 6.4796                 6.6758
 IR Inten    --      5.5559                12.6377                 0.5236

                     82                     83                     84
                      A                      A                      A
 Frequencies --   3250.4849              3661.0701              3689.5296
 Red. masses --      1.1035                 1.0656                 1.0641
 Frc consts  --      6.8695                 8.4154                 8.5341
 IR Inten    --      3.0371                93.7489                48.1303

 - Thermochemistry -
 -------------------
 Temperature   298.150 Kelvin.  Pressure   1.00000 Atm.
 Atom     1 has atomic number  6 and mass  12.00000

 Molecular mass:   242.06128 amu.
 Principal axes and moments of inertia in atomic units:
                           1         2         3
     Eigenvalues --  2398.800144943.552426171.36440
           X            0.99962  -0.02751   0.00069
           Y            0.02749   0.99952   0.01462
           Z           -0.00109  -0.01460   0.99989
 This molecule is an asymmetric top.
 Rotational symmetry number  1.
 Warning -- assumption of classical behavior for rotation
           may cause significant error
 Rotational temperatures (Kelvin)      0.03611     0.01752     0.01403
 Rotational constants (GHZ):           0.75235     0.36507     0.29244
 Zero-point vibrational energy     624504.1 (Joules/Mol)
                                  149.26007 (Kcal/Mol)
 Warning -- explicit consideration of  26 degrees of freedom as
           vibrations may cause significant error
 Vibrational temperatures:     53.92    71.23    87.03   100.90   126.12
          (Kelvin)            148.88   189.55   229.84   239.16   311.95
                              313.38   349.90   406.07   441.89   444.55
                              493.90   504.95   548.23   588.07   612.41
                              668.33   693.51   718.80   757.45   850.36
                              881.95   974.61  1006.91  1055.15  1109.84
                             1163.88  1170.19  1177.07  1230.90  1263.23
                             1268.92  1330.27  1338.75  1362.34  1418.40
                             1440.25  1451.34  1548.11  1551.39  1583.51
                             1598.73  1646.21  1668.57  1708.47  1738.81
                             1795.16  1803.33  1852.04  1875.82  1894.46
                             1931.03  1941.83  1968.93  1988.18  2004.04
                             2025.79  2090.09  2167.83  2188.34  2208.77
                             2226.91  2387.61  2442.61  2626.92  2681.35
                             4353.45  4372.31  4386.51  4418.83  4437.16
                             4481.64  4502.99  4503.09  4559.64  4571.83
                             4641.89  4676.72  5267.46  5308.41

 Zero-point correction=                           0.237861 (Hartree/Particle)
 Thermal correction to Energy=                    0.254508
 Thermal correction to Enthalpy=                  0.255452
 Thermal correction to Gibbs Free Energy=         0.193056
 Sum of electronic and zero-point Energies=          -1126.467528
 Sum of electronic and thermal Energies=             -1126.450881
 Sum of electronic and thermal Enthalpies=           -1126.449937
 Sum of electronic and thermal Free Energies=        -1126.512333

                     E (Thermal)             CV                S
                      KCal/Mol        Cal/Mol-Kelvin    Cal/Mol-Kelvin
 Total                  159.706             61.732            131.323
 Electronic               0.000              0.000              0.000
 Translational            0.889              2.981             42.353
 Rotational               0.889              2.981             32.659
 Vibrational            157.929             55.771             56.311
 Vibration     1          0.594              1.982              5.388
 Vibration     2          0.595              1.978              4.837
 Vibration     3          0.597              1.973              4.441
 Vibration     4          0.598              1.968              4.150
 Vibration     5          0.601              1.958              3.712
 Vibration     6          0.605              1.946              3.388
 Vibration     7          0.612              1.922              2.920
 Vibration     8          0.622              1.892              2.553
 Vibration     9          0.624              1.884              2.478
 Vibration    10          0.646              1.815              1.985
 Vibration    11          0.646              1.814              1.977
 Vibration    12          0.659              1.774              1.779
 Vibration    13          0.681              1.707              1.520
 Vibration    14          0.697              1.660              1.378
 Vibration    15          0.698              1.657              1.368
 Vibration    16          0.722              1.589              1.197
 Vibration    17          0.728              1.573              1.162
 Vibration    18          0.751              1.511              1.035
 Vibration    19          0.773              1.451              0.931
 Vibration    20          0.787              1.414              0.873
 Vibration    21          0.822              1.329              0.753
 Vibration    22          0.838              1.290              0.705
 Vibration    23          0.855              1.251              0.659
 Vibration    24          0.881              1.191              0.595
 Vibration    25          0.948              1.051              0.465
 Vibration    26          0.972              1.004              0.428

 Optimization completed.
    -- Stationary point found.
 Normal termination of Gaussian 16 at Fri Dec 11 00:57:09 2020.

 ----------------------------------------------------------------------
 # B3LYP/6-311++G(d,p) empiricaldispersion=gd3bj scf=xqc pop=npa geom=c
 heck
 ----------------------------------------------------------------------

 ---------------------------------------
 CID_153745554_JID_6814_Energie_neutraal
 ---------------------------------------
 Structure from the checkpoint file:  "JID_6814.chk"
 Charge =  0 Multiplicity = 1

 SCF Done:  E(RB3LYP) =  -1126.95665971     A.U. after   16 cycles
 Normal termination of Gaussian 16 at Fri Dec 11 01:01:46 2020.

 ----------------------------------------------------------------------
 # B3LYP/6-311++G(d,p) empiricaldispersion=gd3bj scf=xqc pop=npa geom=c
 heck
 ----------------------------------------------------------------------

 -------------------------------------
 CID_153745554_JID_6814_Energie_kation
 -------------------------------------
 Structure from the checkpoint file:  "JID_6814.chk"
 Charge =  1 Multiplicity = 2

 SCF Done:  E(UB3LYP) =  -1126.63621781     A.U. after   29 cycles
 Normal termination of Gaussian 16 at Fri Dec 11 01:13:02 2020.
 Gaussian 16:  ES64L-G16RevA.03 25-Dec-2016

 ----------------------------------------------------------------------
 # B3LYP/6-311++G(d,p) empiricaldispersion=gd3bj scf=xqc pop=npa geom=c
 heck
 ----------------------------------------------------------------------

 ------------------------------------
 CID_153745554_JID_6814_Energie_anion
 ------------------------------------
 Structure from the checkpoint file:  "JID_6814.chk"
 Charge = -1 Multiplicity = 2

                         Standard orientation:
 ---------------------------------------------------------------------
 Center     Atomic      Atomic             Coordinates (Angstroms)
 Number     Number       Type             X           Y           Z
 ---------------------------------------------------------------------
      1          6           0       -2.845295    1.574015    0.844238
      2          6           0       -3.993266    0.622196    0.496730
      3          6           0       -3.633907   -0.379221   -0.620268
      4          6           0       -2.452876   -1.226972   -0.249526
      5          6           0       -1.324085   -1.299019   -0.959411
      6         16           0        0.080238   -2.249617   -0.408305
      7          6           0        0.993148   -0.882013    0.437294
      8          6           0        2.339083   -1.393097    0.908461
      9          6           0        3.367300   -0.626166    0.522479
     10          6           0        2.894808    0.492461   -0.319174
     11          8           0        3.544134    1.404912   -0.780947
     12          6           0        1.375805    0.268655   -0.555830
     13          6           0        0.568067    1.533677   -0.443877
     14          8           0       -0.128731    2.011956   -1.304178
     15          8           0        0.713379    2.108430    0.787135
     16          8           0        0.216826   -0.481979    1.551129
     17          1           0       -1.984940    1.016588    1.228956
     18          1           0       -3.155752    2.298748    1.605736
     19          1           0       -2.512495    2.126501   -0.042155
     20          1           0       -4.292440    0.065058    1.394915
     21          1           0       -4.873626    1.194996    0.179755
     22          1           0       -4.504189   -1.024261   -0.809533
     23          1           0       -3.424808    0.161345   -1.551728
     24          1           0       -2.519532   -1.781342    0.685965
     25          1           0       -1.205339   -0.745738   -1.888693
     26          1           0        2.388220   -2.264487    1.553080
     27          1           0        4.412588   -0.750616    0.780307
     28          1           0        1.266301   -0.079971   -1.584370
     29          1           0        0.140888    2.898870    0.797061
     30          1           0        0.483761    0.424531    1.791779
 ---------------------------------------------------------------------

 SCF Done:  E(UB3LYP) =  -1126.97692079     A.U. after   32 cycles

 The electronic state is 2-A.
 Alpha  occ. eigenvalues --  -88.71437 -19.06734 -19.00583 -18.99612 -18.91835
 Alpha  occ. eigenvalues --  -10.19338 -10.13147 -10.08228 -10.08030 -10.07698
 Alpha  occ. eigenvalues --  -10.06997 -10.06522 -10.06241 -10.05530 -10.00277
 Alpha  occ. eigenvalues --  -10.00074  -7.80098  -5.76491  -5.76131  -5.75453
 Alpha  occ. eigenvalues --   -1.00329  -0.91626  -0.90571  -0.86276  -0.72061
 Alpha  occ. eigenvalues --   -0.69998  -0.67032  -0.61898  -0.61236  -0.57132
 Alpha  occ. eigenvalues --   -0.51525  -0.50553  -0.48286  -0.44852  -0.43218
 Alpha  occ. eigenvalues --   -0.41116  -0.39042  -0.38003  -0.36655  -0.36098
 Alpha  occ. eigenvalues --   -0.34470  -0.34111  -0.32570  -0.31677  -0.30741
 Alpha  occ. eigenvalues --   -0.29475  -0.28566  -0.27702  -0.27406  -0.26015
 Alpha  occ. eigenvalues --   -0.25719  -0.24647  -0.24405  -0.23983  -0.23019
 Alpha  occ. eigenvalues --   -0.21867  -0.21266  -0.20342  -0.17527  -0.15700
 Alpha  occ. eigenvalues --   -0.14685  -0.12573  -0.11020  -0.08197   0.04561
 Alpha virt. eigenvalues --    0.06507   0.07823   0.09034   0.09317   0.09732
 Alpha virt. eigenvalues --    0.10577   0.10770   0.11296   0.11910   0.12059
 Alpha virt. eigenvalues --    0.12560   0.12956   0.13622   0.14345   0.15048

  Beta  occ. eigenvalues --  -88.71420 -19.06726 -19.00578 -18.99535 -18.91252
  Beta  occ. eigenvalues --  -10.19315 -10.13176 -10.08224 -10.08030 -10.07674
  Beta  occ. eigenvalues --  -10.06966 -10.06240 -10.06173 -10.05554 -10.00201
  Beta  occ. eigenvalues --   -9.99461  -7.80077  -5.76479  -5.76110  -5.75429
  Beta  occ. eigenvalues --   -1.00307  -0.91597  -0.90417  -0.85235  -0.72008
  Beta  occ. eigenvalues --   -0.69642  -0.66859  -0.61803  -0.60795  -0.57023
  Beta  occ. eigenvalues --   -0.51417  -0.50203  -0.48070  -0.44620  -0.42526
  Beta  occ. eigenvalues --   -0.40976  -0.38808  -0.37931  -0.36626  -0.36058
  Beta  occ. eigenvalues --   -0.34258  -0.33989  -0.32273  -0.31630  -0.30637
  Beta  occ. eigenvalues --   -0.29234  -0.28325  -0.27492  -0.27117  -0.25968
  Beta  occ. eigenvalues --   -0.25608  -0.24532  -0.24239  -0.23510  -0.22744
  Beta  occ. eigenvalues --   -0.21446  -0.20281  -0.19403  -0.17281  -0.15285
  Beta  occ. eigenvalues --   -0.14463  -0.11337  -0.09516  -0.07716
  Beta virt. eigenvalues --    0.06465   0.07757   0.08987   0.09255   0.09798
  Beta virt. eigenvalues --    0.10609   0.10807   0.11286   0.11809   0.12026
  Beta virt. eigenvalues --    0.12110   0.12823   0.12940   0.13795   0.14388

 Mulliken charges and spin densities:
               1          2
     1  C   -0.470321  -0.011398
     2  C   -0.317477  -0.004879
     3  C   -0.305274  -0.011701
     4  C   -0.030994   0.007961
     5  C   -0.227907   0.030742
     6  S   -0.273608   0.016498
     7  C    0.315684  -0.104256
     8  C   -0.267603   0.549300
     9  C    0.006890   0.040017
    10  C   -0.753818   0.242628
    11  O   -0.403665   0.198720
    12  C    0.481137  -0.009096
    13  C   -0.634071  -0.019516
    14  O   -0.210362   0.003905
    15  O   -0.140291  -0.000982
    16  O   -0.073999   0.013585
    17  H    0.099745   0.013611
    18  H    0.112725   0.009070
    19  H    0.152044   0.001643
    20  H    0.131704   0.001118
    21  H    0.122096   0.004580
    22  H    0.137622   0.000816
    23  H    0.147091   0.000198
    24  H    0.156117   0.004095
    25  H    0.236169   0.000684
    26  H    0.139321  -0.033922
    27  H    0.120462  -0.004846
    28  H    0.284853   0.012953
    29  H    0.267917   0.019715
    30  H    0.197812   0.028758
 Sum of Mulliken charges =  -1.00000   1.00000

 Dipole moment (field-independent basis, Debye):
    X=             -9.0775    Y=              0.5758    Z=              1.7165  Tot=              9.2562
 Quadrupole moment (field-independent basis, Debye-Ang):
   XX=           -146.9496   YY=           -124.1936   ZZ=           -116.3250
   XY=             -9.0110   XZ=              4.2643   YZ=              8.2277

 Summary of Natural Population Analysis:

                                       Natural Population
                Natural  -----------------------------------------------
    Atom  No    Charge         Core      Valence    Rydberg      Total
 -----------------------------------------------------------------------
      C    1   -0.29821      0.99967     2.29326    0.00528     3.29821
      C    2   -0.18284      0.99965     2.17723    0.00597     3.18284
      C    3   -0.20394      0.99961     2.19644    0.00788     3.20394
      C    4   -0.08110      0.99949     2.07007    0.01154     3.08110
      C    5   -0.17095      0.99942     2.15989    0.01165     3.17095
      S    6    0.10283      4.99950     2.87892    0.01875     7.89717
      C    7    0.06892      0.99950     1.90789    0.02370     2.93108
      C    8    0.03162      0.99949     1.95880    0.01009     2.96838
      C    9   -0.14175      0.99947     2.13317    0.00910     3.14175
      C   10    0.31127      0.99964     1.66662    0.02247     2.68873
      O   11   -0.24837      0.99987     3.24115    0.00735     4.24837
      C   12   -0.21912      0.99945     2.20403    0.01565     3.21912
      C   13    0.42389      0.99967     1.54885    0.02759     2.57611
      O   14   -0.30925      0.99986     3.30269    0.00669     4.30925
      O   15   -0.35786      0.99987     3.35120    0.00679     4.35786
      O   16   -0.37796      0.99987     3.36901    0.00908     4.37796
      H   17    0.11024      0.00000     0.38799    0.00177     0.38976
      H   18    0.09117      0.00000     0.40796    0.00087     0.40883
      H   19    0.10281      0.00000     0.39611    0.00108     0.39719
      H   20    0.08991      0.00000     0.40889    0.00120     0.41009
      H   21    0.08964      0.00000     0.40916    0.00120     0.41036
      H   22    0.09638      0.00000     0.40235    0.00127     0.40362
      H   23    0.09821      0.00000     0.40056    0.00123     0.40179
      H   24    0.09615      0.00000     0.40261    0.00124     0.40385
      H   25    0.09590      0.00000     0.40259    0.00151     0.40410
      H   26    0.08712      0.00000     0.41197    0.00091     0.41288
      H   27    0.09432      0.00000     0.40374    0.00194     0.40568
      H   28    0.12441      0.00000     0.37448    0.00111     0.37559
      H   29    0.23746      0.00000     0.25859    0.00395     0.26254
      H   30    0.23908      0.00000     0.25791    0.00301     0.26092
 =======================================================================
   * Total *    0.00000     19.99403    43.78411    0.22186    64.00000

 Normal termination of Gaussian 16 at Fri Dec 11 01:24:57 2020.
