 Gaussian 16, Revision A.03,

 -----------------------------------------------------------
 # opt freq B3LYP/6-31G(d) empiricaldispersion=gd3bj scf=xqc
 -----------------------------------------------------------

 -------------------------------
 CID_104804871_JID_1251_neutraal
 -------------------------------
 Symbolic Z-matrix:
 Charge =  0 Multiplicity = 1

 SCF Done:  E(RB3LYP) =  -445.964689556     A.U. after   14 cycles
 SCF Done:  E(RB3LYP) =  -445.985294513     A.U. after   12 cycles
 SCF Done:  E(RB3LYP) =  -445.987387795     A.U. after   12 cycles
 SCF Done:  E(RB3LYP) =  -445.984352787     A.U. after   14 cycles
 SCF Done:  E(RB3LYP) =  -445.987797331     A.U. after   11 cycles
 SCF Done:  E(RB3LYP) =  -445.987229469     A.U. after   12 cycles
 SCF Done:  E(RB3LYP) =  -445.986953510     A.U. after   12 cycles
 SCF Done:  E(RB3LYP) =  -445.986260279     A.U. after   12 cycles
 SCF Done:  E(RB3LYP) =  -445.987824672     A.U. after    8 cycles
 SCF Done:  E(RB3LYP) =  -445.988005985     A.U. after   11 cycles
 SCF Done:  E(RB3LYP) =  -445.988081655     A.U. after    8 cycles
 SCF Done:  E(RB3LYP) =  -445.988081749     A.U. after    6 cycles
 SCF Done:  E(RB3LYP) =  -445.988081758     A.U. after    5 cycles
 SCF Done:  E(RB3LYP) =  -445.988081762     A.U. after    6 cycles
 Optimization completed.
    -- Stationary point found.
 Normal termination of Gaussian 16 at Tue Dec  8 19:41:57 2020.

 --------------------------------------------------------------------
 #N Geom=AllCheck Guess=TCheck SCRF=Check GenChk RB3LYP/6-31G(d) Freq
 --------------------------------------------------------------------

 Structure from the checkpoint file:  "JID_1251.chk"
 -------------------------------
 CID_104804871_JID_1251_neutraal
 -------------------------------
 Charge =  0 Multiplicity = 1

 SCF Done:  E(RB3LYP) =  -445.988081762     A.U. after    1 cycles

  Exact polarizability: 120.854   5.998 102.195 -10.389  -6.582  99.232
 Approx polarizability: 157.612  15.099 141.068 -24.008 -16.097 147.390

                      1                      2                      3
                      A                      A                      A
 Frequencies --     18.7366                44.2814                54.2863
 Red. masses --      1.0124                 3.6138                 3.2977
 Frc consts  --      0.0002                 0.0042                 0.0057
 IR Inten    --      0.0007                 0.1923                 0.3740

                      4                      5                      6
                      A                      A                      A
 Frequencies --     95.2640               103.0588               150.6702
 Red. masses --      2.5516                 2.0856                 2.6999
 Frc consts  --      0.0136                 0.0131                 0.0361
 IR Inten    --      0.1219                 1.2211                 1.4778

                      7                      8                      9
                      A                      A                      A
 Frequencies --    187.9684               204.1196               249.2482
 Red. masses --      3.4915                 1.6855                 2.7316
 Frc consts  --      0.0727                 0.0414                 0.1000
 IR Inten    --      4.4370                 0.8754                 2.9333

                     10                     11                     12
                      A                      A                      A
 Frequencies --    265.1491               276.8626               297.8029
 Red. masses --      3.2840                 1.8338                 2.2285
 Frc consts  --      0.1360                 0.0828                 0.1164
 IR Inten    --      2.7382                 3.4562                 1.1080

                     13                     14                     15
                      A                      A                      A
 Frequencies --    336.8474               387.0270               402.7016
 Red. masses --      3.2202                 3.6873                 3.7143
 Frc consts  --      0.2153                 0.3254                 0.3549
 IR Inten    --      2.3796                 0.1554                 1.1671

                     16                     17                     18
                      A                      A                      A
 Frequencies --    482.0504               529.7031               570.2968
 Red. masses --      3.3576                 2.2651                 3.4847
 Frc consts  --      0.4597                 0.3745                 0.6678
 IR Inten    --      3.2874                 2.8934                 5.9878

                     19                     20                     21
                      A                      A                      A
 Frequencies --    708.0291               720.9087               803.7219
 Red. masses --      1.8009                 2.8174                 1.2731
 Frc consts  --      0.5319                 0.8627                 0.4845
 IR Inten    --     22.0620                 8.1743                56.4082

                     22                     23                     24
                      A                      A                      A
 Frequencies --    809.3691               841.9914               859.3384
 Red. masses --      1.2153                 1.3032                 2.0979
 Frc consts  --      0.4691                 0.5443                 0.9128
 IR Inten    --     15.1399                 0.7161                12.9762

                     25                     26                     27
                      A                      A                      A
 Frequencies --    928.5119               956.7511               965.8372
 Red. masses --      3.4169                 2.5913                 2.1858
 Frc consts  --      1.7356                 1.3976                 1.2014
 IR Inten    --      5.5898                 2.8461                14.5624

                     28                     29                     30
                      A                      A                      A
 Frequencies --   1008.4695              1061.2663              1065.0317
 Red. masses --      1.7013                 1.3708                 1.8353
 Frc consts  --      1.0194                 0.9096                 1.2265
 IR Inten    --      8.0167                 9.5852                 1.4713

                     31                     32                     33
                      A                      A                      A
 Frequencies --   1071.3355              1071.6032              1078.0945
 Red. masses --      1.3975                 1.3888                 1.8794
 Frc consts  --      0.9450                 0.9396                 1.2870
 IR Inten    --      1.9948                 2.0442                 2.8026

                     34                     35                     36
                      A                      A                      A
 Frequencies --   1082.0934              1129.6876              1151.4174
 Red. masses --      1.4433                 2.4500                 1.1407
 Frc consts  --      0.9957                 1.8422                 0.8910
 IR Inten    --      1.8502                24.3726                 1.4050

                     37                     38                     39
                      A                      A                      A
 Frequencies --   1168.5527              1177.8277              1185.2804
 Red. masses --      1.8677                 2.6844                 1.6055
 Frc consts  --      1.5026                 2.1941                 1.3290
 IR Inten    --     15.7539                13.9029                 4.4472

                     40                     41                     42
                      A                      A                      A
 Frequencies --   1198.5390              1211.6858              1229.4338
 Red. masses --      1.8143                 1.4180                 1.2617
 Frc consts  --      1.5356                 1.2266                 1.1236
 IR Inten    --      4.6137                 1.3995                 1.7349

                     43                     44                     45
                      A                      A                      A
 Frequencies --   1261.8127              1278.2408              1354.0707
 Red. masses --      1.8185                 1.4412                 1.2187
 Frc consts  --      1.7059                 1.3874                 1.3166
 IR Inten    --      0.6939                 1.9424                 2.8476

                     46                     47                     48
                      A                      A                      A
 Frequencies --   1370.5911              1379.6845              1403.5781
 Red. masses --      1.4790                 1.2790                 1.5375
 Frc consts  --      1.6370                 1.4344                 1.7846
 IR Inten    --     16.8897                 7.0007                 9.6696

                     49                     50                     51
                      A                      A                      A
 Frequencies --   1441.9823              1445.4365              1482.7186
 Red. masses --      1.4347                 1.2541                 1.1599
 Frc consts  --      1.7576                 1.5438                 1.5025
 IR Inten    --      6.0584                 3.9282                 2.0044

                     52                     53                     54
                      A                      A                      A
 Frequencies --   1499.9883              1508.6381              1509.6463
 Red. masses --      1.0887                 1.2104                 1.0484
 Frc consts  --      1.4432                 1.6232                 1.4077
 IR Inten    --      2.2484                 9.4320                 6.7388

                     55                     56                     57
                      A                      A                      A
 Frequencies --   1510.2541              1517.6844              1520.3451
 Red. masses --      1.0414                 1.1149                 1.1038
 Frc consts  --      1.3995                 1.5130                 1.5032
 IR Inten    --      5.9722                 7.6664                 4.2193

                     58                     59                     60
                      A                      A                      A
 Frequencies --   1523.0806              1547.6608              1549.1849
 Red. masses --      1.0690                 1.1196                 1.1672
 Frc consts  --      1.4610                 1.5800                 1.6504
 IR Inten    --      9.2709                 3.6030                 8.4424

                     61                     62                     63
                      A                      A                      A
 Frequencies --   2373.6407              2956.5109              3036.1445
 Red. masses --     11.7975                 1.0607                 1.0658
 Frc consts  --     39.1626                 5.4627                 5.7886
 IR Inten    --      0.6637                88.3175                16.7157

                     64                     65                     66
                      A                      A                      A
 Frequencies --   3037.3244              3045.4257              3054.3099
 Red. masses --      1.0346                 1.0759                 1.0731
 Frc consts  --      5.6236                 5.8791                 5.8981
 IR Inten    --     40.3431                 9.0175                55.5799

                     67                     68                     69
                      A                      A                      A
 Frequencies --   3071.7359              3072.2135              3097.4015
 Red. masses --      1.0717                 1.0960                 1.1015
 Frc consts  --      5.9579                 6.0950                 6.2261
 IR Inten    --     51.6782                 7.7952                14.7371

                     70                     71                     72
                      A                      A                      A
 Frequencies --   3097.6621              3112.4021              3116.6145
 Red. masses --      1.1015                 1.0971                 1.1031
 Frc consts  --      6.2272                 6.2617                 6.3128
 IR Inten    --     13.8312                33.2597                35.3679

                     73                     74                     75
                      A                      A                      A
 Frequencies --   3142.3423              3148.0656              3156.2138
 Red. masses --      1.0832                 1.0547                 1.0630
 Frc consts  --      6.3017                 6.1583                 6.2388
 IR Inten    --     21.8383                18.3956                17.6895

                     76                     77                     78
                      A                      A                      A
 Frequencies --   3221.8094              3243.0570              3477.5060
 Red. masses --      1.1165                 1.1123                 1.0735
 Frc consts  --      6.8284                 6.8925                 7.6486
 IR Inten    --     12.2154                16.8536                 1.3329

 - Thermochemistry -
 -------------------
 Temperature   298.150 Kelvin.  Pressure   1.00000 Atm.
 Atom     1 has atomic number  6 and mass  12.00000

 Molecular mass:   151.13610 amu.
 Principal axes and moments of inertia in atomic units:
                           1         2         3
     Eigenvalues --  1424.460092766.456903175.96220
           X            0.99997   0.00243  -0.00681
           Y           -0.00275   0.99892  -0.04637
           Z            0.00669   0.04639   0.99890
 This molecule is an asymmetric top.
 Rotational symmetry number  1.
 Warning -- assumption of classical behavior for rotation
           may cause significant error
 Rotational temperatures (Kelvin)      0.06080     0.03131     0.02727
 Rotational constants (GHZ):           1.26697     0.65237     0.56825
 Zero-point vibrational energy     662167.9 (Joules/Mol)
                                  158.26193 (Kcal/Mol)
 Warning -- explicit consideration of  18 degrees of freedom as
           vibrations may cause significant error
 Vibrational temperatures:     26.96    63.71    78.11   137.06   148.28
          (Kelvin)            216.78   270.44   293.68   358.61   381.49
                              398.34   428.47   484.65   556.85   579.40
                              693.56   762.12   820.53  1018.70  1037.23
                             1156.38  1164.50  1211.44  1236.40  1335.92
                             1376.55  1389.62  1450.96  1526.93  1532.34
                             1541.41  1541.80  1551.14  1556.89  1625.37
                             1656.63  1681.29  1694.63  1705.35  1724.43
                             1743.35  1768.88  1815.47  1839.10  1948.21
                             1971.97  1985.06  2019.44  2074.69  2079.66
                             2133.30  2158.15  2170.59  2172.04  2172.92
                             2183.61  2187.44  2191.37  2226.74  2228.93
                             3415.14  4253.76  4368.33  4370.03  4381.69
                             4394.47  4419.54  4420.23  4456.47  4456.84
                             4478.05  4484.11  4521.13  4529.36  4541.09
                             4635.47  4666.04  5003.36

 Zero-point correction=                           0.252206 (Hartree/Particle)
 Thermal correction to Energy=                    0.265408
 Thermal correction to Enthalpy=                  0.266352
 Thermal correction to Gibbs Free Energy=         0.211031
 Sum of electronic and zero-point Energies=           -445.735875
 Sum of electronic and thermal Energies=              -445.722674
 Sum of electronic and thermal Enthalpies=            -445.721730
 Sum of electronic and thermal Free Energies=         -445.777051

                     E (Thermal)             CV                S
                      KCal/Mol        Cal/Mol-Kelvin    Cal/Mol-Kelvin
 Total                  166.546             47.379            116.433
 Electronic               0.000              0.000              0.000
 Translational            0.889              2.981             40.949
 Rotational               0.889              2.981             30.904
 Vibrational            164.768             41.417             44.579
 Vibration     1          0.593              1.986              6.764
 Vibration     2          0.595              1.980              5.058
 Vibration     3          0.596              1.976              4.655
 Vibration     4          0.603              1.953              3.549
 Vibration     5          0.605              1.947              3.396
 Vibration     6          0.618              1.902              2.664
 Vibration     7          0.633              1.856              2.248
 Vibration     8          0.640              1.834              2.096
 Vibration     9          0.662              1.764              1.736
 Vibration    10          0.671              1.737              1.628
 Vibration    11          0.678              1.716              1.553
 Vibration    12          0.691              1.678              1.429
 Vibration    13          0.718              1.602              1.227
 Vibration    14          0.755              1.498              1.012
 Vibration    15          0.768              1.464              0.953
 Vibration    16          0.838              1.290              0.705
 Vibration    17          0.885              1.184              0.588
 Vibration    18          0.926              1.095              0.504

 Optimization completed.
    -- Stationary point found.
 Normal termination of Gaussian 16 at Tue Dec  8 19:48:14 2020.

 ----------------------------------------------------------------------
 # B3LYP/6-311++G(d,p) empiricaldispersion=gd3bj scf=xqc pop=npa geom=c
 heck
 ----------------------------------------------------------------------

 ---------------------------------------
 CID_104804871_JID_1251_Energie_neutraal
 ---------------------------------------
 Structure from the checkpoint file:  "JID_1251.chk"
 Charge =  0 Multiplicity = 1

 SCF Done:  E(RB3LYP) =  -446.116851301     A.U. after   14 cycles
 Normal termination of Gaussian 16 at Tue Dec  8 19:51:22 2020.

 ----------------------------------------------------------------------
 # B3LYP/6-311++G(d,p) empiricaldispersion=gd3bj scf=xqc pop=npa geom=c
 heck
 ----------------------------------------------------------------------

 -------------------------------------
 CID_104804871_JID_1251_Energie_kation
 -------------------------------------
 Structure from the checkpoint file:  "JID_1251.chk"
 Charge =  1 Multiplicity = 2

 SCF Done:  E(UB3LYP) =  -445.819279668     A.U. after   33 cycles
 SCF Done:  E(UB3LYP) =  -445.819279668     a.u. after    2 cycles
 Normal termination of Gaussian 16 at Tue Dec  8 20:06:57 2020.
 Gaussian 16:  ES64L-G16RevA.03 25-Dec-2016

 ----------------------------------------------------------------------
 # B3LYP/6-311++G(d,p) empiricaldispersion=gd3bj scf=xqc pop=npa geom=c
 heck
 ----------------------------------------------------------------------

 ------------------------------------
 CID_104804871_JID_1251_Energie_anion
 ------------------------------------
 Structure from the checkpoint file:  "JID_1251.chk"
 Charge = -1 Multiplicity = 2

                         Standard orientation:
 ---------------------------------------------------------------------
 Center     Atomic      Atomic             Coordinates (Angstroms)
 Number     Number       Type             X           Y           Z
 ---------------------------------------------------------------------
      1          6           0        3.857061    0.982481   -0.962218
      2          6           0        2.868731    0.350406   -0.092552
      3          6           0        2.058861   -0.176596    0.634964
      4          6           0        1.043267   -0.797579    1.486219
      5          6           0       -0.286910   -0.012665    1.530526
      6          6           0       -0.904836    0.416158    0.188802
      7          6           0       -1.344638   -0.703962   -0.759561
      8          6           0       -0.443762   -1.789936   -1.291983
      9          6           0       -1.557516   -2.138350   -0.332355
     10          7           0       -2.022877    1.319730    0.517066
     11          6           0       -2.450764    2.188564   -0.570956
     12          1           0        3.519788    0.994932   -2.005820
     13          1           0        4.815329    0.449727   -0.930357
     14          1           0        4.045650    2.020655   -0.662800
     15          1           0        0.872401   -1.829038    1.156306
     16          1           0        1.424138   -0.876911    2.513441
     17          1           0       -1.017269   -0.604706    2.097846
     18          1           0       -0.130233    0.911483    2.094429
     19          1           0       -0.158453    1.029593   -0.332593
     20          1           0       -2.064443   -0.344741   -1.493095
     21          1           0       -0.562199   -2.073573   -2.334549
     22          1           0        0.582719   -1.831620   -0.945302
     23          1           0       -1.285599   -2.422962    0.679961
     24          1           0       -2.423763   -2.670856   -0.715785
     25          1           0       -2.811349    0.757078    0.834692
     26          1           0       -2.766434    1.674376   -1.497350
     27          1           0       -3.289517    2.804477   -0.229525
     28          1           0       -1.627586    2.862843   -0.834275
 ---------------------------------------------------------------------

 SCF Done:  E(UB3LYP) =  -446.099753793     A.U. after   33 cycles
 SCF Done:  E(UB3LYP) =  -446.099753793     a.u. after    1 cycles

 The electronic state is 2-A.
 Alpha  occ. eigenvalues --  -14.19515 -10.09779 -10.09566 -10.08395 -10.08389
 Alpha  occ. eigenvalues --  -10.07319 -10.07247 -10.07060 -10.06677 -10.06284
 Alpha  occ. eigenvalues --  -10.05819  -0.80761  -0.75214  -0.70503  -0.66726
 Alpha  occ. eigenvalues --   -0.62252  -0.58284  -0.54209  -0.52358  -0.49972
 Alpha  occ. eigenvalues --   -0.46057  -0.41279  -0.39290  -0.37851  -0.35805
 Alpha  occ. eigenvalues --   -0.35429  -0.34299  -0.32967  -0.32496  -0.32308
 Alpha  occ. eigenvalues --   -0.31356  -0.29440  -0.28502  -0.26575  -0.26197
 Alpha  occ. eigenvalues --   -0.24870  -0.23131  -0.19894  -0.18644  -0.15608
 Alpha  occ. eigenvalues --   -0.15452  -0.12468   0.04571
 Alpha virt. eigenvalues --    0.06192   0.07070   0.07517   0.08566   0.09319
 Alpha virt. eigenvalues --    0.09666   0.09893   0.10354   0.11236   0.11505
 Alpha virt. eigenvalues --    0.11806   0.12883   0.13548   0.13925   0.14319

  Beta  occ. eigenvalues --  -14.19502 -10.09775 -10.09557 -10.08364 -10.08330
  Beta  occ. eigenvalues --  -10.07308 -10.07241 -10.07038 -10.06663 -10.06281
  Beta  occ. eigenvalues --  -10.05816  -0.80739  -0.75190  -0.70486  -0.66680
  Beta  occ. eigenvalues --   -0.62216  -0.58233  -0.54151  -0.52324  -0.49917
  Beta  occ. eigenvalues --   -0.46023  -0.41253  -0.39252  -0.37795  -0.35762
  Beta  occ. eigenvalues --   -0.35381  -0.34283  -0.32931  -0.32439  -0.32255
  Beta  occ. eigenvalues --   -0.31325  -0.29418  -0.28471  -0.26548  -0.26167
  Beta  occ. eigenvalues --   -0.24849  -0.23113  -0.19867  -0.18620  -0.15589
  Beta  occ. eigenvalues --   -0.15434  -0.12441
  Beta virt. eigenvalues --    0.06685   0.07280   0.07491   0.08137   0.09013
  Beta virt. eigenvalues --    0.09784   0.10097   0.10397   0.10756   0.11784
  Beta virt. eigenvalues --    0.11975   0.12162   0.13116   0.13776   0.14053

 Mulliken charges and spin densities:
               1          2
     1  C    2.480317  -2.880025
     2  C   -1.635794   1.446919
     3  C   -0.355844   0.436283
     4  C    0.341257  -0.560974
     5  C   -1.258552   0.677502
     6  C    0.439144  -1.060500
     7  C   -0.925916   1.319670
     8  C    0.277248  -0.785185
     9  C    0.657261  -1.087614
    10  N   -0.103509   0.150987
    11  C    0.786435  -1.075966
    12  H   -0.424470   0.596755
    13  H   -0.445356   0.601962
    14  H   -0.317324   0.476001
    15  H    0.092712   0.045171
    16  H   -0.012597   0.211030
    17  H   -0.004109   0.136660
    18  H    0.178484   0.011855
    19  H    0.556496  -0.383379
    20  H   -0.122928   0.386355
    21  H   -0.175291   0.330343
    22  H    0.135313  -0.027536
    23  H    0.101710   0.020983
    24  H   -0.499440   0.663587
    25  H    0.050356   0.167211
    26  H   -0.341868   0.443583
    27  H   -0.220001   0.351088
    28  H   -0.253734   0.387233
 Sum of Mulliken charges =  -1.00000   1.00000

 Dipole moment (field-independent basis, Debye):
    X=             -1.4935    Y=             -2.1072    Z=              4.3781  Tot=              5.0832
 Quadrupole moment (field-independent basis, Debye-Ang):
   XX=           -148.4071   YY=           -113.7384   ZZ=           -106.2838
   XY=             -6.6887   XZ=              0.5982   YZ=             -1.3681

 Summary of Natural Population Analysis:

                                       Natural Population
                Natural  -----------------------------------------------
    Atom  No    Charge         Core      Valence    Rydberg      Total
 -----------------------------------------------------------------------
      C    1   -0.31904      0.99961     2.31314    0.00629     3.31904
      C    2   -0.00234      0.99924     1.99688    0.00622     3.00234
      C    3   -0.02324      0.99925     2.01613    0.00786     3.02324
      C    4   -0.22479      0.99957     2.21727    0.00795     3.22479
      C    5   -0.18170      0.99960     2.17334    0.00876     3.18170
      C    6   -0.01222      0.99956     1.99974    0.01291     3.01222
      C    7   -0.12367      0.99958     2.11156    0.01253     3.12367
      C    8   -0.19779      0.99961     2.18914    0.00903     3.19779
      C    9   -0.20230      0.99962     2.19316    0.00952     3.20230
      N   10   -0.33792      0.99975     2.82639    0.01177     3.83792
      C   11   -0.17806      0.99966     2.17015    0.00826     3.17806
      H   12    0.11343      0.00000     0.38488    0.00169     0.38657
      H   13    0.11154      0.00000     0.38675    0.00171     0.38846
      H   14    0.11260      0.00000     0.38560    0.00180     0.38740
      H   15    0.10687      0.00000     0.39130    0.00183     0.39313
      H   16    0.10914      0.00000     0.38964    0.00122     0.39086
      H   17    0.09530      0.00000     0.40348    0.00122     0.40470
      H   18    0.10601      0.00000     0.39241    0.00158     0.39399
      H   19    0.09966      0.00000     0.39801    0.00234     0.40034
      H   20    0.10579      0.00000     0.39232    0.00188     0.39421
      H   21    0.10168      0.00000     0.39727    0.00105     0.39832
      H   22    0.10509      0.00000     0.39355    0.00136     0.39491
      H   23    0.09793      0.00000     0.40103    0.00104     0.40207
      H   24    0.10355      0.00000     0.39508    0.00136     0.39645
      H   25    0.16906      0.00000     0.32819    0.00274     0.33094
      H   26    0.07976      0.00000     0.41826    0.00198     0.42024
      H   27    0.09346      0.00000     0.40558    0.00096     0.40654
      H   28    0.09219      0.00000     0.40650    0.00131     0.40781
 =======================================================================
   * Total *   -0.00000     10.99506    30.87678    0.12816    42.00000

 Normal termination of Gaussian 16 at Tue Dec  8 20:16:35 2020.
