 Gaussian 16, Revision A.03,

 -----------------------------------------------------------
 # opt freq B3LYP/6-31G(d) empiricaldispersion=gd3bj scf=xqc
 -----------------------------------------------------------

 -------------------------------
 CID_128924372_JID_8821_neutraal
 -------------------------------
 Symbolic Z-matrix:
 Charge =  0 Multiplicity = 1

 SCF Done:  E(RB3LYP) =  -827.789093610     A.U. after   14 cycles
 SCF Done:  E(RB3LYP) =  -827.797440526     A.U. after   12 cycles
 SCF Done:  E(RB3LYP) =  -827.795475423     A.U. after   12 cycles
 SCF Done:  E(RB3LYP) =  -827.798389053     A.U. after   11 cycles
 SCF Done:  E(RB3LYP) =  -827.798776455     A.U. after   11 cycles
 SCF Done:  E(RB3LYP) =  -827.798852858     A.U. after   10 cycles
 SCF Done:  E(RB3LYP) =  -827.798957716     A.U. after   11 cycles
 SCF Done:  E(RB3LYP) =  -827.799071779     A.U. after   10 cycles
 SCF Done:  E(RB3LYP) =  -827.799292244     A.U. after   11 cycles
 SCF Done:  E(RB3LYP) =  -827.799436581     A.U. after   12 cycles
 SCF Done:  E(RB3LYP) =  -827.803027887     A.U. after    9 cycles
 SCF Done:  E(RB3LYP) =  -827.803028821     A.U. after    9 cycles
 SCF Done:  E(RB3LYP) =  -827.803028774     A.U. after    6 cycles
 SCF Done:  E(RB3LYP) =  -827.803028716     A.U. after    7 cycles
 SCF Done:  E(RB3LYP) =  -827.803028660     A.U. after    6 cycles
 Optimization completed.
    -- Stationary point found.
 Normal termination of Gaussian 16 at Fri Dec 11 22:56:36 2020.

 --------------------------------------------------------------------
 #N Geom=AllCheck Guess=TCheck SCRF=Check GenChk RB3LYP/6-31G(d) Freq
 --------------------------------------------------------------------

 Structure from the checkpoint file:  "JID_8821.chk"
 -------------------------------
 CID_128924372_JID_8821_neutraal
 -------------------------------
 Charge =  0 Multiplicity = 1

 SCF Done:  E(RB3LYP) =  -827.803028660     A.U. after    1 cycles

  Exact polarizability: 179.320  -0.971 148.921  -0.022  -5.469 133.371
 Approx polarizability: 225.733   2.634 231.446  -2.650 -14.241 200.010

                      1                      2                      3
                      A                      A                      A
 Frequencies --     23.6676                42.5840                77.1740
 Red. masses --      3.5224                 5.1987                 5.3948
 Frc consts  --      0.0012                 0.0056                 0.0189
 IR Inten    --      0.2051                 0.6767                 2.0718

                      4                      5                      6
                      A                      A                      A
 Frequencies --     91.3541               131.1402               152.2741
 Red. masses --      4.1039                 3.9232                 2.9408
 Frc consts  --      0.0202                 0.0398                 0.0402
 IR Inten    --      1.7431                 0.9538                 0.1752

                      7                      8                      9
                      A                      A                      A
 Frequencies --    159.1248               172.6976               205.0189
 Red. masses --      3.2537                 2.4406                 2.6756
 Frc consts  --      0.0485                 0.0429                 0.0663
 IR Inten    --      2.1008                 0.8954                 0.2802

                     10                     11                     12
                      A                      A                      A
 Frequencies --    252.3271               273.4769               287.2307
 Red. masses --      3.0947                 1.3368                 2.1097
 Frc consts  --      0.1161                 0.0589                 0.1025
 IR Inten    --      1.0869                 1.2739                 3.6712

                     13                     14                     15
                      A                      A                      A
 Frequencies --    298.8272               331.3814               355.1881
 Red. masses --      2.7765                 3.1186                 2.4646
 Frc consts  --      0.1461                 0.2018                 0.1832
 IR Inten    --      2.7285                 2.1900                 2.0425

                     16                     17                     18
                      A                      A                      A
 Frequencies --    362.4014               375.5756               410.9643
 Red. masses --      2.3965                 2.4842                 2.5417
 Frc consts  --      0.1854                 0.2065                 0.2529
 IR Inten    --      0.5891                 0.8663                 0.8907

                     19                     20                     21
                      A                      A                      A
 Frequencies --    442.3783               453.4010               471.1075
 Red. masses --      2.3145                 2.4964                 3.0165
 Frc consts  --      0.2669                 0.3024                 0.3945
 IR Inten    --      6.9021                 2.9762                 6.9597

                     22                     23                     24
                      A                      A                      A
 Frequencies --    494.8642               514.1656               535.9921
 Red. masses --      3.5610                 3.0503                 4.8280
 Frc consts  --      0.5138                 0.4751                 0.8172
 IR Inten    --      4.8733                13.4831                13.0778

                     25                     26                     27
                      A                      A                      A
 Frequencies --    575.7143               613.8166               619.4829
 Red. masses --      3.2299                 2.7948                 2.8256
 Frc consts  --      0.6308                 0.6204                 0.6389
 IR Inten    --      6.5452                 1.4997                 1.8253

                     28                     29                     30
                      A                      A                      A
 Frequencies --    673.8341               727.6911               772.9179
 Red. masses --      2.9910                 1.9970                 2.8302
 Frc consts  --      0.8002                 0.6231                 0.9962
 IR Inten    --      8.8715                 8.9580                12.1470

                     31                     32                     33
                      A                      A                      A
 Frequencies --    801.7174               811.8825               821.6976
 Red. masses --      3.4891                 1.4154                 2.0128
 Frc consts  --      1.3213                 0.5497                 0.8007
 IR Inten    --      4.1300                 2.3590                 1.5117

                     34                     35                     36
                      A                      A                      A
 Frequencies --    832.2706               845.5887               876.0837
 Red. masses --      1.7026                 3.2544                 2.0616
 Frc consts  --      0.6949                 1.3710                 0.9323
 IR Inten    --      0.5944                 3.4869                 4.5483

                     37                     38                     39
                      A                      A                      A
 Frequencies --    891.7525               908.9312               919.7838
 Red. masses --      2.4256                 2.6290                 1.9572
 Frc consts  --      1.1365                 1.2797                 0.9756
 IR Inten    --      2.2099                10.8213                 3.0009

                     40                     41                     42
                      A                      A                      A
 Frequencies --    932.0066               942.2248               942.7765
 Red. masses --      2.1696                 2.6771                 2.4959
 Frc consts  --      1.1104                 1.4003                 1.3070
 IR Inten    --      4.3178                 2.7205                 2.1049

                     43                     44                     45
                      A                      A                      A
 Frequencies --    966.3970               988.3314              1013.3102
 Red. masses --      1.9610                 2.7592                 2.4617
 Frc consts  --      1.0791                 1.5879                 1.4892
 IR Inten    --      1.0149                11.3315                 1.7069

                     46                     47                     48
                      A                      A                      A
 Frequencies --   1027.7776              1043.2221              1062.1364
 Red. masses --      2.0275                 1.4520                 1.8502
 Frc consts  --      1.2619                 0.9311                 1.2298
 IR Inten    --      9.2090                 1.3997                55.8051

                     49                     50                     51
                      A                      A                      A
 Frequencies --   1065.5236              1072.7882              1103.9189
 Red. masses --      1.2192                 2.1702                 1.7337
 Frc consts  --      0.8156                 1.4716                 1.2448
 IR Inten    --     12.2524                12.3480                51.9146

                     52                     53                     54
                      A                      A                      A
 Frequencies --   1118.5880              1123.7202              1150.9250
 Red. masses --      2.3783                 2.3399                 3.1241
 Frc consts  --      1.7533                 1.7409                 2.4382
 IR Inten    --     10.7293                31.9886                19.2972

                     55                     56                     57
                      A                      A                      A
 Frequencies --   1157.5673              1160.1691              1176.2390
 Red. masses --      2.7069                 2.9662                 2.5408
 Frc consts  --      2.1370                 2.3523                 2.0712
 IR Inten    --     43.6280                52.8071                83.7180

                     58                     59                     60
                      A                      A                      A
 Frequencies --   1214.0381              1223.9838              1227.6110
 Red. masses --      1.7657                 1.5338                 1.4386
 Frc consts  --      1.5333                 1.3538                 1.2773
 IR Inten    --      5.0066                 7.9886                19.6185

                     61                     62                     63
                      A                      A                      A
 Frequencies --   1240.6684              1248.5580              1263.5476
 Red. masses --      3.6119                 1.4495                 1.4520
 Frc consts  --      3.2757                 1.3313                 1.3658
 IR Inten    --     14.8435                47.9217                51.1311

                     64                     65                     66
                      A                      A                      A
 Frequencies --   1265.7889              1286.3624              1296.1767
 Red. masses --      1.2764                 1.3845                 1.4391
 Frc consts  --      1.2049                 1.3498                 1.4245
 IR Inten    --      9.5365                 5.7452                 7.5049

                     67                     68                     69
                      A                      A                      A
 Frequencies --   1301.2886              1307.8133              1330.3469
 Red. masses --      1.2553                 1.5315                 1.5668
 Frc consts  --      1.2525                 1.5433                 1.6338
 IR Inten    --     17.6349                19.8981                47.6933

                     70                     71                     72
                      A                      A                      A
 Frequencies --   1336.5657              1342.0088              1358.2216
 Red. masses --      1.4420                 1.3685                 1.4845
 Frc consts  --      1.5177                 1.4521                 1.6135
 IR Inten    --     49.4396                 6.3161                 7.7268

                     73                     74                     75
                      A                      A                      A
 Frequencies --   1369.3849              1381.1049              1388.4978
 Red. masses --      1.4383                 1.3337                 1.3297
 Frc consts  --      1.5891                 1.4989                 1.5104
 IR Inten    --      1.4277                 0.6818                 9.8666

                     76                     77                     78
                      A                      A                      A
 Frequencies --   1405.4957              1407.8290              1411.7977
 Red. masses --      1.3584                 1.3760                 1.3186
 Frc consts  --      1.5810                 1.6068                 1.5485
 IR Inten    --      0.6222                 0.3521                 6.6839

                     79                     80                     81
                      A                      A                      A
 Frequencies --   1416.5105              1436.3790              1448.5879
 Red. masses --      1.3744                 1.3153                 1.3302
 Frc consts  --      1.6248                 1.5989                 1.6446
 IR Inten    --      7.9645                17.6811                 5.8833

                     82                     83                     84
                      A                      A                      A
 Frequencies --   1462.2859              1492.5783              1499.7520
 Red. masses --      2.0928                 1.1245                 1.1124
 Frc consts  --      2.6366                 1.4760                 1.4742
 IR Inten    --    125.3395                12.5092                 2.8517

                     85                     86                     87
                      A                      A                      A
 Frequencies --   1506.6364              1511.3910              1513.0716
 Red. masses --      1.0906                 1.1170                 1.1042
 Frc consts  --      1.4586                 1.5034                 1.4894
 IR Inten    --     12.5398                 6.3585                 6.5912

                     88                     89                     90
                      A                      A                      A
 Frequencies --   1518.3168              1523.3521              1528.8826
 Red. masses --      1.0584                 1.0860                 1.0631
 Frc consts  --      1.4375                 1.4849                 1.4641
 IR Inten    --      6.5325                 1.5963                 5.1418

                     91                     92                     93
                      A                      A                      A
 Frequencies --   1532.0840              1536.3868              1539.5774
 Red. masses --      1.1034                 1.1103                 1.1114
 Frc consts  --      1.5259                 1.5442                 1.5520
 IR Inten    --     22.7778                 5.7886                 9.7951

                     94                     95                     96
                      A                      A                      A
 Frequencies --   1705.6878              2976.7114              3010.1059
 Red. masses --     10.1101                 1.0719                 1.0683
 Frc consts  --     17.3303                 5.5960                 5.7029
 IR Inten    --    192.2786                44.5213                69.1499

                     97                     98                     99
                      A                      A                      A
 Frequencies --   3025.0643              3032.7121              3042.0809
 Red. masses --      1.0822                 1.0719                 1.0758
 Frc consts  --      5.8347                 5.8087                 5.8656
 IR Inten    --     14.3715                20.0554                41.5127

                    100                    101                    102
                      A                      A                      A
 Frequencies --   3055.7595              3062.1036              3066.7708
 Red. masses --      1.0681                 1.0456                 1.0764
 Frc consts  --      5.8764                 5.7763                 5.9647
 IR Inten    --     14.0253                21.0908                46.2113

                    103                    104                    105
                      A                      A                      A
 Frequencies --   3067.4305              3069.4945              3084.5849
 Red. masses --      1.0690                 1.0597                 1.0591
 Frc consts  --      5.9264                 5.8827                 5.9369
 IR Inten    --     45.2096                48.9944                42.3032

                    106                    107                    108
                      A                      A                      A
 Frequencies --   3090.7486              3103.7273              3104.5109
 Red. masses --      1.0604                 1.0987                 1.0917
 Frc consts  --      5.9680                 6.2356                 6.1990
 IR Inten    --     11.4271                50.9035                46.1685

                    109                    110                    111
                      A                      A                      A
 Frequencies --   3113.7266              3121.3650              3130.8124
 Red. masses --      1.0928                 1.1078                 1.0998
 Frc consts  --      6.2424                 6.3590                 6.3513
 IR Inten    --     48.2342                 8.4713                23.7394

                    112                    113                    114
                      A                      A                      A
 Frequencies --   3136.9499              3145.0718              3147.4525
 Red. masses --      1.1073                 1.0956                 1.1029
 Frc consts  --      6.4200                 6.3849                 6.4375
 IR Inten    --     32.7429                 6.5295                16.6862

                    115                    116                    117
                      A                      A                      A
 Frequencies --   3155.7784              3179.2033              3251.7435
 Red. masses --      1.1089                 1.0924                 1.0860
 Frc consts  --      6.5064                 6.5051                 6.7656
 IR Inten    --     27.6887                 3.9260                 7.3871

 - Thermochemistry -
 -------------------
 Temperature   298.150 Kelvin.  Pressure   1.00000 Atm.
 Atom     1 has atomic number  6 and mass  12.00000

 Molecular mass:   253.16779 amu.
 Principal axes and moments of inertia in atomic units:
                           1         2         3
     Eigenvalues --  2224.796716460.929377077.42105
           X            0.99995  -0.00718   0.00688
           Y            0.00727   0.99989  -0.01327
           Z           -0.00678   0.01332   0.99989
 This molecule is an asymmetric top.
 Rotational symmetry number  1.
 Warning -- assumption of classical behavior for rotation
           may cause significant error
 Rotational temperatures (Kelvin)      0.03893     0.01341     0.01224
 Rotational constants (GHZ):           0.81119     0.27933     0.25500
 Zero-point vibrational energy     960646.7 (Joules/Mol)
                                  229.60007 (Kcal/Mol)
 Warning -- explicit consideration of  27 degrees of freedom as
           vibrations may cause significant error
 Vibrational temperatures:     34.05    61.27   111.04   131.44   188.68
          (Kelvin)            219.09   228.95   248.47   294.98   363.04
                              393.47   413.26   429.95   476.78   511.04
                              521.41   540.37   591.29   636.48   652.34
                              677.82   712.00   739.77   771.17   828.32
                              883.15   891.30   969.50  1046.99  1112.06
                             1153.49  1168.12  1182.24  1197.45  1216.61
                             1260.49  1283.03  1307.75  1323.36  1340.95
                             1355.65  1356.45  1390.43  1421.99  1457.93
                             1478.74  1500.96  1528.18  1533.05  1543.50
                             1588.29  1609.40  1616.78  1655.92  1665.48
                             1669.22  1692.35  1746.73  1761.04  1766.26
                             1785.05  1796.40  1817.96  1821.19  1850.79
                             1864.91  1872.26  1881.65  1914.07  1923.02
                             1930.85  1954.18  1970.24  1987.10  1997.74
                             2022.19  2025.55  2031.26  2038.04  2066.63
                             2084.19  2103.90  2147.49  2157.81  2167.71
                             2174.55  2176.97  2184.52  2191.76  2199.72
                             2204.33  2210.52  2215.11  2454.10  4282.82
                             4330.87  4352.39  4363.40  4376.88  4396.56
                             4405.68  4412.40  4413.35  4416.32  4438.03
                             4446.90  4465.57  4466.70  4479.96  4490.95
                             4504.54  4513.37  4525.06  4528.48  4540.46
                             4574.16  4678.53

 Zero-point correction=                           0.365891 (Hartree/Particle)
 Thermal correction to Energy=                    0.382255
 Thermal correction to Enthalpy=                  0.383200
 Thermal correction to Gibbs Free Energy=         0.321974
 Sum of electronic and zero-point Energies=           -827.437138
 Sum of electronic and thermal Energies=              -827.420773
 Sum of electronic and thermal Enthalpies=            -827.419829
 Sum of electronic and thermal Free Energies=         -827.481055

                     E (Thermal)             CV                S
                      KCal/Mol        Cal/Mol-Kelvin    Cal/Mol-Kelvin
 Total                  239.869             66.081            128.861
 Electronic               0.000              0.000              0.000
 Translational            0.889              2.981             42.487
 Rotational               0.889              2.981             32.986
 Vibrational            238.091             60.119             53.388
 Vibration     1          0.593              1.985              6.300
 Vibration     2          0.595              1.980              5.135
 Vibration     3          0.599              1.964              3.961
 Vibration     4          0.602              1.955              3.631
 Vibration     5          0.612              1.922              2.929
 Vibration     6          0.619              1.900              2.644
 Vibration     7          0.621              1.892              2.560
 Vibration     8          0.626              1.876              2.406
 Vibration     9          0.640              1.833              2.088
 Vibration    10          0.664              1.759              1.714
 Vibration    11          0.676              1.722              1.574
 Vibration    12          0.684              1.697              1.490
 Vibration    13          0.692              1.676              1.423
 Vibration    14          0.714              1.613              1.253
 Vibration    15          0.731              1.565              1.143
 Vibration    16          0.736              1.550              1.112
 Vibration    17          0.746              1.522              1.057
 Vibration    18          0.775              1.446              0.923
 Vibration    19          0.802              1.378              0.819
 Vibration    20          0.812              1.353              0.786
 Vibration    21          0.828              1.314              0.734
 Vibration    22          0.850              1.261              0.671
 Vibration    23          0.869              1.219              0.624
 Vibration    24          0.891              1.170              0.574
 Vibration    25          0.932              1.084              0.493
 Vibration    26          0.973              1.003              0.426
 Vibration    27          0.979              0.991              0.417

 Optimization completed.
    -- Stationary point found.
 Normal termination of Gaussian 16 at Fri Dec 11 23:19:15 2020.

 ----------------------------------------------------------------------
 # B3LYP/6-311++G(d,p) empiricaldispersion=gd3bj scf=xqc pop=npa geom=c
 heck
 ----------------------------------------------------------------------

 ---------------------------------------
 CID_128924372_JID_8821_Energie_neutraal
 ---------------------------------------
 Structure from the checkpoint file:  "JID_8821.chk"
 Charge =  0 Multiplicity = 1

 SCF Done:  E(RB3LYP) =  -828.032578234     A.U. after   15 cycles
 Normal termination of Gaussian 16 at Fri Dec 11 23:28:08 2020.

 ----------------------------------------------------------------------
 # B3LYP/6-311++G(d,p) empiricaldispersion=gd3bj scf=xqc pop=npa geom=c
 heck
 ----------------------------------------------------------------------

 -------------------------------------
 CID_128924372_JID_8821_Energie_kation
 -------------------------------------
 Structure from the checkpoint file:  "JID_8821.chk"
 Charge =  1 Multiplicity = 2

 SCF Done:  E(UB3LYP) =  -827.730297468     A.U. after   26 cycles
 Normal termination of Gaussian 16 at Fri Dec 11 23:49:02 2020.
 Gaussian 16:  ES64L-G16RevA.03 25-Dec-2016

 ----------------------------------------------------------------------
 # B3LYP/6-311++G(d,p) empiricaldispersion=gd3bj scf=xqc pop=npa geom=c
 heck
 ----------------------------------------------------------------------

 ------------------------------------
 CID_128924372_JID_8821_Energie_anion
 ------------------------------------
 Structure from the checkpoint file:  "JID_8821.chk"
 Charge = -1 Multiplicity = 2

                         Standard orientation:
 ---------------------------------------------------------------------
 Center     Atomic      Atomic             Coordinates (Angstroms)
 Number     Number       Type             X           Y           Z
 ---------------------------------------------------------------------
      1          6           0        0.471767    1.852824    1.360275
      2          6           0        1.066672    1.996066   -0.042420
      3          6           0        0.193769    1.335852   -1.129030
      4          7           0        0.314432   -0.115754   -1.065134
      5          6           0        1.719476   -0.521818   -1.179420
      6          6           0        2.580141    0.114030   -0.093070
      7          8           0        2.414356    1.528888   -0.114028
      8          6           0        4.061567   -0.298146   -0.195061
      9          6           0        3.797887   -1.383102    0.882896
     10          6           0        2.501683   -0.627712    1.276135
     11          6           0       -0.589979   -1.056220   -0.623097
     12          8           0       -0.184536   -2.139657   -0.199192
     13          6           0       -2.122068   -0.953594   -0.855900
     14          6           0       -2.872381   -1.599424    0.328899
     15          6           0       -3.100611   -0.587343    1.446212
     16          8           0       -3.859202    0.528774    0.989327
     17          6           0       -3.173418    1.237291   -0.029153
     18          6           0       -2.857996    0.346616   -1.237096
     19          1           0        0.229124    0.813325    1.598086
     20          1           0       -0.445719    2.445132    1.447628
     21          1           0        1.186509    2.218252    2.102837
     22          1           0        1.141263    3.062745   -0.284031
     23          1           0       -0.833887    1.652430   -1.001250
     24          1           0        0.537868    1.670797   -2.116549
     25          1           0        2.083053   -0.175628   -2.156970
     26          1           0        1.766594   -1.608341   -1.137384
     27          1           0        4.428649   -0.612218   -1.178336
     28          1           0        4.693148    0.510888    0.182962
     29          1           0        4.557956   -1.504528    1.658775
     30          1           0        3.586734   -2.363082    0.445111
     31          1           0        2.676926    0.071421    2.097893
     32          1           0        1.604786   -1.220861    1.468285
     33          1           0       -2.223858   -1.633168   -1.713910
     34          1           0       -3.850392   -1.950916   -0.020576
     35          1           0       -2.308198   -2.460563    0.692287
     36          1           0       -2.133791   -0.242042    1.853382
     37          1           0       -3.674334   -1.025519    2.267626
     38          1           0       -2.254812    1.674641    0.392958
     39          1           0       -3.829945    2.061968   -0.323304
     40          1           0       -2.342765    0.908561   -2.022138
     41          1           0       -3.819945    0.041024   -1.667313
 ---------------------------------------------------------------------

 SCF Done:  E(UB3LYP) =  -828.016205646     A.U. after   33 cycles
 SCF Done:  E(UB3LYP) =  -828.020283741     a.u. after    8 cycles

 The electronic state is 2-A.
 Alpha  occ. eigenvalues --  -19.03355 -19.03161 -18.99469 -14.25412 -10.18439
 Alpha  occ. eigenvalues --  -10.13925 -10.13366 -10.12512 -10.12142 -10.11386
 Alpha  occ. eigenvalues --  -10.10900 -10.09829 -10.08522 -10.08208 -10.07858
 Alpha  occ. eigenvalues --  -10.07546 -10.07497 -10.07053  -0.95597  -0.94729
 Alpha  occ. eigenvalues --   -0.94473  -0.84329  -0.76468  -0.71907  -0.68718
 Alpha  occ. eigenvalues --   -0.67409  -0.63189  -0.61416  -0.57971  -0.56919
 Alpha  occ. eigenvalues --   -0.56064  -0.54790  -0.51204  -0.49355  -0.46128
 Alpha  occ. eigenvalues --   -0.43844  -0.41636  -0.41341  -0.40916  -0.39416
 Alpha  occ. eigenvalues --   -0.38651  -0.37618  -0.37232  -0.36486  -0.35078
 Alpha  occ. eigenvalues --   -0.34480  -0.34149  -0.33362  -0.32675  -0.31820
 Alpha  occ. eigenvalues --   -0.30332  -0.30177  -0.29429  -0.29267  -0.28655
 Alpha  occ. eigenvalues --   -0.27516  -0.26714  -0.26229  -0.25872  -0.25020
 Alpha  occ. eigenvalues --   -0.23694  -0.23535  -0.22999  -0.21669  -0.21525
 Alpha  occ. eigenvalues --   -0.17912  -0.16984  -0.16217  -0.14365   0.04241
 Alpha virt. eigenvalues --    0.06185   0.06580   0.07093   0.07835   0.08130
 Alpha virt. eigenvalues --    0.08705   0.08920   0.09116   0.09733   0.10638
 Alpha virt. eigenvalues --    0.10792   0.10854   0.11263   0.11578   0.12268

  Beta  occ. eigenvalues --  -19.03355 -19.03157 -18.99468 -14.25411 -10.18438
  Beta  occ. eigenvalues --  -10.13924 -10.13350 -10.12505 -10.12120 -10.11356
  Beta  occ. eigenvalues --  -10.10887 -10.09823 -10.08517 -10.08201 -10.07830
  Beta  occ. eigenvalues --  -10.07539 -10.07490 -10.07034  -0.95591  -0.94720
  Beta  occ. eigenvalues --   -0.94468  -0.84320  -0.76455  -0.71880  -0.68686
  Beta  occ. eigenvalues --   -0.67380  -0.63169  -0.61376  -0.57952  -0.56893
  Beta  occ. eigenvalues --   -0.56040  -0.54747  -0.51174  -0.49322  -0.46105
  Beta  occ. eigenvalues --   -0.43795  -0.41598  -0.41323  -0.40888  -0.39388
  Beta  occ. eigenvalues --   -0.38627  -0.37588  -0.37202  -0.36456  -0.35062
  Beta  occ. eigenvalues --   -0.34457  -0.34123  -0.33342  -0.32659  -0.31797
  Beta  occ. eigenvalues --   -0.30312  -0.30147  -0.29407  -0.29245  -0.28628
  Beta  occ. eigenvalues --   -0.27497  -0.26687  -0.26206  -0.25848  -0.25008
  Beta  occ. eigenvalues --   -0.23677  -0.23510  -0.22977  -0.21653  -0.21506
  Beta  occ. eigenvalues --   -0.17900  -0.16970  -0.16198  -0.14347
  Beta virt. eigenvalues --    0.06178   0.06707   0.07355   0.07572   0.08026
  Beta virt. eigenvalues --    0.08667   0.08820   0.09351   0.09612   0.10046
  Beta virt. eigenvalues --    0.10790   0.11119   0.11204   0.11277   0.12056

 Mulliken charges and spin densities:
               1          2
     1  C    0.792916  -1.318155
     2  C   -0.272383   0.262790
     3  C    0.670978  -0.871894
     4  N    0.126135   0.194817
     5  C    0.682019  -1.254312
     6  C   -0.882232   0.895443
     7  O    0.001592  -0.008188
     8  C   -0.243512  -0.113645
     9  C   -0.135066  -0.349160
    10  C    0.063054  -0.162371
    11  C    0.489471  -1.237809
    12  O   -0.265832   0.023624
    13  C    0.152159   0.304566
    14  C   -0.493618   0.122775
    15  C   -0.156832  -0.200553
    16  O   -0.128130   0.022900
    17  C    0.458744  -0.853807
    18  C   -0.366856  -0.044231
    19  H   -0.133899   0.278524
    20  H   -0.154869   0.303655
    21  H    0.034514   0.152745
    22  H   -0.780191   1.040745
    23  H    0.208707  -0.121250
    24  H   -0.502596   0.720006
    25  H   -0.053227   0.275360
    26  H    0.182424   0.031116
    27  H   -0.021207   0.162317
    28  H    0.027366   0.133325
    29  H    0.022852   0.116389
    30  H    0.131320   0.010736
    31  H    0.094945   0.069148
    32  H    0.201017  -0.005760
    33  H   -0.097160   0.341516
    34  H    0.012868   0.154641
    35  H    0.187781  -0.010262
    36  H    0.190826  -0.050490
    37  H    0.032181   0.168167
    38  H    0.306150  -0.159666
    39  H   -0.498442   0.706950
    40  H   -0.685290   0.876948
    41  H   -0.198675   0.392349
 Sum of Mulliken charges =  -1.00000   1.00000

 Dipole moment (field-independent basis, Debye):
    X=              3.1780    Y=             -5.3104    Z=              3.9384  Tot=              7.3356
 Quadrupole moment (field-independent basis, Debye-Ang):
   XX=           -179.6995   YY=           -167.3947   ZZ=           -155.8151
   XY=              2.8718   XZ=             -5.7002   YZ=              5.6370

 Summary of Natural Population Analysis:

                                       Natural Population
                Natural  -----------------------------------------------
    Atom  No    Charge         Core      Valence    Rydberg      Total
 -----------------------------------------------------------------------
      C    1   -0.30127      0.99963     2.29554    0.00609     3.30127
      C    2    0.06102      0.99954     1.92343    0.01601     2.93898
      C    3   -0.09591      0.99956     2.08367    0.01268     3.09591
      N    4   -0.25859      0.99965     2.74476    0.01419     3.75859
      C    5   -0.10016      0.99953     2.08764    0.01300     3.10016
      C    6    0.13228      0.99945     1.84967    0.01859     2.86772
      O    7   -0.30636      0.99987     3.29680    0.00969     4.30636
      C    8   -0.19000      0.99959     2.18262    0.00779     3.19000
      C    9   -0.19145      0.99965     2.18487    0.00694     3.19145
      C   10   -0.20489      0.99958     2.19657    0.00873     3.20489
      C   11    0.35323      0.99959     1.62390    0.02328     2.64677
      O   12   -0.33569      0.99988     3.33085    0.00495     4.33569
      C   13   -0.14831      0.99954     2.13618    0.01259     3.14831
      C   14   -0.20378      0.99961     2.19573    0.00844     3.20378
      C   15   -0.01071      0.99957     2.00012    0.01102     3.01071
      O   16   -0.29985      0.99989     3.29105    0.00891     4.29985
      C   17   -0.01231      0.99957     1.99916    0.01358     3.01231
      C   18   -0.21025      0.99961     2.20017    0.01047     3.21025
      H   19    0.09826      0.00000     0.40016    0.00158     0.40174
      H   20    0.10324      0.00000     0.39557    0.00119     0.39676
      H   21    0.10583      0.00000     0.39316    0.00101     0.39417
      H   22    0.09671      0.00000     0.40110    0.00219     0.40329
      H   23    0.10850      0.00000     0.38855    0.00295     0.39150
      H   24    0.10277      0.00000     0.39458    0.00265     0.39723
      H   25    0.09990      0.00000     0.39880    0.00129     0.40010
      H   26    0.11796      0.00000     0.38065    0.00139     0.38204
      H   27    0.09674      0.00000     0.40226    0.00100     0.40326
      H   28    0.10558      0.00000     0.39299    0.00143     0.39442
      H   29    0.09543      0.00000     0.40351    0.00106     0.40457
      H   30    0.09640      0.00000     0.40237    0.00122     0.40360
      H   31    0.10206      0.00000     0.39674    0.00120     0.39794
      H   32    0.10914      0.00000     0.38973    0.00114     0.39086
      H   33    0.11734      0.00000     0.38136    0.00129     0.38266
      H   34    0.09864      0.00000     0.40027    0.00109     0.40136
      H   35    0.11555      0.00000     0.38346    0.00099     0.38445
      H   36    0.07733      0.00000     0.42115    0.00152     0.42267
      H   37    0.09005      0.00000     0.40893    0.00101     0.40995
      H   38    0.07580      0.00000     0.42226    0.00194     0.42420
      H   39    0.09526      0.00000     0.40303    0.00171     0.40474
      H   40    0.10944      0.00000     0.38821    0.00235     0.39056
      H   41    0.10506      0.00000     0.39334    0.00160     0.39494
 =======================================================================
   * Total *   -0.00000     17.99332    50.76493    0.24175    69.00000

 Normal termination of Gaussian 16 at Sat Dec 12 02:03:43 2020.
