 Gaussian 16, Revision A.03,

 -----------------------------------------------------------
 # opt freq B3LYP/6-31G(d) empiricaldispersion=gd3bj scf=xqc
 -----------------------------------------------------------

 ------------------------------
 CID_64968699_JID_8337_neutraal
 ------------------------------
 Symbolic Z-matrix:
 Charge =  0 Multiplicity = 1

 SCF Done:  E(RB3LYP) =  -845.097484834     A.U. after   15 cycles
 SCF Done:  E(RB3LYP) =  -845.103824391     A.U. after   12 cycles
 SCF Done:  E(RB3LYP) =  -845.105523935     A.U. after   12 cycles
 SCF Done:  E(RB3LYP) =  -845.106933612     A.U. after   12 cycles
 SCF Done:  E(RB3LYP) =  -845.108462264     A.U. after   13 cycles
 SCF Done:  E(RB3LYP) =  -845.110550871     A.U. after   13 cycles
 SCF Done:  E(RB3LYP) =  -845.112784951     A.U. after   13 cycles
 SCF Done:  E(RB3LYP) =  -845.113632398     A.U. after   13 cycles
 SCF Done:  E(RB3LYP) =  -845.114211917     A.U. after   12 cycles
 SCF Done:  E(RB3LYP) =  -845.114594386     A.U. after   12 cycles
 SCF Done:  E(RB3LYP) =  -845.114786549     A.U. after    9 cycles
 SCF Done:  E(RB3LYP) =  -845.114798576     A.U. after    9 cycles
 SCF Done:  E(RB3LYP) =  -845.114805577     A.U. after    9 cycles
 SCF Done:  E(RB3LYP) =  -845.114806478     A.U. after    8 cycles
 SCF Done:  E(RB3LYP) =  -845.114806888     A.U. after    8 cycles
 Optimization completed.
    -- Stationary point found.
 Normal termination of Gaussian 16 at Fri Dec 11 20:14:50 2020.

 --------------------------------------------------------------------
 #N Geom=AllCheck Guess=TCheck SCRF=Check GenChk RB3LYP/6-31G(d) Freq
 --------------------------------------------------------------------

 Structure from the checkpoint file:  "JID_8337.chk"
 ------------------------------
 CID_64968699_JID_8337_neutraal
 ------------------------------
 Charge =  0 Multiplicity = 1

 SCF Done:  E(RB3LYP) =  -845.114806888     A.U. after    1 cycles

  Exact polarizability: 181.955   7.135 155.532  -4.985  -2.461 130.444
 Approx polarizability: 214.140  10.549 250.555  -9.013  -5.114 189.831

                      1                      2                      3
                      A                      A                      A
 Frequencies --     20.6612                35.9862                41.9632
 Red. masses --      3.7768                 3.6919                 2.8018
 Frc consts  --      0.0009                 0.0028                 0.0029
 IR Inten    --      0.0624                 0.7304                 0.1131

                      4                      5                      6
                      A                      A                      A
 Frequencies --     55.5840                66.7363                79.6447
 Red. masses --      3.4961                 6.7705                 3.3877
 Frc consts  --      0.0064                 0.0178                 0.0127
 IR Inten    --      0.5961                 1.6749                 0.7988

                      7                      8                      9
                      A                      A                      A
 Frequencies --     91.2543               110.6864               113.0491
 Red. masses --      3.6139                 2.5324                 3.1916
 Frc consts  --      0.0177                 0.0183                 0.0240
 IR Inten    --      3.4728                 1.5031                 1.1726

                     10                     11                     12
                      A                      A                      A
 Frequencies --    161.0513               191.0851               215.6106
 Red. masses --      2.7586                 2.9713                 1.3300
 Frc consts  --      0.0422                 0.0639                 0.0364
 IR Inten    --      0.7661                 3.7466                 0.3283

                     13                     14                     15
                      A                      A                      A
 Frequencies --    222.3642               224.9874               237.4365
 Red. masses --      1.2123                 1.1648                 1.3737
 Frc consts  --      0.0353                 0.0347                 0.0456
 IR Inten    --      0.2027                 1.2296                 1.8471

                     16                     17                     18
                      A                      A                      A
 Frequencies --    239.8979               253.7603               267.5546
 Red. masses --      1.2478                 1.8135                 2.1350
 Frc consts  --      0.0423                 0.0688                 0.0900
 IR Inten    --      0.5205                 1.9950                 0.8314

                     19                     20                     21
                      A                      A                      A
 Frequencies --    298.5784               315.2763               336.6191
 Red. masses --      2.9364                 3.0827                 3.1071
 Frc consts  --      0.1542                 0.1805                 0.2074
 IR Inten    --      2.9100                 2.0940                 2.4400

                     22                     23                     24
                      A                      A                      A
 Frequencies --    361.4791               375.9734               395.4765
 Red. masses --      2.4425                 3.4053                 2.9195
 Frc consts  --      0.1880                 0.2836                 0.2690
 IR Inten    --      3.9060                 0.5743                 3.1117

                     25                     26                     27
                      A                      A                      A
 Frequencies --    423.6175               431.6212               443.0592
 Red. masses --      3.7050                 3.2324                 3.1287
 Frc consts  --      0.3917                 0.3548                 0.3619
 IR Inten    --     19.4035                 6.9426                 3.5387

                     28                     29                     30
                      A                      A                      A
 Frequencies --    448.1178               451.1961               489.4315
 Red. masses --      5.1417                 2.9957                 3.7502
 Frc consts  --      0.6083                 0.3593                 0.5293
 IR Inten    --      1.5367                 6.3708                 4.5022

                     31                     32                     33
                      A                      A                      A
 Frequencies --    591.8325               607.9042               633.1520
 Red. masses --      2.1151                 2.3590                 2.6003
 Frc consts  --      0.4365                 0.5136                 0.6142
 IR Inten    --     28.8489                34.8907                32.1232

                     34                     35                     36
                      A                      A                      A
 Frequencies --    702.9261               731.6499               768.1506
 Red. masses --      4.1494                 4.4996                 4.0144
 Frc consts  --      1.2080                 1.4192                 1.3956
 IR Inten    --      5.6918                22.0607                12.3215

                     37                     38                     39
                      A                      A                      A
 Frequencies --    816.2528               840.7944               858.0260
 Red. masses --      4.1434                 2.6586                 2.2940
 Frc consts  --      1.6265                 1.1073                 0.9950
 IR Inten    --      8.7569                 2.2376                 4.1698

                     40                     41                     42
                      A                      A                      A
 Frequencies --    865.3933               902.2033               936.3885
 Red. masses --      2.3510                 1.7580                 1.4918
 Frc consts  --      1.0373                 0.8431                 0.7707
 IR Inten    --      1.7476                 3.1725                16.0803

                     43                     44                     45
                      A                      A                      A
 Frequencies --    943.0057               949.1185               980.6341
 Red. masses --      1.6707                 1.2948                 1.5870
 Frc consts  --      0.8753                 0.6872                 0.8992
 IR Inten    --      9.9191                 1.3735                 7.1079

                     46                     47                     48
                      A                      A                      A
 Frequencies --    981.3950               987.0256              1002.7279
 Red. masses --      1.4658                 2.2396                 3.5320
 Frc consts  --      0.8318                 1.2855                 2.0923
 IR Inten    --      0.7567                 2.7727                17.3604

                     49                     50                     51
                      A                      A                      A
 Frequencies --   1081.9512              1090.9444              1104.7236
 Red. masses --      1.6507                 3.1660                 2.1373
 Frc consts  --      1.1385                 2.2201                 1.5368
 IR Inten    --      9.2321                18.1347                16.5268

                     52                     53                     54
                      A                      A                      A
 Frequencies --   1130.4158              1139.3670              1150.5721
 Red. masses --      2.3651                 2.1709                 2.0001
 Frc consts  --      1.7807                 1.6605                 1.5600
 IR Inten    --      0.3311                 3.3404                 4.0983

                     55                     56                     57
                      A                      A                      A
 Frequencies --   1155.8517              1161.8524              1170.6185
 Red. masses --      2.5009                 2.0479                 2.6926
 Frc consts  --      1.9685                 1.6288                 2.1740
 IR Inten    --    110.6592                17.3485                10.4386

                     58                     59                     60
                      A                      A                      A
 Frequencies --   1187.0155              1195.8743              1205.3650
 Red. masses --      2.3273                 1.4268                 1.7323
 Frc consts  --      1.9320                 1.2022                 1.4829
 IR Inten    --     84.3458                10.9827                 7.8308

                     61                     62                     63
                      A                      A                      A
 Frequencies --   1233.8259              1244.4793              1278.0690
 Red. masses --      1.9673                 1.7120                 1.3466
 Frc consts  --      1.7645                 1.5621                 1.2960
 IR Inten    --     37.7856                31.9199                28.8860

                     64                     65                     66
                      A                      A                      A
 Frequencies --   1302.5144              1305.1971              1329.6204
 Red. masses --      1.4171                 1.5745                 1.8819
 Frc consts  --      1.4165                 1.5803                 1.9602
 IR Inten    --      1.7013                37.6838               110.0258

                     67                     68                     69
                      A                      A                      A
 Frequencies --   1339.5768              1347.7828              1362.6183
 Red. masses --      1.3885                 1.3733                 1.4901
 Frc consts  --      1.4680                 1.4698                 1.6301
 IR Inten    --     10.3855                 7.3007                13.6405

                     70                     71                     72
                      A                      A                      A
 Frequencies --   1377.7806              1381.5249              1387.1517
 Red. masses --      1.4226                 1.3355                 1.4215
 Frc consts  --      1.5911                 1.5018                 1.6116
 IR Inten    --      4.5859                 2.2413                22.5891

                     73                     74                     75
                      A                      A                      A
 Frequencies --   1415.8175              1423.4444              1430.6368
 Red. masses --      1.6116                 1.3661                 1.2500
 Frc consts  --      1.9033                 1.6308                 1.5074
 IR Inten    --     26.6202                 5.7526                 3.5899

                     76                     77                     78
                      A                      A                      A
 Frequencies --   1432.1241              1438.2563              1447.8906
 Red. masses --      1.3183                 1.4108                 1.2409
 Frc consts  --      1.5930                 1.7194                 1.5327
 IR Inten    --     28.9317                31.0234                18.9785

                     79                     80                     81
                      A                      A                      A
 Frequencies --   1453.6755              1484.4201              1499.8432
 Red. masses --      1.2217                 2.1461                 1.5353
 Frc consts  --      1.5211                 2.7862                 2.0349
 IR Inten    --      9.4015               154.9610                 1.9212

                     82                     83                     84
                      A                      A                      A
 Frequencies --   1504.2196              1514.8923              1517.0918
 Red. masses --      1.1681                 1.0476                 1.1947
 Frc consts  --      1.5572                 1.4165                 1.6201
 IR Inten    --      1.6844                 5.0793                10.1859

                     85                     86                     87
                      A                      A                      A
 Frequencies --   1519.7608              1522.6645              1524.9412
 Red. masses --      1.0899                 1.0604                 1.1048
 Frc consts  --      1.4831                 1.4485                 1.5137
 IR Inten    --      3.5159                 4.3375                 7.9315

                     88                     89                     90
                      A                      A                      A
 Frequencies --   1525.3064              1528.4754              1533.2990
 Red. masses --      1.0959                 1.1743                 1.0638
 Frc consts  --      1.5022                 1.6164                 1.4736
 IR Inten    --     13.8271                 2.1088                14.5273

                     91                     92                     93
                      A                      A                      A
 Frequencies --   1534.8434              1535.0526              1544.8081
 Red. masses --      1.0480                 1.0653                 1.0488
 Frc consts  --      1.4546                 1.4790                 1.4747
 IR Inten    --      8.5618                 7.6685                10.4257

                     94                     95                     96
                      A                      A                      A
 Frequencies --   1555.9739              1755.1944              1802.2336
 Red. masses --      1.0884                 9.9220                 8.7972
 Frc consts  --      1.5526                18.0094                16.8352
 IR Inten    --      1.5556               259.1772               371.3945

                     97                     98                     99
                      A                      A                      A
 Frequencies --   2965.1473              2991.9280              2998.8576
 Red. masses --      1.0562                 1.0433                 1.0957
 Frc consts  --      5.4714                 5.5023                 5.8055
 IR Inten    --     32.0504                77.4977                68.4507

                    100                    101                    102
                      A                      A                      A
 Frequencies --   3034.0606              3035.0663              3037.2018
 Red. masses --      1.0866                 1.1037                 1.0742
 Frc consts  --      5.8935                 5.9899                 5.8380
 IR Inten    --     53.4448                38.1585                 4.2060

                    103                    104                    105
                      A                      A                      A
 Frequencies --   3042.5627              3052.9449              3056.5446
 Red. masses --      1.0460                 1.0407                 1.0372
 Frc consts  --      5.7052                 5.7152                 5.7092
 IR Inten    --     24.7474                36.6485                24.8417

                    106                    107                    108
                      A                      A                      A
 Frequencies --   3069.1872              3083.8804              3085.3957
 Red. masses --      1.0359                 1.0831                 1.0854
 Frc consts  --      5.7490                 6.0687                 6.0880
 IR Inten    --     10.0218                13.1071                16.3372

                    109                    110                    111
                      A                      A                      A
 Frequencies --   3098.0603              3107.8587              3114.6591
 Red. masses --      1.0592                 1.0994                 1.0993
 Frc consts  --      5.9899                 6.2567                 6.2831
 IR Inten    --     15.0490                 3.1358                61.1074

                    112                    113                    114
                      A                      A                      A
 Frequencies --   3121.9596              3126.5769              3137.6910
 Red. masses --      1.1015                 1.1023                 1.0969
 Frc consts  --      6.3256                 6.3487                 6.3629
 IR Inten    --     31.7221                29.2208                31.6950

                    115                    116                    117
                      A                      A                      A
 Frequencies --   3138.2046              3141.4651              3151.2189
 Red. masses --      1.1011                 1.1028                 1.1059
 Frc consts  --      6.3892                 6.4121                 6.4700
 IR Inten    --     20.3397                28.8117                 9.1322

                    118                    119                    120
                      A                      A                      A
 Frequencies --   3154.7457              3160.8980              3593.1271
 Red. masses --      1.1032                 1.0984                 1.0761
 Frc consts  --      6.4689                 6.4660                 8.1854
 IR Inten    --     10.2959                10.8817                18.5569

 - Thermochemistry -
 -------------------
 Temperature   298.150 Kelvin.  Pressure   1.00000 Atm.
 Atom     1 has atomic number  6 and mass  12.00000

 Molecular mass:   256.17869 amu.
 Principal axes and moments of inertia in atomic units:
                           1         2         3
     Eigenvalues --  2589.866397929.971048816.36285
           X            0.99995   0.00676   0.00704
           Y           -0.00653   0.99944  -0.03269
           Z           -0.00726   0.03264   0.99944
 This molecule is an asymmetric top.
 Rotational symmetry number  1.
 Warning -- assumption of classical behavior for rotation
           may cause significant error
 Rotational temperatures (Kelvin)      0.03344     0.01092     0.00982
 Rotational constants (GHZ):           0.69685     0.22758     0.20470
 Zero-point vibrational energy     975597.4 (Joules/Mol)
                                  233.17336 (Kcal/Mol)
 Warning -- explicit consideration of  32 degrees of freedom as
           vibrations may cause significant error
 Vibrational temperatures:     29.73    51.78    60.38    79.97    96.02
          (Kelvin)            114.59   131.29   159.25   162.65   231.72
                              274.93   310.22   319.93   323.71   341.62
                              345.16   365.10   384.95   429.59   453.61
                              484.32   520.09   540.94   569.00   609.49
                              621.01   637.46   644.74   649.17   704.18
                              851.51   874.64   910.96  1011.35  1052.68
                             1105.20  1174.41  1209.72  1234.51  1245.11
                             1298.07  1347.25  1356.77  1365.57  1410.91
                             1412.01  1420.11  1442.70  1556.69  1569.63
                             1589.45  1626.42  1639.29  1655.42  1663.01
                             1671.65  1684.26  1707.85  1720.60  1734.25
                             1775.20  1790.53  1838.86  1874.03  1877.89
                             1913.03  1927.35  1939.16  1960.50  1982.32
                             1987.71  1995.80  2037.05  2048.02  2058.37
                             2060.51  2069.33  2083.19  2091.51  2135.75
                             2157.94  2164.24  2179.59  2182.76  2186.60
                             2190.77  2194.05  2194.58  2199.14  2206.08
                             2208.30  2208.60  2222.63  2238.70  2525.33
                             2593.01  4266.19  4304.72  4314.69  4365.34
                             4366.78  4369.86  4377.57  4392.51  4397.69
                             4415.88  4437.02  4439.20  4457.42  4471.52
                             4481.30  4491.80  4498.45  4514.44  4515.18
                             4519.87  4533.90  4538.98  4547.83  5169.71

 Zero-point correction=                           0.371585 (Hartree/Particle)
 Thermal correction to Energy=                    0.391997
 Thermal correction to Enthalpy=                  0.392941
 Thermal correction to Gibbs Free Energy=         0.321410
 Sum of electronic and zero-point Energies=           -844.743221
 Sum of electronic and thermal Energies=              -844.722810
 Sum of electronic and thermal Enthalpies=            -844.721866
 Sum of electronic and thermal Free Energies=         -844.793397

                     E (Thermal)             CV                S
                      KCal/Mol        Cal/Mol-Kelvin    Cal/Mol-Kelvin
 Total                  245.982             74.911            150.549
 Electronic               0.000              0.000              0.000
 Translational            0.889              2.981             42.522
 Rotational               0.889              2.981             33.559
 Vibrational            244.204             68.950             74.468
 Vibration     1          0.593              1.986              6.570
 Vibration     2          0.594              1.982              5.469
 Vibration     3          0.595              1.980              5.164
 Vibration     4          0.596              1.975              4.608
 Vibration     5          0.598              1.970              4.247
 Vibration     6          0.600              1.963              3.900
 Vibration     7          0.602              1.955              3.633
 Vibration     8          0.607              1.941              3.257
 Vibration     9          0.607              1.939              3.216
 Vibration    10          0.622              1.890              2.537
 Vibration    11          0.634              1.852              2.217
 Vibration    12          0.645              1.817              1.996
 Vibration    13          0.648              1.807              1.940
 Vibration    14          0.650              1.803              1.919
 Vibration    15          0.656              1.783              1.822
 Vibration    16          0.657              1.779              1.804
 Vibration    17          0.665              1.756              1.704
 Vibration    18          0.673              1.733              1.612
 Vibration    19          0.692              1.676              1.425
 Vibration    20          0.703              1.644              1.334
 Vibration    21          0.717              1.602              1.228
 Vibration    22          0.736              1.552              1.116
 Vibration    23          0.747              1.521              1.055
 Vibration    24          0.762              1.480              0.979
 Vibration    25          0.786              1.419              0.880
 Vibration    26          0.793              1.401              0.853
 Vibration    27          0.803              1.376              0.817
 Vibration    28          0.807              1.365              0.801
 Vibration    29          0.810              1.358              0.792
 Vibration    30          0.845              1.273              0.685
 Vibration    31          0.949              1.049              0.464
 Vibration    32          0.967              1.015              0.436

                           ! Non-Optimized Parameters !
 Normal termination of Gaussian 16 at Fri Dec 11 20:35:36 2020.

 ----------------------------------------------------------------------
 # B3LYP/6-311++G(d,p) empiricaldispersion=gd3bj scf=xqc pop=npa geom=c
 heck
 ----------------------------------------------------------------------

 --------------------------------------
 CID_64968699_JID_8337_Energie_neutraal
 --------------------------------------
 Structure from the checkpoint file:  "JID_8337.chk"
 Charge =  0 Multiplicity = 1

 SCF Done:  E(RB3LYP) =  -845.361744553     A.U. after   16 cycles
 Normal termination of Gaussian 16 at Fri Dec 11 20:46:08 2020.

 ----------------------------------------------------------------------
 # B3LYP/6-311++G(d,p) empiricaldispersion=gd3bj scf=xqc pop=npa geom=c
 heck
 ----------------------------------------------------------------------

 ------------------------------------
 CID_64968699_JID_8337_Energie_kation
 ------------------------------------
 Structure from the checkpoint file:  "JID_8337.chk"
 Charge =  1 Multiplicity = 2

 SCF Done:  E(UB3LYP) =  -845.051784945     A.U. after   31 cycles
 Normal termination of Gaussian 16 at Fri Dec 11 21:16:07 2020.
 Gaussian 16:  ES64L-G16RevA.03 25-Dec-2016

 ----------------------------------------------------------------------
 # B3LYP/6-311++G(d,p) empiricaldispersion=gd3bj scf=xqc pop=npa geom=c
 heck
 ----------------------------------------------------------------------

 -----------------------------------
 CID_64968699_JID_8337_Energie_anion
 -----------------------------------
 Structure from the checkpoint file:  "JID_8337.chk"
 Charge = -1 Multiplicity = 2

                         Standard orientation:
 ---------------------------------------------------------------------
 Center     Atomic      Atomic             Coordinates (Angstroms)
 Number     Number       Type             X           Y           Z
 ---------------------------------------------------------------------
      1          6           0       -0.437363    1.846848   -1.675112
      2          6           0       -0.234721    1.399903   -0.217656
      3          6           0       -1.427467    1.833958    0.630458
      4          8           0       -1.607698    3.014840    0.895410
      5          7           0       -2.244241    0.835749    1.061990
      6          6           0       -2.238827   -0.527188    0.541652
      7          6           0       -0.809617   -0.987557    0.254894
      8          8           0       -0.522768   -2.180313    0.329717
      9          7           0        0.088553   -0.023590   -0.094499
     10          6           0        1.471773   -0.414905   -0.368859
     11          6           0        2.422299   -0.162968    0.814209
     12          6           0        2.019871   -0.951074    2.063666
     13          6           0        3.849785   -0.503864    0.394659
     14          8           0        4.218334    0.318475   -0.697806
     15          6           0        5.516103    0.039400   -1.174644
     16          6           0       -3.170823   -0.718084   -0.690518
     17          6           0       -3.258060   -2.191423   -1.105361
     18          6           0       -4.567659   -0.153947   -0.402602
     19          1           0       -0.631417    2.922391   -1.697609
     20          1           0       -1.284345    1.325902   -2.131769
     21          1           0        0.456228    1.637800   -2.270248
     22          1           0        0.611832    1.959634    0.192280
     23          1           0       -3.061162    1.153178    1.569580
     24          1           0       -2.596025   -1.187182    1.338641
     25          1           0        1.459177   -1.478780   -0.615022
     26          1           0        1.828053    0.137961   -1.241321
     27          1           0        2.410400    0.910112    1.051979
     28          1           0        2.001421   -2.027570    1.863672
     29          1           0        2.717176   -0.760045    2.887390
     30          1           0        1.019261   -0.664067    2.398547
     31          1           0        4.540635   -0.347219    1.240217
     32          1           0        3.916638   -1.569732    0.111558
     33          1           0        6.278321    0.200945   -0.395529
     34          1           0        5.603147   -0.999251   -1.532069
     35          1           0        5.709242    0.720339   -2.007461
     36          1           0       -2.736652   -0.144532   -1.520852
     37          1           0       -3.699479   -2.792465   -0.300841
     38          1           0       -3.896532   -2.294352   -1.989682
     39          1           0       -2.276497   -2.614037   -1.327246
     40          1           0       -4.546696    0.923247   -0.209688
     41          1           0       -5.228299   -0.322986   -1.259331
     42          1           0       -5.019320   -0.653023    0.465083
 ---------------------------------------------------------------------

 SCF Done:  E(UB3LYP) =  -845.350305123     A.U. after   33 cycles
 SCF Done:  E(UB3LYP) =  -845.350305122     a.u. after    1 cycles

 The electronic state is 2-A.
 Alpha  occ. eigenvalues --  -19.04432 -19.01169 -19.00682 -14.26909 -14.26372
 Alpha  occ. eigenvalues --  -10.19878 -10.19433 -10.14932 -10.14448 -10.13404
 Alpha  occ. eigenvalues --  -10.12543 -10.11789 -10.10439 -10.09803 -10.09365
 Alpha  occ. eigenvalues --  -10.07779 -10.07763 -10.07346  -0.96910  -0.95859
 Alpha  occ. eigenvalues --   -0.95764  -0.87490  -0.84867  -0.73019  -0.72767
 Alpha  occ. eigenvalues --   -0.69751  -0.64812  -0.62643  -0.61544  -0.60392
 Alpha  occ. eigenvalues --   -0.58066  -0.56046  -0.53836  -0.50772  -0.49248
 Alpha  occ. eigenvalues --   -0.46612  -0.44153  -0.43057  -0.41287  -0.40766
 Alpha  occ. eigenvalues --   -0.40419  -0.38486  -0.37983  -0.37103  -0.36389
 Alpha  occ. eigenvalues --   -0.35875  -0.34749  -0.34489  -0.33881  -0.32959
 Alpha  occ. eigenvalues --   -0.32557  -0.31384  -0.30764  -0.30434  -0.30270
 Alpha  occ. eigenvalues --   -0.29951  -0.29552  -0.29319  -0.27264  -0.26774
 Alpha  occ. eigenvalues --   -0.26303  -0.26144  -0.25741  -0.25204  -0.24104
 Alpha  occ. eigenvalues --   -0.19407  -0.18889  -0.18141  -0.16960  -0.16345
 Alpha  occ. eigenvalues --    0.03774
 Alpha virt. eigenvalues --    0.04893   0.06217   0.06809   0.07030   0.07552
 Alpha virt. eigenvalues --    0.08080   0.08712   0.08893   0.09110   0.09240
 Alpha virt. eigenvalues --    0.09722   0.10041   0.10570   0.10837   0.11032

  Beta  occ. eigenvalues --  -19.04422 -19.01161 -19.00679 -14.26907 -14.26354
  Beta  occ. eigenvalues --  -10.19876 -10.19432 -10.14927 -10.14438 -10.13387
  Beta  occ. eigenvalues --  -10.12498 -10.11784 -10.10429 -10.09798 -10.09349
  Beta  occ. eigenvalues --  -10.07769 -10.07719 -10.07330  -0.96899  -0.95849
  Beta  occ. eigenvalues --   -0.95748  -0.87479  -0.84844  -0.73004  -0.72740
  Beta  occ. eigenvalues --   -0.69736  -0.64782  -0.62601  -0.61521  -0.60334
  Beta  occ. eigenvalues --   -0.58036  -0.55977  -0.53803  -0.50719  -0.49215
  Beta  occ. eigenvalues --   -0.46593  -0.44121  -0.43036  -0.41256  -0.40733
  Beta  occ. eigenvalues --   -0.40388  -0.38455  -0.37961  -0.37080  -0.36358
  Beta  occ. eigenvalues --   -0.35850  -0.34726  -0.34467  -0.33863  -0.32929
  Beta  occ. eigenvalues --   -0.32526  -0.31358  -0.30739  -0.30416  -0.30243
  Beta  occ. eigenvalues --   -0.29931  -0.29533  -0.29288  -0.27245  -0.26745
  Beta  occ. eigenvalues --   -0.26280  -0.26121  -0.25710  -0.25168  -0.24052
  Beta  occ. eigenvalues --   -0.19390  -0.18878  -0.18119  -0.16946  -0.16334
  Beta virt. eigenvalues --    0.05739   0.06101   0.06695   0.07080   0.07522
  Beta virt. eigenvalues --    0.07870   0.08353   0.08853   0.09101   0.09479
  Beta virt. eigenvalues --    0.09641   0.09825   0.10196   0.10807   0.11075

 Mulliken charges and spin densities:
               1          2
     1  C    0.244759  -0.777424
     2  C   -0.329740   0.300719
     3  C   -0.104891   0.098564
     4  O   -0.319374   0.013314
     5  N   -0.358383   0.103218
     6  C    1.641962  -1.666724
     7  C   -0.719771   0.050816
     8  O   -0.262575   0.019278
     9  N    0.439614   0.013748
    10  C   -0.332097  -0.593254
    11  C    0.344400   0.466401
    12  C   -0.441011  -0.195076
    13  C   -0.444071  -0.200950
    14  O   -0.178899   0.070980
    15  C    0.911744  -1.167408
    16  C   -1.612237   2.125388
    17  C   -0.196912  -0.488753
    18  C    1.230761  -1.851024
    19  H    0.137799   0.038228
    20  H   -0.179540   0.319148
    21  H    0.028215   0.129303
    22  H    0.165129   0.066911
    23  H    0.004636   0.362814
    24  H    0.022125   0.247968
    25  H    0.089753   0.109129
    26  H    0.244599  -0.083006
    27  H    0.142762   0.055204
    28  H    0.130199   0.041643
    29  H   -0.085670   0.223811
    30  H    0.147615   0.015015
    31  H    0.001547   0.146127
    32  H    0.137084   0.010016
    33  H   -0.423107   0.551072
    34  H   -0.311592   0.444146
    35  H   -0.273681   0.420116
    36  H    0.247518  -0.112973
    37  H    0.058884   0.076121
    38  H   -0.103427   0.250129
    39  H    0.138285   0.050078
    40  H   -0.057958   0.223982
    41  H   -0.457048   0.619437
    42  H   -0.317406   0.473766
 Sum of Mulliken charges =  -1.00000   1.00000

 Dipole moment (field-independent basis, Debye):
    X=             -0.4817    Y=             -0.5769    Z=              0.6382  Tot=              0.9859
 Quadrupole moment (field-independent basis, Debye-Ang):
   XX=           -244.7620   YY=           -160.6760   ZZ=           -149.8520
   XY=              0.9567   XZ=              6.2754   YZ=             -3.4388

 Summary of Natural Population Analysis:

                                       Natural Population
                Natural  -----------------------------------------------
    Atom  No    Charge         Core      Valence    Rydberg      Total
 -----------------------------------------------------------------------
      C    1   -0.28502      0.99963     2.28088    0.00451     3.28502
      C    2   -0.04202      0.99955     2.03145    0.01102     3.04202
      C    3    0.34357      0.99963     1.63324    0.02356     2.65643
      O    4   -0.32016      0.99988     3.31454    0.00574     4.32016
      N    5   -0.31359      0.99966     2.80359    0.01034     3.81359
      C    6   -0.04273      0.99953     2.02944    0.01377     3.04273
      C    7    0.34975      0.99960     1.62826    0.02239     2.65025
      O    8   -0.32548      0.99988     3.32065    0.00495     4.32548
      N    9   -0.25237      0.99962     2.74156    0.01119     3.75237
      C   10   -0.09020      0.99958     2.07892    0.01170     3.09020
      C   11   -0.12574      0.99959     2.11596    0.01019     3.12574
      C   12   -0.28612      0.99965     2.28159    0.00488     3.28612
      C   13   -0.00360      0.99955     1.99147    0.01258     3.00360
      O   14   -0.30034      0.99988     3.29086    0.00960     4.30034
      C   15   -0.09649      0.99962     2.08777    0.00910     3.09649
      C   16   -0.11235      0.99959     2.10396    0.00880     3.11235
      C   17   -0.28749      0.99964     2.28172    0.00613     3.28749
      C   18   -0.28811      0.99965     2.28207    0.00639     3.28811
      H   19    0.11019      0.00000     0.38894    0.00087     0.38981
      H   20    0.09938      0.00000     0.39927    0.00135     0.40062
      H   21    0.10344      0.00000     0.39557    0.00099     0.39656
      H   22    0.11165      0.00000     0.38672    0.00163     0.38835
      H   23    0.20142      0.00000     0.29596    0.00261     0.29858
      H   24    0.11094      0.00000     0.38760    0.00146     0.38906
      H   25    0.11325      0.00000     0.38548    0.00127     0.38675
      H   26    0.10628      0.00000     0.39204    0.00168     0.39372
      H   27    0.09563      0.00000     0.40221    0.00216     0.40437
      H   28    0.10369      0.00000     0.39547    0.00084     0.39631
      H   29    0.09861      0.00000     0.40055    0.00085     0.40139
      H   30    0.10385      0.00000     0.39531    0.00084     0.39615
      H   31    0.08306      0.00000     0.41548    0.00146     0.41694
      H   32    0.07851      0.00000     0.42006    0.00143     0.42149
      H   33    0.07979      0.00000     0.41801    0.00220     0.42021
      H   34    0.07897      0.00000     0.41932    0.00171     0.42103
      H   35    0.09181      0.00000     0.40686    0.00133     0.40819
      H   36    0.09303      0.00000     0.40446    0.00251     0.40697
      H   37    0.09869      0.00000     0.40044    0.00087     0.40131
      H   38    0.09975      0.00000     0.39946    0.00079     0.40025
      H   39    0.11034      0.00000     0.38873    0.00092     0.38966
      H   40    0.10152      0.00000     0.39707    0.00140     0.39848
      H   41    0.10563      0.00000     0.39303    0.00134     0.39437
      H   42    0.09906      0.00000     0.39931    0.00163     0.40094
 =======================================================================
   * Total *    0.00000     17.99373    51.78528    0.22099    70.00000

 Normal termination of Gaussian 16 at Fri Dec 11 21:47:48 2020.
