 Gaussian 16, Revision A.03,

 -----------------------------------------------------------
 # opt freq B3LYP/6-31G(d) empiricaldispersion=gd3bj scf=xqc
 -----------------------------------------------------------

 --------------------------------
 CID_154362841_JID_10583_neutraal
 --------------------------------
 Symbolic Z-matrix:
 Charge =  0 Multiplicity = 1

 SCF Done:  E(RB3LYP) =  -812.587735221     A.U. after   13 cycles
 SCF Done:  E(RB3LYP) =  -812.589992258     A.U. after   11 cycles
 SCF Done:  E(RB3LYP) =  -812.590174409     A.U. after   10 cycles
 SCF Done:  E(RB3LYP) =  -812.590216882     A.U. after   10 cycles
 SCF Done:  E(RB3LYP) =  -812.590220678     A.U. after   10 cycles
 SCF Done:  E(RB3LYP) =  -812.590231876     A.U. after   10 cycles
 SCF Done:  E(RB3LYP) =  -812.590232681     A.U. after    7 cycles
 SCF Done:  E(RB3LYP) =  -812.590233058     A.U. after    7 cycles
 SCF Done:  E(RB3LYP) =  -812.590233063     A.U. after    6 cycles
 Optimization completed.
    -- Stationary point found.
 Normal termination of Gaussian 16 at Sat Dec 12 15:54:39 2020.

 --------------------------------------------------------------------
 #N Geom=AllCheck Guess=TCheck SCRF=Check GenChk RB3LYP/6-31G(d) Freq
 --------------------------------------------------------------------

 Structure from the checkpoint file:  "JID_10583.chk"
 --------------------------------
 CID_154362841_JID_10583_neutraal
 --------------------------------
 Charge =  0 Multiplicity = 1

 SCF Done:  E(RB3LYP) =  -812.590233063     A.U. after    1 cycles

  Exact polarizability: 260.577  -2.793 152.321 -20.403   5.138 160.108
 Approx polarizability: 334.140  -2.647 251.687 -38.172  15.350 272.427

                      1                      2                      3
                      A                      A                      A
 Frequencies --     23.5912                25.2310                33.3029
 Red. masses --      4.7844                 4.0655                 3.8663
 Frc consts  --      0.0016                 0.0015                 0.0025
 IR Inten    --      0.0038                 0.0141                 0.0178

                      4                      5                      6
                      A                      A                      A
 Frequencies --     50.4238                64.9982                78.3528
 Red. masses --      3.4971                 4.1972                 4.2903
 Frc consts  --      0.0052                 0.0104                 0.0155
 IR Inten    --      0.0735                 0.1966                 0.0580

                      7                      8                      9
                      A                      A                      A
 Frequencies --    120.6401               133.0628               207.6516
 Red. masses --      4.0314                 3.1751                 4.2024
 Frc consts  --      0.0346                 0.0331                 0.1068
 IR Inten    --      0.0445                 0.1757                 1.3006

                     10                     11                     12
                      A                      A                      A
 Frequencies --    231.3190               241.2231               299.7370
 Red. masses --      3.2452                 5.2551                 2.4156
 Frc consts  --      0.1023                 0.1802                 0.1279
 IR Inten    --      0.4581                 0.5457                 1.3714

                     13                     14                     15
                      A                      A                      A
 Frequencies --    329.7694               355.5370               362.5381
 Red. masses --      4.1412                 2.2944                 2.0992
 Frc consts  --      0.2653                 0.1709                 0.1626
 IR Inten    --      3.1555                 0.4465                 1.0452

                     16                     17                     18
                      A                      A                      A
 Frequencies --    403.8228               417.7492               417.8117
 Red. masses --      2.3102                 2.9932                 2.9859
 Frc consts  --      0.2220                 0.3078                 0.3071
 IR Inten    --      0.3377                 0.0037                 0.0024

                     19                     20                     21
                      A                      A                      A
 Frequencies --    442.3848               471.6405               492.0980
 Red. masses --      3.9395                 3.4758                 2.5704
 Frc consts  --      0.4542                 0.4555                 0.3667
 IR Inten    --      0.5724                 2.2571                 0.1584

                     22                     23                     24
                      A                      A                      A
 Frequencies --    517.2738               541.2690               591.3955
 Red. masses --      2.9085                 3.1400                 4.6264
 Frc consts  --      0.4585                 0.5420                 0.9533
 IR Inten    --     13.2001                 7.5883                 1.7785

                     25                     26                     27
                      A                      A                      A
 Frequencies --    612.5219               638.2241               638.5119
 Red. masses --      3.0957                 6.1483                 6.2816
 Frc consts  --      0.6843                 1.4756                 1.5089
 IR Inten    --      6.2131                 0.0711                 0.0392

                     28                     29                     30
                      A                      A                      A
 Frequencies --    665.4372               716.0360               716.6400
 Red. masses --      2.7651                 1.9252                 1.8662
 Frc consts  --      0.7214                 0.5816                 0.5647
 IR Inten    --      9.7401                25.2720                20.9468

                     31                     32                     33
                      A                      A                      A
 Frequencies --    755.3402               766.8562               804.8793
 Red. masses --      1.8390                 1.8356                 2.7688
 Frc consts  --      0.6182                 0.6360                 1.0568
 IR Inten    --     26.1219                19.9576                 0.8666

                     34                     35                     36
                      A                      A                      A
 Frequencies --    831.4548               837.0395               849.2046
 Red. masses --      3.3430                 2.4302                 3.3875
 Frc consts  --      1.3616                 1.0032                 1.4393
 IR Inten    --      0.3166                 2.3113                 0.5762

                     37                     38                     39
                      A                      A                      A
 Frequencies --    860.5598               860.9435               870.3410
 Red. masses --      1.2503                 1.2531                 1.5806
 Frc consts  --      0.5455                 0.5472                 0.7054
 IR Inten    --      0.0763                 0.0518                 2.1738

                     40                     41                     42
                      A                      A                      A
 Frequencies --    909.0248               914.4989               925.4244
 Red. masses --      2.1595                 1.7811                 1.5261
 Frc consts  --      1.0514                 0.8776                 0.7700
 IR Inten    --      2.4310                 4.7194                 1.9184

                     43                     44                     45
                      A                      A                      A
 Frequencies --    931.7697               948.5183               965.7727
 Red. masses --      1.8589                 1.6345                 1.3507
 Frc consts  --      0.9509                 0.8664                 0.7423
 IR Inten    --      7.0031                 4.1882                 0.0774

                     46                     47                     48
                      A                      A                      A
 Frequencies --    966.1088               993.3105               993.4235
 Red. masses --      1.3490                 1.2496                 1.2488
 Frc consts  --      0.7419                 0.7264                 0.7261
 IR Inten    --      0.0019                 0.1285                 0.1430

                     49                     50                     51
                      A                      A                      A
 Frequencies --   1003.3658              1020.0780              1022.4057
 Red. masses --      1.8958                 2.5750                 6.1121
 Frc consts  --      1.1245                 1.5787                 3.7643
 IR Inten    --      0.4085                31.6814                 0.3022

                     52                     53                     54
                      A                      A                      A
 Frequencies --   1022.7859              1061.2986              1061.3211
 Red. masses --      4.8352                 2.2021                 2.2070
 Frc consts  --      2.9801                 1.4613                 1.4647
 IR Inten    --      2.0354                 7.4403                 0.7036

                     55                     56                     57
                      A                      A                      A
 Frequencies --   1069.0903              1072.4593              1096.3386
 Red. masses --      1.9012                 1.9802                 1.9352
 Frc consts  --      1.2803                 1.3419                 1.3705
 IR Inten    --      1.9674               108.7152                 8.3950

                     58                     59                     60
                      A                      A                      A
 Frequencies --   1107.5487              1122.7657              1133.4237
 Red. masses --      1.5077                 2.7981                 1.9426
 Frc consts  --      1.0897                 2.0782                 1.4703
 IR Inten    --     15.9944                78.6708                 8.5547

                     61                     62                     63
                      A                      A                      A
 Frequencies --   1136.0143              1160.0537              1193.2638
 Red. masses --      2.3527                 1.1631                 1.0967
 Frc consts  --      1.7889                 0.9222                 0.9200
 IR Inten    --     16.8035                 5.5336                 0.0438

                     64                     65                     66
                      A                      A                      A
 Frequencies --   1193.3769              1214.7913              1215.0493
 Red. masses --      1.0966                 1.1436                 1.1417
 Frc consts  --      0.9201                 0.9943                 0.9931
 IR Inten    --      0.0638                 0.1690                 0.4536

                     67                     68                     69
                      A                      A                      A
 Frequencies --   1223.0197              1236.0655              1238.7643
 Red. masses --      1.5522                 1.8807                 2.3638
 Frc consts  --      1.3680                 1.6930                 2.1372
 IR Inten    --     35.3733                12.0534                 6.1024

                     70                     71                     72
                      A                      A                      A
 Frequencies --   1246.1711              1262.6417              1308.6098
 Red. masses --      1.8747                 1.4503                 1.2196
 Frc consts  --      1.7153                 1.3623                 1.2305
 IR Inten    --     45.8686                 2.3988                 9.6420

                     73                     74                     75
                      A                      A                      A
 Frequencies --   1328.9537              1332.7675              1352.6920
 Red. masses --      1.4376                 1.4961                 1.6452
 Frc consts  --      1.4959                 1.5657                 1.7736
 IR Inten    --      2.2081                 1.3889                 0.8329

                     76                     77                     78
                      A                      A                      A
 Frequencies --   1362.1711              1365.4618              1368.9200
 Red. masses --      3.5868                 2.9045                 1.4420
 Frc consts  --      3.9213                 3.1907                 1.5922
 IR Inten    --      0.0876                 0.0362                 0.1601

                     79                     80                     81
                      A                      A                      A
 Frequencies --   1370.3572              1384.2796              1392.6231
 Red. masses --      1.2779                 1.3344                 1.5181
 Frc consts  --      1.4139                 1.5066                 1.7347
 IR Inten    --      1.3228                 2.8930                 2.9302

                     82                     83                     84
                      A                      A                      A
 Frequencies --   1405.2973              1411.1412              1417.3720
 Red. masses --      1.2778                 1.3780                 1.4153
 Frc consts  --      1.4868                 1.6167                 1.6752
 IR Inten    --     34.1067                11.7153                 2.6419

                     85                     86                     87
                      A                      A                      A
 Frequencies --   1425.7100              1502.6104              1503.1776
 Red. masses --      1.5294                 2.0050                 2.0780
 Frc consts  --      1.8316                 2.6672                 2.7664
 IR Inten    --     10.7820                 4.3468                 4.8145

                     88                     89                     90
                      A                      A                      A
 Frequencies --   1506.2247              1514.9665              1522.2254
 Red. masses --      1.1547                 1.1101                 1.1038
 Frc consts  --      1.5435                 1.5011                 1.5070
 IR Inten    --      2.4378                 3.3148                 2.5718

                     91                     92                     93
                      A                      A                      A
 Frequencies --   1523.0873              1535.6409              1548.7201
 Red. masses --      1.1037                 1.1021                 2.2362
 Frc consts  --      1.5085                 1.5312                 3.1601
 IR Inten    --      7.6910                 4.7794                13.4831

                     94                     95                     96
                      A                      A                      A
 Frequencies --   1549.1527              1646.3424              1646.4589
 Red. masses --      2.2582                 5.5023                 5.5309
 Frc consts  --      3.1930                 8.7869                 8.8337
 IR Inten    --      9.8808                 1.2262                 1.0818

                     97                     98                     99
                      A                      A                      A
 Frequencies --   1668.4736              1669.1692              2984.2769
 Red. masses --      5.6297                 5.6426                 1.0817
 Frc consts  --      9.2336                 9.2625                 5.6760
 IR Inten    --      9.8890                 4.3432                24.6088

                    100                    101                    102
                      A                      A                      A
 Frequencies --   3032.7262              3037.8927              3049.6591
 Red. masses --      1.0694                 1.0635                 1.0665
 Frc consts  --      5.7951                 5.7825                 5.8440
 IR Inten    --      8.1215                37.5974                14.6948

                    103                    104                    105
                      A                      A                      A
 Frequencies --   3056.8001              3060.9906              3068.4940
 Red. masses --      1.0594                 1.0611                 1.0853
 Frc consts  --      5.8323                 5.8576                 6.0207
 IR Inten    --     23.5775                16.6455                41.2962

                    106                    107                    108
                      A                      A                      A
 Frequencies --   3082.6903              3098.6384              3101.6983
 Red. masses --      1.0957                 1.1016                 1.1006
 Frc consts  --      6.1350                 6.2317                 6.2385
 IR Inten    --     57.1849                14.3770                28.4164

                    109                    110                    111
                      A                      A                      A
 Frequencies --   3104.0163              3107.9025              3173.7601
 Red. masses --      1.0999                 1.1018                 1.0863
 Frc consts  --      6.2440                 6.2701                 6.4467
 IR Inten    --     37.5259                39.5844                10.8432

                    112                    113                    114
                      A                      A                      A
 Frequencies --   3174.0449              3175.6554              3178.2023
 Red. masses --      1.0859                 1.0876                 1.0866
 Frc consts  --      6.4456                 6.4620                 6.4669
 IR Inten    --     11.1268                 5.6005                 4.0022

                    115                    116                    117
                      A                      A                      A
 Frequencies --   3188.4609              3188.9191              3197.2652
 Red. masses --      1.0896                 1.0900                 1.0938
 Frc consts  --      6.5266                 6.5307                 6.5877
 IR Inten    --      7.9421                10.1625                40.7453

                    118                    119                    120
                      A                      A                      A
 Frequencies --   3197.4019              3209.4989              3209.7800
 Red. masses --      1.0939                 1.0979                 1.0979
 Frc consts  --      6.5893                 6.6635                 6.6643
 IR Inten    --     42.2024                28.3756                20.0988

 - Thermochemistry -
 -------------------
 Temperature   298.150 Kelvin.  Pressure   1.00000 Atm.
 Atom     1 has atomic number  6 and mass  12.00000

 Molecular mass:   266.16707 amu.
 Principal axes and moments of inertia in atomic units:
                           1         2         3
     Eigenvalues --  1841.09916********************
           X            1.00000  -0.00056  -0.00122
           Y            0.00045   0.99629  -0.08610
           Z            0.00126   0.08610   0.99629
 This molecule is an asymmetric top.
 Rotational symmetry number  1.
 Warning -- assumption of classical behavior for rotation
           may cause significant error
 Rotational temperatures (Kelvin)      0.04704     0.00609     0.00603
 Rotational constants (GHZ):           0.98025     0.12699     0.12568
 Zero-point vibrational energy     964059.4 (Joules/Mol)
                                  230.41572 (Kcal/Mol)
 Warning -- explicit consideration of  25 degrees of freedom as
           vibrations may cause significant error
 Vibrational temperatures:     33.94    36.30    47.92    72.55    93.52
          (Kelvin)            112.73   173.57   191.45   298.76   332.82
                              347.07   431.25   474.46   511.54   521.61
                              581.01   601.05   601.14   636.49   678.59
                              708.02   744.24   778.77   850.89   881.28
                              918.26   918.68   957.42  1030.22  1031.09
                             1086.77  1103.33  1158.04  1196.28  1204.31
                             1221.82  1238.15  1238.71  1252.23  1307.88
                             1315.76  1331.48  1340.61  1364.71  1389.53
                             1390.02  1429.15  1429.31  1443.62  1467.66
                             1471.01  1471.56  1526.97  1527.00  1538.18
                             1543.03  1577.39  1593.52  1615.41  1630.74
                             1634.47  1669.06  1716.84  1717.00  1747.81
                             1748.18  1759.65  1778.42  1782.31  1792.96
                             1816.66  1882.80  1912.07  1917.56  1946.22
                             1959.86  1964.59  1969.57  1971.64  1991.67
                             2003.67  2021.91  2030.32  2039.28  2051.28
                             2161.92  2162.74  2167.12  2179.70  2190.14
                             2191.38  2209.44  2228.26  2228.89  2368.72
                             2368.89  2400.56  2401.56  4293.71  4363.42
                             4370.85  4387.78  4398.05  4404.08  4414.88
                             4435.30  4458.25  4462.65  4465.99  4471.58
                             4566.33  4566.74  4569.06  4572.72  4587.48
                             4588.14  4600.15  4600.35  4617.75  4618.16

 Zero-point correction=                           0.367191 (Hartree/Particle)
 Thermal correction to Energy=                    0.384251
 Thermal correction to Enthalpy=                  0.385195
 Thermal correction to Gibbs Free Energy=         0.319669
 Sum of electronic and zero-point Energies=           -812.223042
 Sum of electronic and thermal Energies=              -812.205982
 Sum of electronic and thermal Enthalpies=            -812.205038
 Sum of electronic and thermal Free Energies=         -812.270564

                     E (Thermal)             CV                S
                      KCal/Mol        Cal/Mol-Kelvin    Cal/Mol-Kelvin
 Total                  241.121             68.380            137.911
 Electronic               0.000              0.000              0.000
 Translational            0.889              2.981             42.636
 Rotational               0.889              2.981             34.284
 Vibrational            239.344             62.418             60.990
 Vibration     1          0.593              1.985              6.306
 Vibration     2          0.593              1.985              6.173
 Vibration     3          0.594              1.983              5.622
 Vibration     4          0.595              1.977              4.801
 Vibration     5          0.597              1.971              4.299
 Vibration     6          0.600              1.964              3.932
 Vibration     7          0.609              1.932              3.090
 Vibration     8          0.613              1.920              2.901
 Vibration     9          0.641              1.829              2.064
 Vibration    10          0.653              1.793              1.869
 Vibration    11          0.658              1.777              1.794
 Vibration    12          0.692              1.674              1.418
 Vibration    13          0.713              1.616              1.261
 Vibration    14          0.731              1.564              1.142
 Vibration    15          0.736              1.549              1.111
 Vibration    16          0.769              1.462              0.949
 Vibration    17          0.781              1.432              0.900
 Vibration    18          0.781              1.432              0.899
 Vibration    19          0.802              1.378              0.819
 Vibration    20          0.829              1.313              0.733
 Vibration    21          0.848              1.268              0.678
 Vibration    22          0.872              1.212              0.616
 Vibration    23          0.896              1.159              0.563
 Vibration    24          0.949              1.050              0.465
 Vibration    25          0.972              1.005              0.429

 Optimization completed.
    -- Stationary point found.
 Normal termination of Gaussian 16 at Sat Dec 12 16:16:24 2020.

 ----------------------------------------------------------------------
 # B3LYP/6-311++G(d,p) empiricaldispersion=gd3bj scf=xqc pop=npa geom=c
 heck
 ----------------------------------------------------------------------

 ----------------------------------------
 CID_154362841_JID_10583_Energie_neutraal
 ----------------------------------------
 Structure from the checkpoint file:  "JID_10583.chk"
 Charge =  0 Multiplicity = 1

 SCF Done:  E(RB3LYP) =  -812.802072046     A.U. after   14 cycles
 Normal termination of Gaussian 16 at Sat Dec 12 16:26:36 2020.

 ----------------------------------------------------------------------
 # B3LYP/6-311++G(d,p) empiricaldispersion=gd3bj scf=xqc pop=npa geom=c
 heck
 ----------------------------------------------------------------------

 --------------------------------------
 CID_154362841_JID_10583_Energie_kation
 --------------------------------------
 Structure from the checkpoint file:  "JID_10583.chk"
 Charge =  1 Multiplicity = 2

 SCF Done:  E(UB3LYP) =  -812.507646585     A.U. after   29 cycles
 Normal termination of Gaussian 16 at Sat Dec 12 16:56:15 2020.
 Gaussian 16:  ES64L-G16RevA.03 25-Dec-2016

 ----------------------------------------------------------------------
 # B3LYP/6-311++G(d,p) empiricaldispersion=gd3bj scf=xqc pop=npa geom=c
 heck
 ----------------------------------------------------------------------

 -------------------------------------
 CID_154362841_JID_10583_Energie_anion
 -------------------------------------
 Structure from the checkpoint file:  "JID_10583.chk"
 Charge = -1 Multiplicity = 2

                         Standard orientation:
 ---------------------------------------------------------------------
 Center     Atomic      Atomic             Coordinates (Angstroms)
 Number     Number       Type             X           Y           Z
 ---------------------------------------------------------------------
      1          6           0        0.204261   -1.344727    1.476845
      2          6           0       -1.148983   -1.311502    0.757413
      3          6           0       -1.078678   -0.412512   -0.478323
      4          8           0       -0.016636   -0.812361   -1.347540
      5          6           0        1.286510   -0.837253   -0.757924
      6          6           0        1.309514   -1.732356    0.487922
      7          6           0        1.814411    0.596578   -0.515423
      8          6           0        3.282126    0.617829   -0.166726
      9          6           0        3.709685    0.766687    1.158142
     10          6           0        5.066646    0.741068    1.481638
     11          6           0        6.021273    0.564980    0.479651
     12          6           0        5.608749    0.416821   -0.845860
     13          6           0        4.251508    0.443318   -1.163296
     14          6           0       -2.348872   -0.449884   -1.336993
     15          6           0       -3.559785    0.083339   -0.610557
     16          6           0       -4.507534   -0.780371   -0.049426
     17          6           0       -5.602800   -0.282212    0.657188
     18          6           0       -5.766707    1.094194    0.814440
     19          6           0       -4.829676    1.967087    0.258356
     20          6           0       -3.737984    1.463571   -0.447508
     21          1           0        0.412678   -0.357550    1.911983
     22          1           0        0.178643   -2.052148    2.313812
     23          1           0       -1.418097   -2.326408    0.432448
     24          1           0       -1.944121   -0.959223    1.423200
     25          1           0       -0.916531    0.626932   -0.148261
     26          1           0        1.917790   -1.288737   -1.531280
     27          1           0        2.297984   -1.687738    0.957158
     28          1           0        1.148975   -2.768006    0.162928
     29          1           0        1.630184    1.162212   -1.436187
     30          1           0        1.241313    1.084499    0.279483
     31          1           0        2.969500    0.906329    1.942622
     32          1           0        5.377505    0.861600    2.515857
     33          1           0        7.078578    0.546909    0.728435
     34          1           0        6.345248    0.284505   -1.633797
     35          1           0        3.936180    0.332919   -2.198440
     36          1           0       -2.151023    0.139125   -2.239978
     37          1           0       -2.515047   -1.484399   -1.658784
     38          1           0       -4.383952   -1.853848   -0.169658
     39          1           0       -6.328866   -0.969791    1.082477
     40          1           0       -6.619777    1.484574    1.362244
     41          1           0       -4.951871    3.040998    0.370783
     42          1           0       -3.014192    2.148207   -0.884084
 ---------------------------------------------------------------------

 SCF Done:  E(UB3LYP) =  -812.789467945     A.U. after   33 cycles
 SCF Done:  E(UB3LYP) =  -812.789467945     a.u. after    1 cycles

 The electronic state is 2-A.
 Alpha  occ. eigenvalues --  -19.03915 -10.14085 -10.13950 -10.10184 -10.10140
 Alpha  occ. eigenvalues --  -10.09380 -10.09349 -10.09316 -10.09291 -10.09210
 Alpha  occ. eigenvalues --  -10.09171 -10.09166 -10.09139 -10.09111 -10.09099
 Alpha  occ. eigenvalues --  -10.09003 -10.09000 -10.08764 -10.08412 -10.08296
 Alpha  occ. eigenvalues --   -0.95386  -0.78011  -0.77878  -0.72575  -0.72277
 Alpha  occ. eigenvalues --   -0.69437  -0.66668  -0.66568  -0.66558  -0.61963
 Alpha  occ. eigenvalues --   -0.60074  -0.54933  -0.54020  -0.52698  -0.52563
 Alpha  occ. eigenvalues --   -0.50768  -0.49831  -0.46455  -0.43496  -0.43149
 Alpha  occ. eigenvalues --   -0.41112  -0.40204  -0.38528  -0.38389  -0.37667
 Alpha  occ. eigenvalues --   -0.37206  -0.36444  -0.35797  -0.34817  -0.34105
 Alpha  occ. eigenvalues --   -0.34036  -0.32990  -0.32426  -0.31724  -0.30739
 Alpha  occ. eigenvalues --   -0.29593  -0.29273  -0.28152  -0.27570  -0.27056
 Alpha  occ. eigenvalues --   -0.26469  -0.26275  -0.26057  -0.25496  -0.25137
 Alpha  occ. eigenvalues --   -0.24316  -0.21482  -0.18344  -0.17495  -0.17456
 Alpha  occ. eigenvalues --   -0.16587  -0.16018   0.03686
 Alpha virt. eigenvalues --    0.04791   0.05875   0.06053   0.06250   0.06446
 Alpha virt. eigenvalues --    0.06532   0.06584   0.06689   0.07484   0.07610
 Alpha virt. eigenvalues --    0.07985   0.08739   0.09266   0.09576   0.09805

  Beta  occ. eigenvalues --  -19.03913 -10.14083 -10.13947 -10.10181 -10.10135
  Beta  occ. eigenvalues --  -10.09368 -10.09338 -10.09302 -10.09278 -10.09200
  Beta  occ. eigenvalues --  -10.09161 -10.09157 -10.09127 -10.09092 -10.09082
  Beta  occ. eigenvalues --  -10.08995 -10.08995 -10.08753 -10.08407 -10.08289
  Beta  occ. eigenvalues --   -0.95381  -0.77988  -0.77855  -0.72558  -0.72262
  Beta  occ. eigenvalues --   -0.69413  -0.66644  -0.66539  -0.66528  -0.61938
  Beta  occ. eigenvalues --   -0.60054  -0.54913  -0.53997  -0.52664  -0.52529
  Beta  occ. eigenvalues --   -0.50736  -0.49801  -0.46432  -0.43454  -0.43099
  Beta  occ. eigenvalues --   -0.41092  -0.40184  -0.38509  -0.38368  -0.37627
  Beta  occ. eigenvalues --   -0.37172  -0.36423  -0.35778  -0.34800  -0.34075
  Beta  occ. eigenvalues --   -0.34007  -0.32960  -0.32411  -0.31698  -0.30721
  Beta  occ. eigenvalues --   -0.29575  -0.29255  -0.28135  -0.27549  -0.27029
  Beta  occ. eigenvalues --   -0.26445  -0.26244  -0.26030  -0.25478  -0.25116
  Beta  occ. eigenvalues --   -0.24303  -0.21470  -0.18330  -0.17476  -0.17435
  Beta  occ. eigenvalues --   -0.16554  -0.15998
  Beta virt. eigenvalues --    0.05434   0.05805   0.06125   0.06271   0.06486
  Beta virt. eigenvalues --    0.06590   0.06755   0.06847   0.07017   0.07843
  Beta virt. eigenvalues --    0.07960   0.08333   0.09112   0.09473   0.09664

 Mulliken charges and spin densities:
               1          2
     1  C    0.209090  -0.706980
     2  C   -0.466378   0.109207
     3  C   -0.625580   0.098824
     4  O   -0.002094   0.019562
     5  C    0.362118  -0.411158
     6  C   -0.590396   0.109955
     7  C    1.848005  -2.525524
     8  C    0.018782   1.210083
     9  C   -1.512776   1.136604
    10  C    1.031572  -1.522320
    11  C    0.589295  -0.885158
    12  C    0.869001  -1.190045
    13  C   -1.884659   1.954687
    14  C    0.926276  -1.362078
    15  C    0.519659   0.249824
    16  C   -0.909825   0.624102
    17  C   -0.199157  -0.133332
    18  C    1.494486  -1.851078
    19  C   -0.377820   0.103241
    20  C   -0.598429   0.580916
    21  H    0.058484   0.097941
    22  H   -0.144612   0.334478
    23  H    0.183930  -0.035459
    24  H    0.149278   0.028641
    25  H    0.430663  -0.386253
    26  H    0.195327   0.008220
    27  H    0.277275  -0.124626
    28  H    0.052783   0.102069
    29  H    0.192995   0.022382
    30  H   -0.289118   0.468431
    31  H   -0.043048   0.195934
    32  H   -0.495065   0.680250
    33  H   -0.506407   0.677789
    34  H   -0.344377   0.515889
    35  H   -0.171892   0.334515
    36  H    0.096776   0.109288
    37  H    0.140161   0.031705
    38  H   -0.141881   0.298553
    39  H   -0.516330   0.700943
    40  H   -0.290003   0.449046
    41  H   -0.453095   0.634158
    42  H   -0.083015   0.246774
 Sum of Mulliken charges =  -1.00000   1.00000

 Dipole moment (field-independent basis, Debye):
    X=             -0.5627    Y=             -2.5569    Z=             -2.4350  Tot=              3.5754
 Quadrupole moment (field-independent basis, Debye-Ang):
   XX=           -298.1258   YY=           -158.9868   ZZ=           -161.6913
   XY=              0.4955   XZ=              2.1418   YZ=             -1.7286

 Summary of Natural Population Analysis:

                                       Natural Population
                Natural  -----------------------------------------------
    Atom  No    Charge         Core      Valence    Rydberg      Total
 -----------------------------------------------------------------------
      C    1   -0.19184      0.99963     2.18403    0.00818     3.19184
      C    2   -0.20536      0.99960     2.19738    0.00838     3.20536
      C    3    0.07256      0.99952     1.91539    0.01253     2.92744
      O    4   -0.30917      0.99988     3.29997    0.00932     4.30917
      C    5    0.07648      0.99953     1.91076    0.01322     2.92352
      C    6   -0.20501      0.99960     2.19802    0.00738     3.20501
      C    7   -0.21260      0.99957     2.20381    0.00922     3.21260
      C    8   -0.01620      0.99951     2.00607    0.01062     3.01620
      C    9   -0.10193      0.99951     2.09280    0.00963     3.10193
      C   10   -0.09766      0.99956     2.08740    0.01069     3.09766
      C   11   -0.10337      0.99956     2.09388    0.00993     3.10337
      C   12   -0.09838      0.99956     2.08821    0.01060     3.09838
      C   13   -0.10266      0.99951     2.09294    0.01022     3.10266
      C   14   -0.20119      0.99957     2.19147    0.01014     3.20119
      C   15   -0.01591      0.99950     2.00597    0.01044     3.01591
      C   16   -0.10079      0.99951     2.09198    0.00930     3.10079
      C   17   -0.09862      0.99956     2.08836    0.01070     3.09862
      C   18   -0.10310      0.99956     2.09369    0.00985     3.10310
      C   19   -0.09813      0.99956     2.08805    0.01052     3.09813
      C   20   -0.10147      0.99951     2.09223    0.00973     3.10147
      H   21    0.09505      0.00000     0.40353    0.00142     0.40495
      H   22    0.10075      0.00000     0.39835    0.00090     0.39925
      H   23    0.09496      0.00000     0.40371    0.00133     0.40504
      H   24    0.10792      0.00000     0.39102    0.00107     0.39208
      H   25    0.07963      0.00000     0.41823    0.00214     0.42037
      H   26    0.09238      0.00000     0.40627    0.00135     0.40762
      H   27    0.10792      0.00000     0.39108    0.00100     0.39208
      H   28    0.09829      0.00000     0.40064    0.00107     0.40171
      H   29    0.10840      0.00000     0.39028    0.00132     0.39160
      H   30    0.10145      0.00000     0.39676    0.00179     0.39855
      H   31    0.10086      0.00000     0.39750    0.00163     0.39914
      H   32    0.10286      0.00000     0.39585    0.00129     0.39714
      H   33    0.10319      0.00000     0.39519    0.00162     0.39681
      H   34    0.10181      0.00000     0.39707    0.00113     0.39819
      H   35    0.10040      0.00000     0.39859    0.00101     0.39960
      H   36    0.10812      0.00000     0.39063    0.00126     0.39188
      H   37    0.10204      0.00000     0.39630    0.00166     0.39796
      H   38    0.09994      0.00000     0.39861    0.00145     0.40006
      H   39    0.10240      0.00000     0.39630    0.00131     0.39760
      H   40    0.10283      0.00000     0.39576    0.00141     0.39717
      H   41    0.10218      0.00000     0.39668    0.00114     0.39782
      H   42    0.10097      0.00000     0.39802    0.00101     0.39903
 =======================================================================
   * Total *    0.00000     19.99133    51.77877    0.22990    72.00000

 Normal termination of Gaussian 16 at Sat Dec 12 17:29:14 2020.
