 Gaussian 16, Revision A.03,

 -----------------------------------------------------------
 # opt freq B3LYP/6-31G(d) empiricaldispersion=gd3bj scf=xqc
 -----------------------------------------------------------

 ------------------------------
 CID_21858037_JID_2511_neutraal
 ------------------------------
 Symbolic Z-matrix:
 Charge =  0 Multiplicity = 1

 SCF Done:  E(RB3LYP) =  -501.461728607     A.U. after   14 cycles
 SCF Done:  E(RB3LYP) =  -501.463662825     A.U. after   11 cycles
 SCF Done:  E(RB3LYP) =  -501.463978755     A.U. after   12 cycles
 SCF Done:  E(RB3LYP) =  -501.464085840     A.U. after   10 cycles
 SCF Done:  E(RB3LYP) =  -501.464166608     A.U. after   10 cycles
 SCF Done:  E(RB3LYP) =  -501.464313458     A.U. after   11 cycles
 SCF Done:  E(RB3LYP) =  -501.464351032     A.U. after   11 cycles
 SCF Done:  E(RB3LYP) =  -501.464427868     A.U. after   10 cycles
 SCF Done:  E(RB3LYP) =  -501.464668115     A.U. after   12 cycles
 SCF Done:  E(RB3LYP) =  -501.464713495     A.U. after   13 cycles
 SCF Done:  E(RB3LYP) =  -501.464755203     A.U. after    9 cycles
 SCF Done:  E(RB3LYP) =  -501.464755593     A.U. after    8 cycles
 SCF Done:  E(RB3LYP) =  -501.464755776     A.U. after    7 cycles
 SCF Done:  E(RB3LYP) =  -501.464756017     A.U. after    8 cycles
 SCF Done:  E(RB3LYP) =  -501.464756120     A.U. after    7 cycles
 SCF Done:  E(RB3LYP) =  -501.464756252     A.U. after    7 cycles
 Optimization completed.
    -- Stationary point found.
 Normal termination of Gaussian 16 at Wed Dec  9 17:33:13 2020.

 --------------------------------------------------------------------
 #N Geom=AllCheck Guess=TCheck SCRF=Check GenChk RB3LYP/6-31G(d) Freq
 --------------------------------------------------------------------

 Structure from the checkpoint file:  "JID_2511.chk"
 ------------------------------
 CID_21858037_JID_2511_neutraal
 ------------------------------
 Charge =  0 Multiplicity = 1

 SCF Done:  E(RB3LYP) =  -501.464756252     A.U. after    1 cycles

  Exact polarizability: 139.843  -7.022 113.568  -9.250  -3.168  87.588
 Approx polarizability: 177.799  -7.408 170.350 -20.799  -8.467 135.238

                      1                      2                      3
                      A                      A                      A
 Frequencies --     24.8227                43.2827                52.8440
 Red. masses --      3.5243                 3.0217                 3.4516
 Frc consts  --      0.0013                 0.0033                 0.0057
 IR Inten    --      1.4467                 0.3751                 0.7556

                      4                      5                      6
                      A                      A                      A
 Frequencies --     74.6396               103.8788               121.5557
 Red. masses --      3.3478                 1.0786                 2.1992
 Frc consts  --      0.0110                 0.0069                 0.0191
 IR Inten    --      0.0611                 0.2962                 0.2849

                      7                      8                      9
                      A                      A                      A
 Frequencies --    170.8963               208.0620               261.6123
 Red. masses --      3.4580                 1.4893                 2.4760
 Frc consts  --      0.0595                 0.0380                 0.0998
 IR Inten    --      0.0623                 0.5451                 2.8870

                     10                     11                     12
                      A                      A                      A
 Frequencies --    273.5764               300.3589               328.1187
 Red. masses --      2.0885                 1.8740                 2.4043
 Frc consts  --      0.0921                 0.0996                 0.1525
 IR Inten    --      2.1929                 0.6800                 1.1568

                     13                     14                     15
                      A                      A                      A
 Frequencies --    389.3471               407.5299               450.6392
 Red. masses --      1.9637                 2.2515                 2.1158
 Frc consts  --      0.1754                 0.2203                 0.2532
 IR Inten    --      0.2016                 1.4122                 0.6081

                     16                     17                     18
                      A                      A                      A
 Frequencies --    524.8270               613.3012               651.9066
 Red. masses --      2.4753                 3.4057                 3.0059
 Frc consts  --      0.4017                 0.7548                 0.7527
 IR Inten    --      0.2249                 1.2932                11.0907

                     19                     20                     21
                      A                      A                      A
 Frequencies --    680.6772               710.3903               716.6489
 Red. masses --      3.1411                 1.8920                 1.4517
 Frc consts  --      0.8575                 0.5626                 0.4393
 IR Inten    --      1.4915                 5.2224                16.8762

                     22                     23                     24
                      A                      A                      A
 Frequencies --    742.2444               771.5522               803.4175
 Red. masses --      1.6565                 2.2186                 1.3627
 Frc consts  --      0.5377                 0.7781                 0.5182
 IR Inten    --     10.9862                 5.1262                18.8484

                     25                     26                     27
                      A                      A                      A
 Frequencies --    832.9368               863.8437               915.9033
 Red. masses --      1.6359                 2.0501                 1.6043
 Frc consts  --      0.6687                 0.9014                 0.7929
 IR Inten    --      2.2353                 4.9571                 0.5760

                     28                     29                     30
                      A                      A                      A
 Frequencies --    955.1721               989.5713               994.4190
 Red. masses --      1.7984                 2.4891                 1.8937
 Frc consts  --      0.9667                 1.4361                 1.1033
 IR Inten    --      1.9824                 7.7770                 1.7996

                     31                     32                     33
                      A                      A                      A
 Frequencies --   1026.1592              1033.8135              1053.2162
 Red. masses --      1.8574                 1.4940                 1.6172
 Frc consts  --      1.1524                 0.9408                 1.0569
 IR Inten    --     20.0346                 0.4553                 0.4039

                     34                     35                     36
                      A                      A                      A
 Frequencies --   1074.8778              1080.1676              1098.8863
 Red. masses --      3.7860                 1.4802                 2.0828
 Frc consts  --      2.5772                 1.0175                 1.4818
 IR Inten    --      7.0037                 2.9521                 4.2416

                     37                     38                     39
                      A                      A                      A
 Frequencies --   1136.7365              1148.1001              1191.9617
 Red. masses --      1.8241                 1.9307                 1.6896
 Frc consts  --      1.3887                 1.4994                 1.4144
 IR Inten    --      2.0336                 1.3701                18.9717

                     40                     41                     42
                      A                      A                      A
 Frequencies --   1209.7246              1225.3199              1259.6844
 Red. masses --      1.4623                 1.3137                 1.3392
 Frc consts  --      1.2608                 1.1621                 1.2520
 IR Inten    --      0.8871                 2.5813                16.0511

                     43                     44                     45
                      A                      A                      A
 Frequencies --   1279.3801              1314.3639              1329.8890
 Red. masses --      1.3999                 1.2451                 4.5970
 Frc consts  --      1.3501                 1.2673                 4.7902
 IR Inten    --      2.6157                 1.6118                31.7864

                     46                     47                     48
                      A                      A                      A
 Frequencies --   1349.7926              1381.7946              1388.8952
 Red. masses --      1.1417                 1.3906                 1.5780
 Frc consts  --      1.2256                 1.5644                 1.7935
 IR Inten    --      0.6725                24.7443                 1.4562

                     49                     50                     51
                      A                      A                      A
 Frequencies --   1403.1376              1407.2871              1417.9670
 Red. masses --      1.6384                 2.4407                 1.5234
 Frc consts  --      1.9005                 2.8479                 1.8047
 IR Inten    --      0.5120                23.6598                 1.0739

                     52                     53                     54
                      A                      A                      A
 Frequencies --   1427.2297              1440.7236              1444.2550
 Red. masses --      1.4226                 1.9351                 1.2738
 Frc consts  --      1.7073                 2.3666                 1.5654
 IR Inten    --      9.6735                 6.4450                 4.4741

                     55                     56                     57
                      A                      A                      A
 Frequencies --   1450.4698              1504.6440              1506.9233
 Red. masses --      1.5951                 1.1102                 1.0445
 Frc consts  --      1.9772                 1.4808                 1.3975
 IR Inten    --      3.4767                 4.0475                 4.4186

                     58                     59                     60
                      A                      A                      A
 Frequencies --   1512.0762              1516.9347              1521.1374
 Red. masses --      1.1851                 1.1801                 1.0927
 Frc consts  --      1.5964                 1.6000                 1.4896
 IR Inten    --     19.8027                15.9992                10.6332

                     61                     62                     63
                      A                      A                      A
 Frequencies --   1527.7855              1528.7098              1535.5133
 Red. masses --      1.0587                 1.1054                 1.0766
 Frc consts  --      1.4560                 1.5220                 1.4956
 IR Inten    --      5.6494                 3.6664                 6.8825

                     64                     65                     66
                      A                      A                      A
 Frequencies --   1542.5557              1553.2954              1614.6767
 Red. masses --      1.0772                 2.1943                 4.9199
 Frc consts  --      1.5101                 3.1193                 7.5575
 IR Inten    --      4.1056                44.4352                10.5591

                     67                     68                     69
                      A                      A                      A
 Frequencies --   3032.1085              3034.0400              3044.5165
 Red. masses --      1.0606                 1.0659                 1.0539
 Frc consts  --      5.7453                 5.7809                 5.7556
 IR Inten    --     22.1901                28.7730                20.1699

                     70                     71                     72
                      A                      A                      A
 Frequencies --   3046.6599              3047.1611              3053.9333
 Red. masses --      1.0462                 1.0362                 1.0649
 Frc consts  --      5.7214                 5.6685                 5.8517
 IR Inten    --      9.3389                38.9086                 4.7385

                     73                     74                     75
                      A                      A                      A
 Frequencies --   3062.7672              3070.4008              3072.9241
 Red. masses --      1.0942                 1.0995                 1.0654
 Frc consts  --      6.0474                 6.1072                 5.9274
 IR Inten    --     32.0479                57.5784                12.3421

                     76                     77                     78
                      A                      A                      A
 Frequencies --   3083.3370              3092.8345              3101.1003
 Red. masses --      1.0977                 1.1024                 1.1013
 Frc consts  --      6.1488                 6.2128                 6.2403
 IR Inten    --     48.0026                79.1614                20.9059

                     79                     80                     81
                      A                      A                      A
 Frequencies --   3111.1478              3117.0279              3122.2188
 Red. masses --      1.1019                 1.1020                 1.1033
 Frc consts  --      6.2838                 6.3082                 6.3368
 IR Inten    --     49.2921                45.3445                21.0368

                     82                     83                     84
                      A                      A                      A
 Frequencies --   3124.5087              3251.1245              3281.1467
 Red. masses --      1.1019                 1.0958                 1.0976
 Frc consts  --      6.3379                 6.8239                 6.9623
 IR Inten    --     23.5756                 4.2056                 1.4783

 - Thermochemistry -
 -------------------
 Temperature   298.150 Kelvin.  Pressure   1.00000 Atm.
 Atom     1 has atomic number  6 and mass  12.00000

 Molecular mass:   166.14700 amu.
 Principal axes and moments of inertia in atomic units:
                           1         2         3
     Eigenvalues --   876.764814331.397574790.69686
           X            0.99994  -0.01079   0.00144
           Y            0.01080   0.99994  -0.00150
           Z           -0.00142   0.00151   1.00000
 This molecule is an asymmetric top.
 Rotational symmetry number  1.
 Warning -- assumption of classical behavior for rotation
           may cause significant error
 Rotational temperatures (Kelvin)      0.09879     0.02000     0.01808
 Rotational constants (GHZ):           2.05841     0.41666     0.37672
 Zero-point vibrational energy     712765.1 (Joules/Mol)
                                  170.35495 (Kcal/Mol)
 Warning -- explicit consideration of  17 degrees of freedom as
           vibrations may cause significant error
 Vibrational temperatures:     35.71    62.27    76.03   107.39   149.46
          (Kelvin)            174.89   245.88   299.35   376.40   393.62
                              432.15   472.09   560.18   586.34   648.37
                              755.11   882.40   937.95   979.34  1022.09
                             1031.10  1067.92  1110.09  1155.94  1198.41
                             1242.88  1317.78  1374.28  1423.77  1430.75
                             1476.41  1487.43  1515.34  1546.51  1554.12
                             1581.05  1635.51  1651.86  1714.97  1740.52
                             1762.96  1812.40  1840.74  1891.08  1913.41
                             1942.05  1988.09  1998.31  2018.80  2024.77
                             2040.14  2053.47  2072.88  2077.96  2086.90
                             2164.85  2168.13  2175.54  2182.53  2188.58
                             2198.14  2199.47  2209.26  2219.39  2234.85
                             2323.16  4362.53  4365.31  4380.38  4383.46
                             4384.19  4393.93  4406.64  4417.62  4421.25
                             4436.23  4449.90  4461.79  4476.25  4484.71
                             4492.18  4495.47  4677.64  4720.84

 Zero-point correction=                           0.271478 (Hartree/Particle)
 Thermal correction to Energy=                    0.284676
 Thermal correction to Enthalpy=                  0.285621
 Thermal correction to Gibbs Free Energy=         0.230041
 Sum of electronic and zero-point Energies=           -501.193278
 Sum of electronic and thermal Energies=              -501.180080
 Sum of electronic and thermal Enthalpies=            -501.179136
 Sum of electronic and thermal Free Energies=         -501.234715

                     E (Thermal)             CV                S
                      KCal/Mol        Cal/Mol-Kelvin    Cal/Mol-Kelvin
 Total                  178.637             48.385            116.978
 Electronic               0.000              0.000              0.000
 Translational            0.889              2.981             41.231
 Rotational               0.889              2.981             31.276
 Vibrational            176.860             42.424             44.470
 Vibration     1          0.593              1.985              6.205
 Vibration     2          0.595              1.980              5.103
 Vibration     3          0.596              1.976              4.708
 Vibration     4          0.599              1.966              4.027
 Vibration     5          0.605              1.946              3.380
 Vibration     6          0.609              1.931              3.075
 Vibration     7          0.626              1.878              2.426
 Vibration     8          0.641              1.828              2.061
 Vibration     9          0.669              1.743              1.651
 Vibration    10          0.676              1.722              1.574
 Vibration    11          0.693              1.673              1.415
 Vibration    12          0.711              1.619              1.269
 Vibration    13          0.757              1.493              1.003
 Vibration    14          0.772              1.454              0.935
 Vibration    15          0.809              1.359              0.794
 Vibration    16          0.880              1.195              0.599
 Vibration    17          0.973              1.004              0.427

 Optimization completed.
    -- Stationary point found.
 Normal termination of Gaussian 16 at Wed Dec  9 17:40:38 2020.

 ----------------------------------------------------------------------
 # B3LYP/6-311++G(d,p) empiricaldispersion=gd3bj scf=xqc pop=npa geom=c
 heck
 ----------------------------------------------------------------------

 --------------------------------------
 CID_21858037_JID_2511_Energie_neutraal
 --------------------------------------
 Structure from the checkpoint file:  "JID_2511.chk"
 Charge =  0 Multiplicity = 1

 SCF Done:  E(RB3LYP) =  -501.601773617     A.U. after   13 cycles
 Normal termination of Gaussian 16 at Wed Dec  9 17:44:48 2020.

 ----------------------------------------------------------------------
 # B3LYP/6-311++G(d,p) empiricaldispersion=gd3bj scf=xqc pop=npa geom=c
 heck
 ----------------------------------------------------------------------

 ------------------------------------
 CID_21858037_JID_2511_Energie_kation
 ------------------------------------
 Structure from the checkpoint file:  "JID_2511.chk"
 Charge =  1 Multiplicity = 2

 SCF Done:  E(UB3LYP) =  -501.304119889     A.U. after   19 cycles
 Normal termination of Gaussian 16 at Wed Dec  9 17:51:52 2020.
 Gaussian 16:  ES64L-G16RevA.03 25-Dec-2016

 ----------------------------------------------------------------------
 # B3LYP/6-311++G(d,p) empiricaldispersion=gd3bj scf=xqc pop=npa geom=c
 heck
 ----------------------------------------------------------------------

 -----------------------------------
 CID_21858037_JID_2511_Energie_anion
 -----------------------------------
 Structure from the checkpoint file:  "JID_2511.chk"
 Charge = -1 Multiplicity = 2

                         Standard orientation:
 ---------------------------------------------------------------------
 Center     Atomic      Atomic             Coordinates (Angstroms)
 Number     Number       Type             X           Y           Z
 ---------------------------------------------------------------------
      1          6           0       -4.506089   -0.304403   -0.339801
      2          6           0       -3.396446   -0.658039    0.654656
      3          6           0       -2.084693   -1.104662   -0.008934
      4          6           0       -1.444761   -0.079669   -0.959568
      5          6           0       -1.155404    1.293653   -0.339140
      6          6           0       -0.164282    1.269369    0.832404
      7          7           0        1.146808    0.754973    0.458407
      8          6           0        1.600307   -0.547900    0.580088
      9          6           0        2.844899   -0.578196   -0.004912
     10          7           0        3.164171    0.677244   -0.489054
     11          6           0        2.129896    1.439467   -0.199680
     12          6           0        3.786482   -1.732407   -0.137986
     13          1           0       -4.240111    0.563103   -0.954017
     14          1           0       -5.440919   -0.066272    0.179334
     15          1           0       -4.704845   -1.141739   -1.019996
     16          1           0       -3.209301    0.201788    1.312362
     17          1           0       -3.744598   -1.465397    1.311838
     18          1           0       -1.367853   -1.378450    0.776524
     19          1           0       -2.269724   -2.027318   -0.575587
     20          1           0       -0.509090   -0.497350   -1.350263
     21          1           0       -2.097323    0.067939   -1.828586
     22          1           0       -0.756158    1.959155   -1.114560
     23          1           0       -2.084494    1.756145    0.018128
     24          1           0       -0.029766    2.281548    1.228460
     25          1           0       -0.540229    0.651979    1.653194
     26          1           0        1.010545   -1.306791    1.071946
     27          1           0        2.033796    2.492919   -0.429932
     28          1           0        4.017229   -1.932479   -1.190955
     29          1           0        4.737677   -1.526119    0.366726
     30          1           0        3.358861   -2.641461    0.297150
 ---------------------------------------------------------------------

 SCF Done:  E(UB3LYP) =  -501.589122341     A.U. after   31 cycles

 The electronic state is 2-A.
 Alpha  occ. eigenvalues --  -14.26909 -14.19339 -10.12124 -10.11480 -10.09473
 Alpha  occ. eigenvalues --  -10.09274 -10.07681 -10.07241 -10.06645 -10.06409
 Alpha  occ. eigenvalues --  -10.06113 -10.05516  -0.91846  -0.79123  -0.71015
 Alpha  occ. eigenvalues --   -0.67173  -0.66693  -0.62345  -0.59359  -0.56565
 Alpha  occ. eigenvalues --   -0.51768  -0.48177  -0.47545  -0.45162  -0.41778
 Alpha  occ. eigenvalues --   -0.38172  -0.37739  -0.35417  -0.34696  -0.34369
 Alpha  occ. eigenvalues --   -0.32637  -0.32429  -0.30748  -0.29742  -0.29463
 Alpha  occ. eigenvalues --   -0.28848  -0.28705  -0.26451  -0.26169  -0.24874
 Alpha  occ. eigenvalues --   -0.22511  -0.21862  -0.21714  -0.17696  -0.17052
 Alpha  occ. eigenvalues --   -0.12825   0.04387
 Alpha virt. eigenvalues --    0.06644   0.06862   0.07431   0.08415   0.09370
 Alpha virt. eigenvalues --    0.09666   0.09902   0.10217   0.10730   0.11239
 Alpha virt. eigenvalues --    0.11840   0.11993   0.12233   0.12945   0.13565

  Beta  occ. eigenvalues --  -14.26911 -14.19336 -10.12105 -10.11444 -10.09456
  Beta  occ. eigenvalues --  -10.09273 -10.07674 -10.07216 -10.06639 -10.06392
  Beta  occ. eigenvalues --  -10.06082 -10.05480  -0.91836  -0.79107  -0.70980
  Beta  occ. eigenvalues --   -0.67148  -0.66652  -0.62303  -0.59322  -0.56503
  Beta  occ. eigenvalues --   -0.51701  -0.48134  -0.47506  -0.45100  -0.41712
  Beta  occ. eigenvalues --   -0.38129  -0.37703  -0.35378  -0.34660  -0.34339
  Beta  occ. eigenvalues --   -0.32596  -0.32402  -0.30719  -0.29711  -0.29436
  Beta  occ. eigenvalues --   -0.28829  -0.28671  -0.26398  -0.26123  -0.24836
  Beta  occ. eigenvalues --   -0.22474  -0.21815  -0.21673  -0.17688  -0.17029
  Beta  occ. eigenvalues --   -0.12791
  Beta virt. eigenvalues --    0.06565   0.07177   0.07869   0.08048   0.08844
  Beta virt. eigenvalues --    0.09844   0.10036   0.10276   0.10571   0.11080
  Beta virt. eigenvalues --    0.11506   0.12151   0.12216   0.12822   0.13225

 Mulliken charges and spin densities:
               1          2
     1  C    1.414177  -2.056312
     2  C   -0.501664   0.285965
     3  C    0.071642  -0.146797
     4  C    0.053419  -0.232304
     5  C    0.962074  -1.192477
     6  C   -0.045588  -0.567072
     7  N    0.120582   0.022523
     8  C   -1.203700   1.102536
     9  C    1.004055  -1.019594
    10  N   -0.218871   0.091875
    11  C    0.143475  -0.089501
    12  C    0.396764  -1.168019
    13  H   -0.173004   0.308252
    14  H   -0.385281   0.525535
    15  H   -0.134474   0.267904
    16  H   -0.089184   0.233892
    17  H   -0.528517   0.681305
    18  H   -0.133799   0.243754
    19  H   -0.127770   0.280036
    20  H    0.180856   0.001246
    21  H   -0.029813   0.197626
    22  H    0.051955   0.109945
    23  H   -0.297320   0.458579
    24  H   -0.646044   0.861857
    25  H   -0.373255   0.563094
    26  H   -0.413367   0.553305
    27  H   -0.327277   0.493660
    28  H    0.099593   0.047980
    29  H    0.082236   0.058500
    30  H    0.048099   0.082708
 Sum of Mulliken charges =  -1.00000   1.00000

 Dipole moment (field-independent basis, Debye):
    X=              4.9280    Y=             -2.3248    Z=             -2.5654  Tot=              6.0225
 Quadrupole moment (field-independent basis, Debye-Ang):
   XX=           -162.8928   YY=           -119.5555   ZZ=           -109.1932
   XY=             -5.9534   XZ=              7.4953   YZ=             -1.1005

 Summary of Natural Population Analysis:

                                       Natural Population
                Natural  -----------------------------------------------
    Atom  No    Charge         Core      Valence    Rydberg      Total
 -----------------------------------------------------------------------
      C    1   -0.28514      0.99967     2.28077    0.00470     3.28514
      C    2   -0.19199      0.99964     2.18416    0.00819     3.19199
      C    3   -0.19046      0.99963     2.18139    0.00944     3.19046
      C    4   -0.19406      0.99962     2.18721    0.00723     3.19406
      C    5   -0.19496      0.99962     2.18629    0.00905     3.19496
      C    6   -0.08387      0.99960     2.07185    0.01242     3.08387
      N    7   -0.20699      0.99965     2.69601    0.01133     3.70699
      C    8   -0.03468      0.99947     2.02395    0.01125     3.03468
      C    9    0.04594      0.99956     1.94153    0.01297     2.95406
      N   10   -0.26412      0.99971     2.75430    0.01012     3.76412
      C   11    0.11017      0.99962     1.87324    0.01696     2.88983
      C   12   -0.29420      0.99963     2.28956    0.00501     3.29420
      H   13    0.09527      0.00000     0.40343    0.00130     0.40473
      H   14    0.10034      0.00000     0.39825    0.00142     0.39966
      H   15    0.09396      0.00000     0.40471    0.00133     0.40604
      H   16    0.09456      0.00000     0.40354    0.00190     0.40544
      H   17    0.09741      0.00000     0.40095    0.00165     0.40259
      H   18    0.09396      0.00000     0.40438    0.00166     0.40604
      H   19    0.09591      0.00000     0.40298    0.00111     0.40409
      H   20    0.10002      0.00000     0.39860    0.00138     0.39998
      H   21    0.09821      0.00000     0.40066    0.00113     0.40179
      H   22    0.09841      0.00000     0.40032    0.00127     0.40159
      H   23    0.10442      0.00000     0.39386    0.00172     0.39558
      H   24    0.10589      0.00000     0.39111    0.00300     0.39411
      H   25    0.10291      0.00000     0.39519    0.00190     0.39709
      H   26    0.10538      0.00000     0.39331    0.00131     0.39462
      H   27    0.09332      0.00000     0.40522    0.00145     0.40668
      H   28    0.10179      0.00000     0.39682    0.00139     0.39821
      H   29    0.10163      0.00000     0.39694    0.00143     0.39837
      H   30    0.10099      0.00000     0.39822    0.00079     0.39901
 =======================================================================
   * Total *   -0.00000     11.99542    33.85876    0.14582    46.00000

 Normal termination of Gaussian 16 at Wed Dec  9 18:03:10 2020.
