 Gaussian 16, Revision A.03,

 -----------------------------------------------------------
 # opt freq B3LYP/6-31G(d) empiricaldispersion=gd3bj scf=xqc
 -----------------------------------------------------------

 ------------------------------
 CID_13528250_JID_1927_neutraal
 ------------------------------
 Symbolic Z-matrix:
 Charge =  0 Multiplicity = 1

 SCF Done:  E(RB3LYP) =  -481.941807584     A.U. after   13 cycles
 SCF Done:  E(RB3LYP) =  -481.944347648     A.U. after   11 cycles
 SCF Done:  E(RB3LYP) =  -481.944528877     A.U. after   11 cycles
 SCF Done:  E(RB3LYP) =  -481.944561596     A.U. after    9 cycles
 SCF Done:  E(RB3LYP) =  -481.944567253     A.U. after    9 cycles
 SCF Done:  E(RB3LYP) =  -481.944568841     A.U. after    8 cycles
 SCF Done:  E(RB3LYP) =  -481.944569198     A.U. after    7 cycles
 Optimization completed.
    -- Stationary point found.
 Normal termination of Gaussian 16 at Tue Dec  8 21:34:54 2020.

 --------------------------------------------------------------------
 #N Geom=AllCheck Guess=TCheck SCRF=Check GenChk RB3LYP/6-31G(d) Freq
 --------------------------------------------------------------------

 Structure from the checkpoint file:  "JID_1927.chk"
 ------------------------------
 CID_13528250_JID_1927_neutraal
 ------------------------------
 Charge =  0 Multiplicity = 1

 SCF Done:  E(RB3LYP) =  -481.944569198     A.U. after    1 cycles

  Exact polarizability: 121.216  -1.215  96.829  -6.946   1.652  83.071
 Approx polarizability: 157.517  -7.057 135.459 -14.771   2.329 135.333

                      1                      2                      3
                      A                      A                      A
 Frequencies --     80.2417               131.9500               202.1005
 Red. masses --      3.0235                 3.2105                 2.9812
 Frc consts  --      0.0115                 0.0329                 0.0717
 IR Inten    --      0.5760                 0.0213                 1.8560

                      4                      5                      6
                      A                      A                      A
 Frequencies --    267.7348               276.5019               312.3862
 Red. masses --      2.4139                 2.5502                 1.9750
 Frc consts  --      0.1019                 0.1149                 0.1136
 IR Inten    --      1.2775                 0.3817                 0.5165

                      7                      8                      9
                      A                      A                      A
 Frequencies --    331.7397               355.2904               388.5569
 Red. masses --      1.3110                 2.1794                 2.6372
 Frc consts  --      0.0850                 0.1621                 0.2346
 IR Inten    --     86.1386                10.0816                 2.9348

                     10                     11                     12
                      A                      A                      A
 Frequencies --    416.3690               432.4760               501.9697
 Red. masses --      2.6683                 3.1871                 2.9061
 Frc consts  --      0.2725                 0.3512                 0.4314
 IR Inten    --      3.6348                 1.4763                 1.1996

                     13                     14                     15
                      A                      A                      A
 Frequencies --    522.4925               581.2671               619.2031
 Red. masses --      3.6574                 2.4019                 2.5836
 Frc consts  --      0.5883                 0.4781                 0.5836
 IR Inten    --      3.0413                 0.2993                 2.7274

                     16                     17                     18
                      A                      A                      A
 Frequencies --    685.8464               781.2218               817.5983
 Red. masses --      3.1225                 2.8522                 3.4649
 Frc consts  --      0.8654                 1.0256                 1.3647
 IR Inten    --      4.8972                 5.5374                16.5028

                     19                     20                     21
                      A                      A                      A
 Frequencies --    833.3365               862.6074               875.6819
 Red. masses --      1.3188                 2.0738                 2.2946
 Frc consts  --      0.5396                 0.9092                 1.0367
 IR Inten    --     10.2706                 1.9224                 4.5323

                     22                     23                     24
                      A                      A                      A
 Frequencies --    893.2462               897.9285               921.2031
 Red. masses --      1.7051                 2.3849                 1.8978
 Frc consts  --      0.8016                 1.1329                 0.9489
 IR Inten    --      4.6255                 3.6847                21.5402

                     25                     26                     27
                      A                      A                      A
 Frequencies --    956.3285               998.4670              1026.0759
 Red. masses --      2.0650                 2.2694                 2.1573
 Frc consts  --      1.1127                 1.3330                 1.3382
 IR Inten    --      1.6451                13.6136                 0.3638

                     28                     29                     30
                      A                      A                      A
 Frequencies --   1035.4376              1074.3476              1085.9547
 Red. masses --      2.3757                 1.9088                 1.6718
 Frc consts  --      1.5007                 1.2981                 1.1616
 IR Inten    --      7.1845                 6.1586                 0.6530

                     31                     32                     33
                      A                      A                      A
 Frequencies --   1109.8135              1124.0783              1132.3216
 Red. masses --      2.3714                 1.9985                 1.7175
 Frc consts  --      1.7209                 1.4878                 1.2974
 IR Inten    --      1.7857                 6.7201                 2.3626

                     34                     35                     36
                      A                      A                      A
 Frequencies --   1176.7362              1199.1429              1229.4619
 Red. masses --      2.0032                 1.5987                 1.4175
 Frc consts  --      1.6343                 1.3545                 1.2624
 IR Inten    --      0.8051                 2.5314                 2.6357

                     37                     38                     39
                      A                      A                      A
 Frequencies --   1242.1468              1260.1578              1294.8532
 Red. masses --      1.4980                 1.3637                 1.2611
 Frc consts  --      1.3618                 1.2759                 1.2457
 IR Inten    --      1.0948                 0.5439                 0.7924

                     40                     41                     42
                      A                      A                      A
 Frequencies --   1318.2657              1343.2313              1347.0766
 Red. masses --      1.2367                 1.2394                 1.2454
 Frc consts  --      1.2662                 1.3175                 1.3315
 IR Inten    --      7.6208                 8.5793                10.1028

                     43                     44                     45
                      A                      A                      A
 Frequencies --   1362.9995              1373.7880              1386.7365
 Red. masses --      1.2299                 1.4320                 1.5004
 Frc consts  --      1.3462                 1.5923                 1.7000
 IR Inten    --     36.4665                 2.4351                 5.8536

                     46                     47                     48
                      A                      A                      A
 Frequencies --   1392.2919              1396.4184              1402.3979
 Red. masses --      1.5166                 1.4303                 1.5123
 Frc consts  --      1.7321                 1.6433                 1.7524
 IR Inten    --      2.6945                 1.0346                16.9693

                     49                     50                     51
                      A                      A                      A
 Frequencies --   1406.8863              1412.3407              1502.1990
 Red. masses --      1.6517                 1.4696                 1.0943
 Frc consts  --      1.9262                 1.7272                 1.4549
 IR Inten    --      0.7416                 4.0826                 3.3552

                     52                     53                     54
                      A                      A                      A
 Frequencies --   1508.4358              1508.8857              1520.2242
 Red. masses --      1.0878                 1.0869                 1.0972
 Frc consts  --      1.4584                 1.4580                 1.4939
 IR Inten    --      1.2924                 5.4740                 3.4831

                     55                     56                     57
                      A                      A                      A
 Frequencies --   1522.1927              1532.2455              1753.9755
 Red. masses --      1.0926                 1.0935                 7.5682
 Frc consts  --      1.4916                 1.5126                13.7180
 IR Inten    --      2.5425                 1.1470                 0.4357

                     58                     59                     60
                      A                      A                      A
 Frequencies --   2988.3217              2993.9753              3007.0686
 Red. masses --      1.0726                 1.0798                 1.0693
 Frc consts  --      5.6434                 5.7026                 5.6971
 IR Inten    --     15.2258                41.0507                36.5858

                     61                     62                     63
                      A                      A                      A
 Frequencies --   3033.4216              3044.0691              3053.8925
 Red. masses --      1.0664                 1.0653                 1.0889
 Frc consts  --      5.7816                 5.8163                 5.9832
 IR Inten    --     21.2951                36.4867                65.5599

                     64                     65                     66
                      A                      A                      A
 Frequencies --   3057.0650              3059.0588              3078.2513
 Red. masses --      1.0652                 1.0629                 1.0907
 Frc consts  --      5.8654                 5.8603                 6.0892
 IR Inten    --     40.9101                20.4288                39.9001

                     67                     68                     69
                      A                      A                      A
 Frequencies --   3082.2789              3101.6822              3106.6203
 Red. masses --      1.0981                 1.0990                 1.1034
 Frc consts  --      6.1468                 6.2296                 6.2742
 IR Inten    --     57.2580                42.5365                29.5347

                     70                     71                     72
                      A                      A                      A
 Frequencies --   3114.7479              3141.3969              3751.0974
 Red. masses --      1.1008                 1.0892                 1.0683
 Frc consts  --      6.2924                 6.3328                 8.8566
 IR Inten    --     35.9559                36.4240                33.6791

 - Thermochemistry -
 -------------------
 Temperature   298.150 Kelvin.  Pressure   1.00000 Atm.
 Atom     1 has atomic number  6 and mass  12.00000

 Molecular mass:   153.11536 amu.
 Principal axes and moments of inertia in atomic units:
                           1         2         3
     Eigenvalues --   949.918271884.874982398.22618
           X            0.99972   0.02289  -0.00541
           Y           -0.02284   0.99969   0.01015
           Z            0.00564  -0.01002   0.99993
 This molecule is an asymmetric top.
 Rotational symmetry number  1.
 Warning -- assumption of classical behavior for rotation
           may cause significant error
 Rotational temperatures (Kelvin)      0.09118     0.04595     0.03612
 Rotational constants (GHZ):           1.89989     0.95749     0.75253
 Zero-point vibrational energy     613312.3 (Joules/Mol)
                                  146.58516 (Kcal/Mol)
 Warning -- explicit consideration of  15 degrees of freedom as
           vibrations may cause significant error
 Vibrational temperatures:    115.45   189.85   290.78   385.21   397.82
          (Kelvin)            449.45   477.30   511.18   559.05   599.06
                              622.24   722.22   751.75   836.31   890.90
                              986.78  1124.00  1176.34  1198.99  1241.10
                             1259.91  1285.18  1291.92  1325.41  1375.94
                             1436.57  1476.29  1489.76  1545.75  1562.45
                             1596.77  1617.30  1629.16  1693.06  1725.30
                             1768.92  1787.17  1813.09  1863.01  1896.69
                             1932.61  1938.14  1961.05  1976.57  1995.20
                             2003.20  2009.13  2017.74  2024.20  2032.04
                             2161.33  2170.30  2170.95  2187.26  2190.10
                             2204.56  2523.58  4299.53  4307.66  4326.50
                             4364.42  4379.74  4393.87  4398.43  4401.30
                             4428.92  4434.71  4462.63  4469.73  4481.43
                             4519.77  5396.99

 Zero-point correction=                           0.233598 (Hartree/Particle)
 Thermal correction to Energy=                    0.243240
 Thermal correction to Enthalpy=                  0.244184
 Thermal correction to Gibbs Free Energy=         0.199327
 Sum of electronic and zero-point Energies=           -481.710971
 Sum of electronic and thermal Energies=              -481.701330
 Sum of electronic and thermal Enthalpies=            -481.700385
 Sum of electronic and thermal Free Energies=         -481.745243

                     E (Thermal)             CV                S
                      KCal/Mol        Cal/Mol-Kelvin    Cal/Mol-Kelvin
 Total                  152.635             39.836             94.410
 Electronic               0.000              0.000              0.000
 Translational            0.889              2.981             40.988
 Rotational               0.889              2.981             29.841
 Vibrational            150.858             33.874             23.581
 Vibration     1          0.600              1.963              3.885
 Vibration     2          0.612              1.921              2.917
 Vibration     3          0.639              1.837              2.114
 Vibration     4          0.673              1.732              1.611
 Vibration     5          0.678              1.717              1.555
 Vibration     6          0.701              1.650              1.350
 Vibration     7          0.714              1.612              1.252
 Vibration     8          0.731              1.564              1.143
 Vibration     9          0.757              1.495              1.006
 Vibration    10          0.780              1.435              0.904
 Vibration    11          0.793              1.399              0.851
 Vibration    12          0.857              1.246              0.653
 Vibration    13          0.877              1.200              0.604
 Vibration    14          0.938              1.072              0.483
 Vibration    15          0.979              0.991              0.418

 Optimization completed.
    -- Stationary point found.
 Normal termination of Gaussian 16 at Tue Dec  8 21:41:50 2020.

 ----------------------------------------------------------------------
 # B3LYP/6-311++G(d,p) empiricaldispersion=gd3bj scf=xqc pop=npa geom=c
 heck
 ----------------------------------------------------------------------

 --------------------------------------
 CID_13528250_JID_1927_Energie_neutraal
 --------------------------------------
 Structure from the checkpoint file:  "JID_1927.chk"
 Charge =  0 Multiplicity = 1

 SCF Done:  E(RB3LYP) =  -482.083182257     A.U. after   14 cycles
 Normal termination of Gaussian 16 at Tue Dec  8 21:44:47 2020.

 ----------------------------------------------------------------------
 # B3LYP/6-311++G(d,p) empiricaldispersion=gd3bj scf=xqc pop=npa geom=c
 heck
 ----------------------------------------------------------------------

 ------------------------------------
 CID_13528250_JID_1927_Energie_kation
 ------------------------------------
 Structure from the checkpoint file:  "JID_1927.chk"
 Charge =  1 Multiplicity = 2

 SCF Done:  E(UB3LYP) =  -481.783641690     A.U. after   22 cycles
 Normal termination of Gaussian 16 at Tue Dec  8 21:51:48 2020.
 Gaussian 16:  ES64L-G16RevA.03 25-Dec-2016

 ----------------------------------------------------------------------
 # B3LYP/6-311++G(d,p) empiricaldispersion=gd3bj scf=xqc pop=npa geom=c
 heck
 ----------------------------------------------------------------------

 -----------------------------------
 CID_13528250_JID_1927_Energie_anion
 -----------------------------------
 Structure from the checkpoint file:  "JID_1927.chk"
 Charge = -1 Multiplicity = 2

                         Standard orientation:
 ---------------------------------------------------------------------
 Center     Atomic      Atomic             Coordinates (Angstroms)
 Number     Number       Type             X           Y           Z
 ---------------------------------------------------------------------
      1          6           0       -2.621955   -0.518476   -0.467150
      2          6           0       -2.606994    0.674000    0.497658
      3          6           0       -1.301826    1.423257    0.420675
      4          6           0       -0.182112    0.923836   -0.113129
      5          6           0        1.080493    1.735104   -0.280275
      6          6           0        2.323079    0.954395    0.175240
      7          6           0        2.336934   -0.434308   -0.471649
      8          7           0        1.123862   -1.219922   -0.202911
      9          6           0       -0.100131   -0.499601   -0.641972
     10          6           0       -1.338696   -1.336772   -0.313214
     11          8           0        1.060170   -1.347753    1.246967
     12          1           0       -3.500416   -1.148734   -0.285029
     13          1           0       -2.703636   -0.146874   -1.497988
     14          1           0       -3.437902    1.356670    0.274501
     15          1           0       -2.778104    0.322894    1.527586
     16          1           0       -1.292815    2.445115    0.801540
     17          1           0        1.201728    1.981055   -1.348550
     18          1           0        0.995349    2.688629    0.253649
     19          1           0        3.238797    1.498384   -0.087143
     20          1           0        2.308060    0.833846    1.263086
     21          1           0        2.409836   -0.349042   -1.564510
     22          1           0        3.191640   -1.024999   -0.127688
     23          1           0        0.018695   -0.450433   -1.736664
     24          1           0       -1.253149   -1.672558    0.725768
     25          1           0       -1.351011   -2.230204   -0.947890
     26          1           0        1.071782   -2.310878    1.356875
 ---------------------------------------------------------------------

 SCF Done:  E(UB3LYP) =  -482.066116411     A.U. after   32 cycles

 The electronic state is 2-A.
 Alpha  occ. eigenvalues --  -19.02932 -14.24062 -10.08726 -10.07866 -10.06043
 Alpha  occ. eigenvalues --  -10.05771 -10.05711 -10.05608 -10.05209 -10.05024
 Alpha  occ. eigenvalues --  -10.04859  -0.94383  -0.76433  -0.71068  -0.67381
 Alpha  occ. eigenvalues --   -0.63435  -0.61581  -0.53520  -0.51287  -0.48733
 Alpha  occ. eigenvalues --   -0.46393  -0.41883  -0.37694  -0.36770  -0.35890
 Alpha  occ. eigenvalues --   -0.35171  -0.32801  -0.32378  -0.30474  -0.29070
 Alpha  occ. eigenvalues --   -0.28417  -0.27352  -0.26579  -0.25939  -0.24173
 Alpha  occ. eigenvalues --   -0.23047  -0.22206  -0.20892  -0.19754  -0.17853
 Alpha  occ. eigenvalues --   -0.12906  -0.11719   0.04921
 Alpha virt. eigenvalues --    0.07259   0.07650   0.08309   0.09208   0.09683
 Alpha virt. eigenvalues --    0.10168   0.10639   0.11334   0.11728   0.12135
 Alpha virt. eigenvalues --    0.12909   0.13218   0.13403   0.14393   0.14820

  Beta  occ. eigenvalues --  -19.02894 -14.24054 -10.08714 -10.07840 -10.06032
  Beta  occ. eigenvalues --  -10.05754 -10.05699 -10.05586 -10.05193 -10.04995
  Beta  occ. eigenvalues --  -10.04838  -0.94304  -0.76377  -0.71024  -0.67340
  Beta  occ. eigenvalues --   -0.63391  -0.61530  -0.53467  -0.51243  -0.48659
  Beta  occ. eigenvalues --   -0.46323  -0.41820  -0.37645  -0.36727  -0.35848
  Beta  occ. eigenvalues --   -0.35129  -0.32761  -0.32331  -0.30434  -0.29022
  Beta  occ. eigenvalues --   -0.28378  -0.27317  -0.26530  -0.25896  -0.24137
  Beta  occ. eigenvalues --   -0.23005  -0.22158  -0.20856  -0.19714  -0.17807
  Beta  occ. eigenvalues --   -0.12795  -0.11679
  Beta virt. eigenvalues --    0.07221   0.08112   0.08434   0.08926   0.09898
  Beta virt. eigenvalues --    0.10159   0.10560   0.11120   0.11578   0.12261
  Beta virt. eigenvalues --    0.12585   0.13184   0.13563   0.13741   0.14670

 Mulliken charges and spin densities:
               1          2
     1  C   -0.353233   0.079267
     2  C    1.259221  -1.908994
     3  C   -2.507488   2.204594
     4  C    1.587415  -0.630577
     5  C    1.436260  -1.899394
     6  C   -0.420692   0.051043
     7  C    1.113833  -1.366635
     8  N    0.196238   0.039004
     9  C   -1.722169   1.040848
    10  C    0.999958  -1.371306
    11  O   -0.250563   0.017131
    12  H   -0.281813   0.440459
    13  H    0.045171   0.076231
    14  H   -0.169695   0.307851
    15  H    0.046465   0.093607
    16  H   -0.158048   0.296379
    17  H   -0.146135   0.309200
    18  H   -0.151669   0.286933
    19  H   -0.318062   0.474753
    20  H    0.294689  -0.144106
    21  H   -0.225919   0.364509
    22  H   -0.518632   0.703240
    23  H   -0.420556   0.627620
    24  H    0.124260  -0.002114
    25  H   -0.409143   0.597594
    26  H   -0.049690   0.312864
 Sum of Mulliken charges =  -1.00000   1.00000

 Dipole moment (field-independent basis, Debye):
    X=             -1.4879    Y=              1.3743    Z=              2.1714  Tot=              2.9695
 Quadrupole moment (field-independent basis, Debye-Ang):
   XX=           -121.9916   YY=           -107.0345   ZZ=            -99.9486
   XY=             -1.2932   XZ=              2.7712   YZ=              2.2896

 Summary of Natural Population Analysis:

                                       Natural Population
                Natural  -----------------------------------------------
    Atom  No    Charge         Core      Valence    Rydberg      Total
 -----------------------------------------------------------------------
      C    1   -0.18558      0.99963     2.17791    0.00803     3.18558
      C    2   -0.20021      0.99962     2.19304    0.00755     3.20021
      C    3   -0.08814      0.99945     2.07913    0.00956     3.08814
      C    4   -0.00898      0.99946     1.99853    0.01099     3.00898
      C    5   -0.19921      0.99959     2.18951    0.01012     3.19921
      C    6   -0.19845      0.99962     2.19061    0.00821     3.19845
      C    7   -0.08955      0.99960     2.07766    0.01229     3.08955
      N    8   -0.12581      0.99970     2.60968    0.01643     3.62581
      C    9   -0.02112      0.99951     2.00768    0.01393     3.02112
      C   10   -0.19401      0.99961     2.18336    0.01103     3.19401
      O   11   -0.30678      0.99991     3.29970    0.00718     4.30678
      H   12    0.09767      0.00000     0.40108    0.00125     0.40233
      H   13    0.09389      0.00000     0.40467    0.00145     0.40611
      H   14    0.09763      0.00000     0.40108    0.00129     0.40237
      H   15    0.09812      0.00000     0.40043    0.00145     0.40188
      H   16    0.09117      0.00000     0.40766    0.00117     0.40883
      H   17    0.10025      0.00000     0.39774    0.00201     0.39975
      H   18    0.09925      0.00000     0.39965    0.00110     0.40075
      H   19    0.09920      0.00000     0.39942    0.00138     0.40080
      H   20    0.10172      0.00000     0.39669    0.00159     0.39828
      H   21    0.09726      0.00000     0.40034    0.00240     0.40274
      H   22    0.09905      0.00000     0.39942    0.00153     0.40095
      H   23    0.10433      0.00000     0.39311    0.00256     0.39567
      H   24    0.10237      0.00000     0.39567    0.00196     0.39763
      H   25    0.10121      0.00000     0.39714    0.00165     0.39879
      H   26    0.23469      0.00000     0.26079    0.00451     0.26531
 =======================================================================
   * Total *   -0.00000     10.99570    30.86169    0.14261    42.00000

 Normal termination of Gaussian 16 at Tue Dec  8 22:00:15 2020.
