 Gaussian 16, Revision A.03,

 -----------------------------------------------------------
 # opt freq B3LYP/6-31G(d) empiricaldispersion=gd3bj scf=xqc
 -----------------------------------------------------------

 -------------------------------
 CID_114726208_JID_9933_neutraal
 -------------------------------
 Symbolic Z-matrix:
 Charge =  0 Multiplicity = 1

 SCF Done:  E(RB3LYP) =  -882.145014200     A.U. after   16 cycles
 SCF Done:  E(RB3LYP) =  -882.150295095     A.U. after   13 cycles
 SCF Done:  E(RB3LYP) =  -882.150343965     A.U. after   13 cycles
 SCF Done:  E(RB3LYP) =  -882.152569834     A.U. after   15 cycles
 SCF Done:  E(RB3LYP) =  -882.152891223     A.U. after   12 cycles
 SCF Done:  E(RB3LYP) =  -882.154260945     A.U. after   12 cycles
 SCF Done:  E(RB3LYP) =  -882.155063677     A.U. after   13 cycles
 SCF Done:  E(RB3LYP) =  -882.153553440     A.U. after   15 cycles
 SCF Done:  E(RB3LYP) =  -882.155463847     A.U. after   13 cycles
 SCF Done:  E(RB3LYP) =  -882.155880611     A.U. after   12 cycles
 SCF Done:  E(RB3LYP) =  -882.156202063     A.U. after    9 cycles
 SCF Done:  E(RB3LYP) =  -882.156201772     A.U. after    8 cycles
 SCF Done:  E(RB3LYP) =  -882.156201632     A.U. after    7 cycles
 SCF Done:  E(RB3LYP) =  -882.156202096     A.U. after    8 cycles
 SCF Done:  E(RB3LYP) =  -882.156201635     A.U. after    8 cycles
 Optimization completed.
    -- Stationary point found.
 Normal termination of Gaussian 16 at Mon Dec 14 13:38:29 2020.

 --------------------------------------------------------------------
 #N Geom=AllCheck Guess=TCheck SCRF=Check GenChk RB3LYP/6-31G(d) Freq
 --------------------------------------------------------------------

 Structure from the checkpoint file:  "JID_9933.chk"
 -------------------------------
 CID_114726208_JID_9933_neutraal
 -------------------------------
 Charge =  0 Multiplicity = 1

 SCF Done:  E(RB3LYP) =  -882.156201635     A.U. after    1 cycles

  Exact polarizability: 245.351  -6.562 149.790  18.001 -19.380 113.823
 Approx polarizability: 355.400 -11.526 256.599  35.804 -49.366 175.154

                      1                      2                      3
                      A                      A                      A
 Frequencies --     24.9103                33.1557                61.1713
 Red. masses --      5.7412                 4.0595                 2.3839
 Frc consts  --      0.0021                 0.0026                 0.0053
 IR Inten    --      0.2140                 0.3822                 2.6945

                      4                      5                      6
                      A                      A                      A
 Frequencies --     93.2396                97.4442               121.0709
 Red. masses --      5.3205                 5.1685                 6.1432
 Frc consts  --      0.0273                 0.0289                 0.0531
 IR Inten    --      0.1774                 0.4027                 2.7106

                      7                      8                      9
                      A                      A                      A
 Frequencies --    165.7675               200.3728               222.8400
 Red. masses --      2.8664                 2.5338                 2.0527
 Frc consts  --      0.0464                 0.0599                 0.0601
 IR Inten    --      0.6957                 1.9883                 3.0472

                     10                     11                     12
                      A                      A                      A
 Frequencies --    258.9111               260.7680               273.9166
 Red. masses --      3.9545                 2.9515                 3.6244
 Frc consts  --      0.1562                 0.1182                 0.1602
 IR Inten    --      2.4281                10.1797                 1.5265

                     13                     14                     15
                      A                      A                      A
 Frequencies --    286.8054               329.3362               346.4041
 Red. masses --      5.8765                 2.3647                 3.5796
 Frc consts  --      0.2848                 0.1511                 0.2531
 IR Inten    --      1.8709                 0.6187                 4.5168

                     16                     17                     18
                      A                      A                      A
 Frequencies --    385.3381               401.6076               427.8610
 Red. masses --      4.6773                 4.1451                 2.7732
 Frc consts  --      0.4092                 0.3939                 0.2991
 IR Inten    --      2.1913                13.8275                 0.9194

                     19                     20                     21
                      A                      A                      A
 Frequencies --    440.5532               472.0207               491.3485
 Red. masses --      3.1444                 4.1852                 3.3767
 Frc consts  --      0.3596                 0.5494                 0.4803
 IR Inten    --      2.9363                12.0727                 1.7521

                     22                     23                     24
                      A                      A                      A
 Frequencies --    554.9845               570.1170               576.3949
 Red. masses --      3.2857                 4.0494                 3.7343
 Frc consts  --      0.5963                 0.7755                 0.7310
 IR Inten    --      6.6549                 1.4013                 0.0176

                     25                     26                     27
                      A                      A                      A
 Frequencies --    598.1370               619.9873               627.2861
 Red. masses --      3.7513                 3.2420                 6.5725
 Frc consts  --      0.7907                 0.7342                 1.5238
 IR Inten    --     16.6872                 4.3881                 9.4025

                     28                     29                     30
                      A                      A                      A
 Frequencies --    633.5372               755.9327               762.5687
 Red. masses --      6.1531                 3.4153                 1.4272
 Frc consts  --      1.4551                 1.1499                 0.4890
 IR Inten    --      4.8611                 2.1379                62.3154

                     31                     32                     33
                      A                      A                      A
 Frequencies --    766.3135               803.1636               838.1313
 Red. masses --      4.6904                 5.1476                 1.5729
 Frc consts  --      1.6228                 1.9564                 0.6510
 IR Inten    --      0.2312                21.6776                 1.4503

                     34                     35                     36
                      A                      A                      A
 Frequencies --    849.0066               862.5403               880.7204
 Red. masses --      3.1686                 1.3764                 3.7703
 Frc consts  --      1.3457                 0.6033                 1.7230
 IR Inten    --     42.1124                 6.4093                20.1781

                     37                     38                     39
                      A                      A                      A
 Frequencies --    884.4769               903.5606               931.5052
 Red. masses --      1.5236                 4.5051                 3.0254
 Frc consts  --      0.7023                 2.1671                 1.5467
 IR Inten    --     13.1326                 4.5765                 6.8487

                     40                     41                     42
                      A                      A                      A
 Frequencies --    942.2603               948.4310               967.3482
 Red. masses --      1.3493                 2.7314                 3.4508
 Frc consts  --      0.7058                 1.4476                 1.9026
 IR Inten    --      2.1057                 6.0500                11.2028

                     43                     44                     45
                      A                      A                      A
 Frequencies --    982.1863              1020.0438              1029.7994
 Red. masses --      1.2534                 2.7479                 2.3370
 Frc consts  --      0.7124                 1.6846                 1.4602
 IR Inten    --      0.0047                54.2127                19.4208

                     46                     47                     48
                      A                      A                      A
 Frequencies --   1038.8128              1062.6107              1077.7315
 Red. masses --      2.1115                 1.7026                 2.6638
 Frc consts  --      1.3425                 1.1327                 1.8230
 IR Inten    --      3.1542                13.5993                10.0217

                     49                     50                     51
                      A                      A                      A
 Frequencies --   1132.9548              1139.9690              1143.3813
 Red. masses --      4.7689                 5.0748                 1.6333
 Frc consts  --      3.6066                 3.8856                 1.2580
 IR Inten    --     30.3970                95.0865                 4.9102

                     52                     53                     54
                      A                      A                      A
 Frequencies --   1168.1553              1184.5522              1187.5575
 Red. masses --      1.8229                 1.3231                 1.2789
 Frc consts  --      1.4656                 1.0938                 1.0626
 IR Inten    --    149.0060                 8.1556                 1.5329

                     55                     56                     57
                      A                      A                      A
 Frequencies --   1197.9112              1199.5621              1224.3528
 Red. masses --      2.2427                 1.8291                 1.4610
 Frc consts  --      1.8962                 1.5507                 1.2904
 IR Inten    --     45.6873                62.7260                 9.9026

                     58                     59                     60
                      A                      A                      A
 Frequencies --   1235.3077              1258.4588              1291.8414
 Red. masses --      2.0788                 1.8114                 1.7909
 Frc consts  --      1.8690                 1.6902                 1.7609
 IR Inten    --     19.6343                27.6600                15.0217

                     61                     62                     63
                      A                      A                      A
 Frequencies --   1297.5095              1306.1665              1333.7279
 Red. masses --      2.7111                 2.1071                 1.4975
 Frc consts  --      2.6891                 2.1180                 1.5695
 IR Inten    --      5.7793                54.2714                25.6850

                     64                     65                     66
                      A                      A                      A
 Frequencies --   1343.1285              1355.3903              1364.7523
 Red. masses --      1.6584                 2.3172                 1.4671
 Frc consts  --      1.7627                 2.5081                 1.6100
 IR Inten    --     10.3534                 5.5862                 3.4559

                     67                     68                     69
                      A                      A                      A
 Frequencies --   1393.7651              1401.7341              1407.8645
 Red. masses --      1.4881                 1.2575                 5.0294
 Frc consts  --      1.7031                 1.4558                 5.8733
 IR Inten    --     12.7706                10.2809                16.7004

                     70                     71                     72
                      A                      A                      A
 Frequencies --   1444.6670              1484.1765              1496.8620
 Red. masses --      1.3288                 2.4102                 1.1065
 Frc consts  --      1.6340                 3.1280                 1.4608
 IR Inten    --      6.1771                13.9888                 6.7881

                     73                     74                     75
                      A                      A                      A
 Frequencies --   1504.8579              1521.8507              1525.8033
 Red. masses --      1.1419                 1.1343                 1.1985
 Frc consts  --      1.5236                 1.5478                 1.6440
 IR Inten    --      4.0394                 7.6814                 1.1598

                     76                     77                     78
                      A                      A                      A
 Frequencies --   1526.8597              1529.0126              1534.9282
 Red. masses --      1.4562                 1.3548                 1.0689
 Frc consts  --      2.0002                 1.8661                 1.4837
 IR Inten    --      5.1858                 9.1555                16.1654

                     79                     80                     81
                      A                      A                      A
 Frequencies --   1540.3378              1597.9650              1641.3712
 Red. masses --      1.1014                 6.4223                 6.4435
 Frc consts  --      1.5396                 9.6622                10.2279
 IR Inten    --      5.3031               227.0523                 2.4717

                     82                     83                     84
                      A                      A                      A
 Frequencies --   1672.4026              1743.6889              2965.9620
 Red. masses --      6.9946                12.3787                 1.0727
 Frc consts  --     11.5263                22.1751                 5.5600
 IR Inten    --     21.2716               137.0198                62.3091

                     85                     86                     87
                      A                      A                      A
 Frequencies --   3019.5161              3036.8305              3071.2596
 Red. masses --      1.0699                 1.0325                 1.0695
 Frc consts  --      5.7472                 5.6103                 5.9436
 IR Inten    --     43.1973                44.6805                11.6359

                     88                     89                     90
                      A                      A                      A
 Frequencies --   3085.5683              3096.0953              3110.0676
 Red. masses --      1.0640                 1.1052                 1.0914
 Frc consts  --      5.9682                 6.2417                 6.2200
 IR Inten    --     20.1610                48.7913                40.6627

                     91                     92                     93
                      A                      A                      A
 Frequencies --   3117.9401              3138.4852              3146.3398
 Red. masses --      1.0949                 1.1018                 1.1014
 Frc consts  --      6.2712                 6.3945                 6.4240
 IR Inten    --     56.5899                35.0948                 9.4215

                     94                     95                     96
                      A                      A                      A
 Frequencies --   3164.1134              3195.6301              3206.7944
 Red. masses --      1.0928                 1.0862                 1.0900
 Frc consts  --      6.4459                 6.5353                 6.6039
 IR Inten    --      9.0125                 1.0426                 9.0657

                     97                     98                     99
                      A                      A                      A
 Frequencies --   3217.3217              3228.3948              3291.7025
 Red. masses --      1.0952                 1.0954                 1.0967
 Frc consts  --      6.6795                 6.7269                 7.0012
 IR Inten    --     23.4419                 7.3196                 0.6561

 - Thermochemistry -
 -------------------
 Temperature   298.150 Kelvin.  Pressure   1.00000 Atm.
 Atom     1 has atomic number  6 and mass  12.00000

 Molecular mass:   260.10486 amu.
 Principal axes and moments of inertia in atomic units:
                           1         2         3
     Eigenvalues --  2230.591618208.146018264.72587
           X            1.00000   0.00030   0.00051
           Y           -0.00036   0.99253   0.12197
           Z           -0.00047  -0.12197   0.99253
 This molecule is an asymmetric top.
 Rotational symmetry number  1.
 Warning -- assumption of classical behavior for rotation
           may cause significant error
 Rotational temperatures (Kelvin)      0.03883     0.01055     0.01048
 Rotational constants (GHZ):           0.80909     0.21987     0.21837
 Zero-point vibrational energy     755485.3 (Joules/Mol)
                                  180.56532 (Kcal/Mol)
 Warning -- explicit consideration of  26 degrees of freedom as
           vibrations may cause significant error
 Vibrational temperatures:     35.84    47.70    88.01   134.15   140.20
          (Kelvin)            174.19   238.50   288.29   320.62   372.52
                              375.19   394.10   412.65   473.84   498.40
                              554.42   577.82   615.60   633.86   679.13
                              706.94   798.50   820.27   829.30   860.59
                              892.02   902.52   911.52  1087.62  1097.17
                             1102.55  1155.57  1205.88  1221.53  1241.00
                             1267.16  1272.56  1300.02  1340.23  1355.70
                             1364.58  1391.80  1413.15  1467.62  1481.65
                             1494.62  1528.86  1550.62  1630.07  1640.16
                             1645.07  1680.71  1704.31  1708.63  1723.53
                             1725.90  1761.57  1777.33  1810.64  1858.67
                             1866.83  1879.28  1918.94  1932.46  1950.10
                             1963.57  2005.32  2016.78  2025.60  2078.55
                             2135.40  2153.65  2165.15  2189.60  2195.29
                             2196.81  2199.91  2208.42  2216.20  2299.12
                             2361.57  2406.21  2508.78  4267.36  4344.41
                             4369.32  4418.86  4439.44  4454.59  4474.69
                             4486.02  4515.58  4526.88  4552.45  4597.80
                             4613.86  4629.01  4644.94  4736.03

 Zero-point correction=                           0.287749 (Hartree/Particle)
 Thermal correction to Energy=                    0.303855
 Thermal correction to Enthalpy=                  0.304799
 Thermal correction to Gibbs Free Energy=         0.243168
 Sum of electronic and zero-point Energies=           -881.868452
 Sum of electronic and thermal Energies=              -881.852347
 Sum of electronic and thermal Enthalpies=            -881.851403
 Sum of electronic and thermal Free Energies=         -881.913033

                     E (Thermal)             CV                S
                      KCal/Mol        Cal/Mol-Kelvin    Cal/Mol-Kelvin
 Total                  190.672             63.363            129.712
 Electronic               0.000              0.000              0.000
 Translational            0.889              2.981             42.567
 Rotational               0.889              2.981             33.381
 Vibrational            188.894             57.401             53.764
 Vibration     1          0.593              1.985              6.198
 Vibration     2          0.594              1.983              5.631
 Vibration     3          0.597              1.973              4.419
 Vibration     4          0.602              1.954              3.591
 Vibration     5          0.603              1.951              3.505
 Vibration     6          0.609              1.932              3.083
 Vibration     7          0.624              1.885              2.483
 Vibration     8          0.638              1.839              2.130
 Vibration     9          0.649              1.806              1.936
 Vibration    10          0.668              1.748              1.669
 Vibration    11          0.669              1.744              1.657
 Vibration    12          0.676              1.721              1.571
 Vibration    13          0.684              1.698              1.493
 Vibration    14          0.712              1.617              1.263
 Vibration    15          0.724              1.583              1.182
 Vibration    16          0.754              1.501              1.018
 Vibration    17          0.767              1.467              0.957
 Vibration    18          0.789              1.410              0.866
 Vibration    19          0.800              1.382              0.825
 Vibration    20          0.829              1.312              0.732
 Vibration    21          0.847              1.269              0.680
 Vibration    22          0.910              1.129              0.534
 Vibration    23          0.926              1.096              0.504
 Vibration    24          0.933              1.082              0.492
 Vibration    25          0.956              1.036              0.453
 Vibration    26          0.980              0.990              0.417

 Optimization completed.
    -- Stationary point found.
 Normal termination of Gaussian 16 at Mon Dec 14 13:57:58 2020.

 ----------------------------------------------------------------------
 # B3LYP/6-311++G(d,p) empiricaldispersion=gd3bj scf=xqc pop=npa geom=c
 heck
 ----------------------------------------------------------------------

 ---------------------------------------
 CID_114726208_JID_9933_Energie_neutraal
 ---------------------------------------
 Structure from the checkpoint file:  "JID_9933.chk"
 Charge =  0 Multiplicity = 1

 SCF Done:  E(RB3LYP) =  -882.395612297     A.U. after   16 cycles
 Normal termination of Gaussian 16 at Mon Dec 14 14:06:46 2020.

 ----------------------------------------------------------------------
 # B3LYP/6-311++G(d,p) empiricaldispersion=gd3bj scf=xqc pop=npa geom=c
 heck
 ----------------------------------------------------------------------

 -------------------------------------
 CID_114726208_JID_9933_Energie_kation
 -------------------------------------
 Structure from the checkpoint file:  "JID_9933.chk"
 Charge =  1 Multiplicity = 2

 SCF Done:  E(UB3LYP) =  -882.087876583     A.U. after   33 cycles
 SCF Done:  E(UB3LYP) =  -882.087876583     a.u. after    1 cycles
 Normal termination of Gaussian 16 at Mon Dec 14 14:33:46 2020.
 Gaussian 16:  ES64L-G16RevA.03 25-Dec-2016

 ----------------------------------------------------------------------
 # B3LYP/6-311++G(d,p) empiricaldispersion=gd3bj scf=xqc pop=npa geom=c
 heck
 ----------------------------------------------------------------------

 ------------------------------------
 CID_114726208_JID_9933_Energie_anion
 ------------------------------------
 Structure from the checkpoint file:  "JID_9933.chk"
 Charge = -1 Multiplicity = 2

                         Standard orientation:
 ---------------------------------------------------------------------
 Center     Atomic      Atomic             Coordinates (Angstroms)
 Number     Number       Type             X           Y           Z
 ---------------------------------------------------------------------
      1          6           0       -0.897374   -2.150784   -1.751458
      2          8           0       -1.992106   -1.259610   -1.606531
      3          6           0       -2.022303   -0.370515   -0.480188
      4          6           0       -1.864962   -1.088488    0.870765
      5          6           0       -2.206793   -0.139497    2.024709
      6          8           0       -3.524878    0.367508    1.923004
      7          6           0       -3.705808    1.101575    0.716525
      8          6           0       -3.426701    0.245534   -0.519620
      9          6           0       -0.974271    0.751422   -0.747514
     10          8           0       -1.315727    1.804872   -1.270350
     11          6           0        0.462175    0.591447   -0.455570
     12          6           0        1.467909    1.481552   -0.716918
     13          6           0        2.685484    0.884186   -0.254883
     14          6           0        4.040327    1.257123   -0.224225
     15          6           0        4.954648    0.369383    0.326802
     16          6           0        4.546460   -0.877074    0.845724
     17          6           0        3.211277   -1.271639    0.828267
     18          6           0        2.311520   -0.369858    0.272649
     19          8           0        0.963637   -0.550613    0.153516
     20          1           0       -1.167511   -2.812289   -2.578410
     21          1           0       -0.728000   -2.757659   -0.853976
     22          1           0        0.036426   -1.634208   -2.005509
     23          1           0       -2.574085   -1.924470    0.876499
     24          1           0       -0.862722   -1.491116    1.017442
     25          1           0       -2.151960   -0.666763    2.981343
     26          1           0       -1.479622    0.691999    2.058660
     27          1           0       -3.057453    1.991040    0.716183
     28          1           0       -4.745378    1.440139    0.721452
     29          1           0       -3.538682    0.843227   -1.426709
     30          1           0       -4.137474   -0.585963   -0.559321
     31          1           0        1.327443    2.443436   -1.187189
     32          1           0        4.360729    2.215072   -0.621947
     33          1           0        6.006593    0.635798    0.361381
     34          1           0        5.290749   -1.544879    1.268699
     35          1           0        2.884018   -2.226832    1.223898
 ---------------------------------------------------------------------

 SCF Done:  E(UB3LYP) =  -882.430096576     A.U. after   23 cycles

 The electronic state is 2-A.
 Alpha  occ. eigenvalues --  -19.04475 -19.01293 -19.00222 -18.92821 -10.10571
 Alpha  occ. eigenvalues --  -10.10372 -10.10004 -10.09962 -10.09507 -10.07622
 Alpha  occ. eigenvalues --  -10.07589 -10.05172 -10.05158 -10.04981 -10.04866
 Alpha  occ. eigenvalues --  -10.04809 -10.04577 -10.04317 -10.02013  -0.97298
 Alpha  occ. eigenvalues --   -0.92871  -0.91277  -0.87034  -0.73035  -0.68175
 Alpha  occ. eigenvalues --   -0.66467  -0.65170  -0.62476  -0.60428  -0.58181
 Alpha  occ. eigenvalues --   -0.53582  -0.52039  -0.50239  -0.47556  -0.47194
 Alpha  occ. eigenvalues --   -0.44962  -0.40603  -0.39810  -0.38484  -0.37396
 Alpha  occ. eigenvalues --   -0.36462  -0.35499  -0.34540  -0.33831  -0.33568
 Alpha  occ. eigenvalues --   -0.32287  -0.32105  -0.30979  -0.30131  -0.29160
 Alpha  occ. eigenvalues --   -0.28881  -0.27352  -0.26511  -0.26392  -0.24820
 Alpha  occ. eigenvalues --   -0.24679  -0.23810  -0.23401  -0.22645  -0.22329
 Alpha  occ. eigenvalues --   -0.21344  -0.19725  -0.18428  -0.16713  -0.15732
 Alpha  occ. eigenvalues --   -0.14500  -0.12065  -0.09687  -0.09086   0.02354
 Alpha virt. eigenvalues --    0.07827   0.08363   0.09211   0.09467   0.09847
 Alpha virt. eigenvalues --    0.10624   0.10975   0.11277   0.11806   0.12527
 Alpha virt. eigenvalues --    0.12661   0.12855   0.13501   0.13800   0.14520

  Beta  occ. eigenvalues --  -19.04337 -19.01293 -19.00158 -18.92168 -10.10560
  Beta  occ. eigenvalues --  -10.10396 -10.10005 -10.09959 -10.09504 -10.07486
  Beta  occ. eigenvalues --  -10.07270 -10.05219 -10.05112 -10.04977 -10.04912
  Beta  occ. eigenvalues --  -10.04650 -10.04380 -10.04316 -10.01773  -0.97071
  Beta  occ. eigenvalues --   -0.92863  -0.91122  -0.85900  -0.72847  -0.68097
  Beta  occ. eigenvalues --   -0.66103  -0.65155  -0.62280  -0.59974  -0.58141
  Beta  occ. eigenvalues --   -0.53240  -0.51783  -0.50109  -0.47298  -0.47010
  Beta  occ. eigenvalues --   -0.44749  -0.40253  -0.39711  -0.38279  -0.37205
  Beta  occ. eigenvalues --   -0.36443  -0.35399  -0.34366  -0.33738  -0.33446
  Beta  occ. eigenvalues --   -0.32155  -0.31718  -0.30866  -0.29986  -0.29083
  Beta  occ. eigenvalues --   -0.28713  -0.27279  -0.26215  -0.26056  -0.24607
  Beta  occ. eigenvalues --   -0.24325  -0.23529  -0.22669  -0.22415  -0.21535
  Beta  occ. eigenvalues --   -0.20200  -0.19673  -0.18110  -0.15839  -0.15276
  Beta  occ. eigenvalues --   -0.14447  -0.11470  -0.08553  -0.07914
  Beta virt. eigenvalues --    0.07799   0.08297   0.08611   0.09199   0.09485
  Beta virt. eigenvalues --    0.09845   0.10609   0.11240   0.11661   0.11955
  Beta virt. eigenvalues --    0.12526   0.12828   0.13057   0.13590   0.14348

 Mulliken charges and spin densities:
               1          2
     1  C   -0.186341  -0.000967
     2  O   -0.042070   0.010038
     3  C    0.058686  -0.004979
     4  C    0.019380   0.057245
     5  C   -0.493461  -0.078121
     6  O   -0.145851   0.000263
     7  C   -0.460786   0.025018
     8  C   -0.248878  -0.018885
     9  C   -0.479946   0.234890
    10  O   -0.330228   0.237254
    11  C   -0.285165   0.078027
    12  C    0.228325   0.221981
    13  C    1.192517  -0.029965
    14  C   -0.312120   0.162739
    15  C   -0.030567  -0.041252
    16  C   -0.326083   0.131917
    17  C   -0.298896   0.027632
    18  C   -1.187417  -0.025599
    19  O    0.051337   0.028814
    20  H    0.137803   0.000864
    21  H    0.108577  -0.001003
    22  H    0.147039   0.002714
    23  H    0.174177   0.006536
    24  H    0.107776  -0.002663
    25  H    0.166337   0.011493
    26  H    0.139792   0.007143
    27  H    0.171653  -0.001768
    28  H    0.165377  -0.000145
    29  H    0.188951  -0.000275
    30  H    0.155778  -0.001352
    31  H    0.162866  -0.015507
    32  H    0.107710  -0.010840
    33  H    0.109621   0.003156
    34  H    0.119870  -0.009758
    35  H    0.114238  -0.004644
 Sum of Mulliken charges =  -1.00000   1.00000

 Dipole moment (field-independent basis, Debye):
    X=             -0.2585    Y=             -3.1465    Z=              1.6944  Tot=              3.5830
 Quadrupole moment (field-independent basis, Debye-Ang):
   XX=           -160.7865   YY=           -124.5944   ZZ=           -131.0820
   XY=              2.2066   XZ=             -1.0352   YZ=              1.7387

 Summary of Natural Population Analysis:

                                       Natural Population
                Natural  -----------------------------------------------
    Atom  No    Charge         Core      Valence    Rydberg      Total
 -----------------------------------------------------------------------
      C    1   -0.09689      0.99960     2.08904    0.00825     3.09689
      O    2   -0.30114      0.99987     3.28998    0.01130     4.30114
      C    3    0.10878      0.99947     1.87240    0.01936     2.89122
      C    4   -0.22266      0.99958     2.21590    0.00718     3.22266
      C    5   -0.00752      0.99959     1.99684    0.01108     3.00752
      O    6   -0.30759      0.99989     3.29725    0.01045     4.30759
      C    7   -0.01112      0.99958     2.00067    0.01087     3.01112
      C    8   -0.20904      0.99958     2.19964    0.00982     3.20904
      C    9    0.27534      0.99954     1.70250    0.02262     2.72466
      O   10   -0.22705      0.99988     3.22115    0.00601     4.22705
      C   11    0.13815      0.99939     1.84791    0.01455     2.86185
      C   12   -0.08042      0.99947     2.07279    0.00816     3.08042
      C   13   -0.06501      0.99949     2.05727    0.00825     3.06501
      C   14   -0.06189      0.99954     2.05379    0.00856     3.06189
      C   15   -0.13788      0.99961     2.12799    0.01028     3.13788
      C   16   -0.07439      0.99945     2.06434    0.01060     3.07439
      C   17   -0.12689      0.99954     2.11766    0.00969     3.12689
      C   18    0.15876      0.99937     1.82940    0.01248     2.84124
      O   19   -0.24224      0.99985     3.23372    0.00867     4.24224
      H   20    0.08124      0.00000     0.41785    0.00091     0.41876
      H   21    0.07641      0.00000     0.42221    0.00138     0.42359
      H   22    0.08678      0.00000     0.41198    0.00124     0.41322
      H   23    0.09510      0.00000     0.40341    0.00149     0.40490
      H   24    0.11547      0.00000     0.38345    0.00107     0.38453
      H   25    0.08516      0.00000     0.41369    0.00114     0.41484
      H   26    0.08348      0.00000     0.41535    0.00117     0.41652
      H   27    0.08862      0.00000     0.41009    0.00130     0.41138
      H   28    0.08382      0.00000     0.41507    0.00110     0.41618
      H   29    0.11727      0.00000     0.38146    0.00127     0.38273
      H   30    0.09549      0.00000     0.40316    0.00135     0.40451
      H   31    0.10917      0.00000     0.38991    0.00092     0.39083
      H   32    0.09191      0.00000     0.40652    0.00157     0.40809
      H   33    0.09167      0.00000     0.40720    0.00112     0.40833
      H   34    0.09097      0.00000     0.40836    0.00068     0.40903
      H   35    0.09817      0.00000     0.40032    0.00151     0.40183
 =======================================================================
   * Total *    0.00001     18.99231    49.78029    0.22738    68.99999

 Normal termination of Gaussian 16 at Mon Dec 14 14:52:23 2020.
