 Gaussian 16, Revision A.03,

 -----------------------------------------------------------
 # opt freq B3LYP/6-31G(d) empiricaldispersion=gd3bj scf=xqc
 -----------------------------------------------------------

 ------------------------------
 CID_88004586_JID_1632_neutraal
 ------------------------------
 Symbolic Z-matrix:
 Charge =  0 Multiplicity = 1

 SCF Done:  E(RB3LYP) =  -578.485455840     A.U. after   13 cycles
 SCF Done:  E(RB3LYP) =  -578.488213705     A.U. after   11 cycles
 SCF Done:  E(RB3LYP) =  -578.488779276     A.U. after   11 cycles
 SCF Done:  E(RB3LYP) =  -578.490057014     A.U. after   13 cycles
 SCF Done:  E(RB3LYP) =  -578.490842708     A.U. after   13 cycles
 SCF Done:  E(RB3LYP) =  -578.492120311     A.U. after   13 cycles
 SCF Done:  E(RB3LYP) =  -578.469501027     A.U. after   14 cycles
 SCF Done:  E(RB3LYP) =  -578.493858223     A.U. after   12 cycles
 SCF Done:  E(RB3LYP) =  -578.493207390     A.U. after   13 cycles
 SCF Done:  E(RB3LYP) =  -578.493058654     A.U. after   12 cycles
 SCF Done:  E(RB3LYP) =  -578.513175953     A.U. after    7 cycles
 SCF Done:  E(RB3LYP) =  -578.513176032     A.U. after    7 cycles
 SCF Done:  E(RB3LYP) =  -578.513176124     A.U. after    7 cycles
 SCF Done:  E(RB3LYP) =  -578.513176206     A.U. after    7 cycles
 SCF Done:  E(RB3LYP) =  -578.513176286     A.U. after    7 cycles
 SCF Done:  E(RB3LYP) =  -578.513176334     A.U. after    7 cycles
 Optimization completed.
    -- Stationary point found.

 1\1\GINC-NODE315\FOpt\RB3LYP\6-31G(d)\C7H18O4\VSC10255\08-Dec-2020\0\\
 # opt freq B3LYP/6-31G(d) empiricaldispersion=gd3bj scf=xqc\\CID_88004
 586_JID_1632_neutraal\\0,1\C,2.205666777,-0.769246099,0.351549748\C,1.
 5031278955,0.5286143074,0.7387229983\O,1.1682723045,1.3299568007,-0.39
 72708436\C,2.2365336005,2.0713782544,-0.9711932369\C,2.4892179892,3.38
 68974698,-0.24028334\C,-1.7830977293,1.0731493736,-1.2737713465\C,-0.8
 641732668,0.1177822457,-1.9760244195\O,-0.6125554465,-1.0255589485,-1.
 6289595002\O,-0.3121185004,0.6470046443,-3.0859925042\C,-1.1657607838,

 Normal termination of Gaussian 16 at Tue Dec  8 21:31:19 2020.

 --------------------------------------------------------------------
 #N Geom=AllCheck Guess=TCheck SCRF=Check GenChk RB3LYP/6-31G(d) Freq
 --------------------------------------------------------------------

 Structure from the checkpoint file:  "JID_1632.chk"
 ------------------------------
 CID_88004586_JID_1632_neutraal
 ------------------------------
 Charge =  0 Multiplicity = 1

 SCF Done:  E(RB3LYP) =  -578.513176334     A.U. after    1 cycles

  Exact polarizability: 102.178   9.501  90.535  -0.515  -2.424  84.300
 Approx polarizability: 127.429  14.146 120.456  -1.175  -3.376 117.448

                      1                      2                      3
                      A                      A                      A
 Frequencies --     23.4504                33.2506                40.6829
 Red. masses --      3.4352                 2.6985                 2.5262
 Frc consts  --      0.0011                 0.0018                 0.0025
 IR Inten    --      0.3340                 1.9181                 0.5176

                      4                      5                      6
                      A                      A                      A
 Frequencies --     51.7901                64.5286                68.3222
 Red. masses --      3.5945                 3.9733                 4.2792
 Frc consts  --      0.0057                 0.0097                 0.0118
 IR Inten    --      0.3714                 2.0514                 5.6043

                      7                      8                      9
                      A                      A                      A
 Frequencies --     80.9839                99.7675               104.4117
 Red. masses --      3.2800                 2.5050                 2.8248
 Frc consts  --      0.0127                 0.0147                 0.0181
 IR Inten    --      1.9176                 5.1405                 2.1442

                     10                     11                     12
                      A                      A                      A
 Frequencies --    115.9187               130.2784               134.7699
 Red. masses --      2.4240                 1.4755                 3.7272
 Frc consts  --      0.0192                 0.0148                 0.0399
 IR Inten    --      1.2404                 0.4074                 1.1011

                     13                     14                     15
                      A                      A                      A
 Frequencies --    140.3655               162.4261               209.4616
 Red. masses --      1.4121                 1.7971                 4.9055
 Frc consts  --      0.0164                 0.0279                 0.1268
 IR Inten    --      1.8527                 4.4287                 1.4684

                     16                     17                     18
                      A                      A                      A
 Frequencies --    226.1563               269.4907               329.0258
 Red. masses --      1.1047                 1.2287                 2.3247
 Frc consts  --      0.0333                 0.0526                 0.1483
 IR Inten    --      0.7798                 1.0778                 0.2935

                     19                     20                     21
                      A                      A                      A
 Frequencies --    436.5821               457.7968               466.1298
 Red. masses --      2.9746                 2.8209                 2.2840
 Frc consts  --      0.3341                 0.3483                 0.2924
 IR Inten    --      5.4514                12.5095                 7.5022

                     22                     23                     24
                      A                      A                      A
 Frequencies --    533.7442               599.9235               674.3653
 Red. masses --      1.6415                 4.2505                 1.0902
 Frc consts  --      0.2755                 0.9013                 0.2921
 IR Inten    --     23.2491                38.7187                86.7433

                     25                     26                     27
                      A                      A                      A
 Frequencies --    687.7160               803.2695               816.5886
 Red. masses --      1.4193                 1.3428                 1.1731
 Frc consts  --      0.3955                 0.5105                 0.4609
 IR Inten    --    214.7619                 9.5869                 5.8665

                     28                     29                     30
                      A                      A                      A
 Frequencies --    848.1236               879.8454               924.9039
 Red. masses --      1.6803                 3.8162                 2.0994
 Frc consts  --      0.7121                 1.7406                 1.0581
 IR Inten    --      2.8737                 2.5333                 1.2826

                     31                     32                     33
                      A                      A                      A
 Frequencies --   1021.7220              1038.1915              1086.1581
 Red. masses --      2.8181                 1.5554                 1.9314
 Frc consts  --      1.7333                 0.9878                 1.3425
 IR Inten    --     19.9235                47.6867                43.6584

                     34                     35                     36
                      A                      A                      A
 Frequencies --   1090.9372              1094.6836              1121.8053
 Red. masses --      4.8155                 2.6847                 1.8613
 Frc consts  --      3.3767                 1.8955                 1.3801
 IR Inten    --    141.6975                31.6528                 1.9169

                     37                     38                     39
                      A                      A                      A
 Frequencies --   1139.0730              1141.7980              1187.7967
 Red. masses --      2.1052                 1.1983                 1.2729
 Frc consts  --      1.6093                 0.9205                 1.0581
 IR Inten    --     43.9180                41.1656                 0.6896

                     40                     41                     42
                      A                      A                      A
 Frequencies --   1202.3605              1236.9785              1244.5285
 Red. masses --      2.0635                 1.7993                 1.8198
 Frc consts  --      1.7576                 1.6221                 1.6607
 IR Inten    --     48.9029                 8.9367               196.6959

                     43                     44                     45
                      A                      A                      A
 Frequencies --   1335.7424              1368.2847              1378.1250
 Red. masses --      1.1297                 1.1263                 1.6197
 Frc consts  --      1.1875                 1.2423                 1.8124
 IR Inten    --     17.7144                 1.9514                32.5735

                     46                     47                     48
                      A                      A                      A
 Frequencies --   1407.5943              1427.6898              1439.1940
 Red. masses --      1.2090                 1.2395                 1.6112
 Frc consts  --      1.4113                 1.4885                 1.9662
 IR Inten    --      9.9894                 5.3256                77.5434

                     49                     50                     51
                      A                      A                      A
 Frequencies --   1441.9711              1451.3724              1480.2881
 Red. masses --      1.2925                 1.2950                 1.1816
 Frc consts  --      1.5834                 1.6073                 1.5255
 IR Inten    --     39.1342                13.9813                46.7996

                     52                     53                     54
                      A                      A                      A
 Frequencies --   1507.1699              1509.7335              1516.2965
 Red. masses --      1.1302                 1.0926                 1.0656
 Frc consts  --      1.5126                 1.4673                 1.4435
 IR Inten    --      2.9850                34.0963                12.1329

                     55                     56                     57
                      A                      A                      A
 Frequencies --   1517.1692              1519.3240              1523.3951
 Red. masses --      1.0512                 1.0500                 1.0499
 Frc consts  --      1.4256                 1.4280                 1.4356
 IR Inten    --      3.0645                 5.5590                 1.1020

                     58                     59                     60
                      A                      A                      A
 Frequencies --   1525.1331              1533.2469              1542.6757
 Red. masses --      1.0505                 1.0496                 1.0733
 Frc consts  --      1.4397                 1.4538                 1.5050
 IR Inten    --      0.6798                 1.8763                 4.1323

                     61                     62                     63
                      A                      A                      A
 Frequencies --   1545.9531              1550.9146              1808.1936
 Red. masses --      1.0495                 1.0855                 8.2594
 Frc consts  --      1.4778                 1.5384                15.9108
 IR Inten    --      1.5347                 2.7443               360.6688

                     64                     65                     66
                      A                      A                      A
 Frequencies --   2991.3180              3017.7345              3025.3112
 Red. masses --      1.0369                 1.0676                 1.0676
 Frc consts  --      5.4666                 5.7284                 5.7569
 IR Inten    --     84.2625                62.8712                26.6062

                     67                     68                     69
                      A                      A                      A
 Frequencies --   3032.4669              3053.2138              3054.1005
 Red. masses --      1.1050                 1.0361                 1.0376
 Frc consts  --      5.9872                 5.6909                 5.7023
 IR Inten    --     88.0481                27.3723                22.6622

                     70                     71                     72
                      A                      A                      A
 Frequencies --   3082.1253              3088.7557              3109.1477
 Red. masses --      1.0353                 1.0975                 1.1006
 Frc consts  --      5.7946                 6.1694                 6.2682
 IR Inten    --      7.0397                17.0213                31.4425

                     73                     74                     75
                      A                      A                      A
 Frequencies --   3115.4325              3120.3678              3131.9222
 Red. masses --      1.0966                 1.1008                 1.1020
 Frc consts  --      6.2711                 6.3151                 6.3685
 IR Inten    --     49.1113                42.6276                38.0834

                     76                     77                     78
                      A                      A                      A
 Frequencies --   3133.4537              3146.4894              3154.6895
 Red. masses --      1.0974                 1.1025                 1.1012
 Frc consts  --      6.3482                 6.4311                 6.4568
 IR Inten    --      5.9730                19.2038                 2.4787

                     79                     80                     81
                      A                      A                      A
 Frequencies --   3190.1755              3592.4608              3686.3606
 Red. masses --      1.1047                 1.0678                 1.0638
 Frc consts  --      6.6243                 8.1195                 8.5177
 IR Inten    --      0.8342               485.3047                37.5400

 - Thermochemistry -
 -------------------
 Temperature   298.150 Kelvin.  Pressure   1.00000 Atm.
 Atom     1 has atomic number  6 and mass  12.00000

 Molecular mass:   166.12051 amu.
 Principal axes and moments of inertia in atomic units:
                           1         2         3
     Eigenvalues --  1782.636742795.411993766.53518
           X            0.99992   0.01154  -0.00445
           Y           -0.01169   0.99932  -0.03509
           Z            0.00404   0.03514   0.99937
 This molecule is an asymmetric top.
 Rotational symmetry number  1.
 Warning -- assumption of classical behavior for rotation
           may cause significant error
 Rotational temperatures (Kelvin)      0.04859     0.03098     0.02300
 Rotational constants (GHZ):           1.01240     0.64561     0.47915
 Zero-point vibrational energy     670357.9 (Joules/Mol)
                                  160.21939 (Kcal/Mol)
 Warning -- explicit consideration of  23 degrees of freedom as
           vibrations may cause significant error
 Vibrational temperatures:     33.74    47.84    58.53    74.51    92.84
          (Kelvin)             98.30   116.52   143.54   150.23   166.78
                              187.44   193.90   201.95   233.69   301.37
                              325.39   387.74   473.39   628.14   658.67
                              670.66   767.94   863.16   970.26   989.47
                             1155.73  1174.89  1220.26  1265.90  1330.73
                             1470.03  1493.73  1562.74  1569.62  1575.01
                             1614.03  1638.87  1642.79  1708.97  1729.93
                             1779.74  1790.60  1921.84  1968.66  1982.81
                             2025.21  2054.13  2070.68  2074.67  2088.20
                             2129.80  2168.48  2172.17  2181.61  2182.87
                             2185.97  2191.83  2194.33  2206.00  2219.57
                             2224.28  2231.42  2601.59  4303.84  4341.85
                             4352.75  4363.04  4392.89  4394.17  4434.49
                             4444.03  4473.37  4482.41  4489.51  4506.14
                             4508.34  4527.10  4538.89  4589.95  5168.75
                             5303.85

 Zero-point correction=                           0.255326 (Hartree/Particle)
 Thermal correction to Energy=                    0.272782
 Thermal correction to Enthalpy=                  0.273726
 Thermal correction to Gibbs Free Energy=         0.206904
 Sum of electronic and zero-point Energies=           -578.257850
 Sum of electronic and thermal Energies=              -578.240394
 Sum of electronic and thermal Enthalpies=            -578.239450
 Sum of electronic and thermal Free Energies=         -578.306272

                     E (Thermal)             CV                S
                      KCal/Mol        Cal/Mol-Kelvin    Cal/Mol-Kelvin
 Total                  171.173             55.858            140.639
 Electronic               0.000              0.000              0.000
 Translational            0.889              2.981             41.231
 Rotational               0.889              2.981             31.307
 Vibrational            169.396             49.897             68.101
 Vibration     1          0.593              1.985              6.318
 Vibration     2          0.594              1.983              5.625
 Vibration     3          0.594              1.981              5.226
 Vibration     4          0.596              1.977              4.748
 Vibration     5          0.597              1.971              4.314
 Vibration     6          0.598              1.969              4.201
 Vibration     7          0.600              1.962              3.867
 Vibration     8          0.604              1.949              3.459
 Vibration     9          0.605              1.946              3.370
 Vibration    10          0.608              1.936              3.167
 Vibration    11          0.612              1.923              2.942
 Vibration    12          0.613              1.919              2.877
 Vibration    13          0.615              1.913              2.799
 Vibration    14          0.623              1.889              2.521
 Vibration    15          0.642              1.826              2.048
 Vibration    16          0.650              1.801              1.909
 Vibration    17          0.674              1.729              1.599
 Vibration    18          0.712              1.618              1.265
 Vibration    19          0.797              1.390              0.837
 Vibration    20          0.816              1.344              0.773
 Vibration    21          0.823              1.325              0.748
 Vibration    22          0.889              1.175              0.579
 Vibration    23          0.958              1.032              0.450

                           ! Non-Optimized Parameters !

 1\1\GINC-NODE315\Freq\RB3LYP\6-31G(d)\C7H18O4\VSC10255\08-Dec-2020\0\\
 #N Geom=AllCheck Guess=TCheck SCRF=Check GenChk RB3LYP/6-31G(d) Freq\\
 CID_88004586_JID_1632_neutraal\\0,1\C,2.205666777,-0.769246099,0.35154
 9748\C,1.5031278955,0.5286143074,0.7387229983\O,1.1682723045,1.3299568
 007,-0.3972708436\C,2.2365336005,2.0713782544,-0.9711932369\C,2.489217
 9892,3.3868974698,-0.24028334\C,-1.7830977293,1.0731493736,-1.27377134
 65\C,-0.8641732668,0.1177822457,-1.9760244195\O,-0.6125554465,-1.02555
 89485,-1.6289595002\O,-0.3121185004,0.6470046443,-3.0859925042\C,-1.16

 Normal termination of Gaussian 16 at Tue Dec  8 21:38:29 2020.

 ----------------------------------------------------------------------
 # B3LYP/6-311++G(d,p) empiricaldispersion=gd3bj scf=xqc pop=npa geom=c
 heck
 ----------------------------------------------------------------------

 --------------------------------------
 CID_88004586_JID_1632_Energie_neutraal
 --------------------------------------
 Structure from the checkpoint file:  "JID_1632.chk"
 Charge =  0 Multiplicity = 1

 SCF Done:  E(RB3LYP) =  -578.709762667     A.U. after   13 cycles
 Normal termination of Gaussian 16 at Tue Dec  8 21:41:54 2020.

 ----------------------------------------------------------------------
 # B3LYP/6-311++G(d,p) empiricaldispersion=gd3bj scf=xqc pop=npa geom=c
 heck
 ----------------------------------------------------------------------

 ------------------------------------
 CID_88004586_JID_1632_Energie_kation
 ------------------------------------
 Structure from the checkpoint file:  "JID_1632.chk"
 Charge =  1 Multiplicity = 2

 SCF Done:  E(UB3LYP) =  -578.380991138     A.U. after   27 cycles
 Normal termination of Gaussian 16 at Tue Dec  8 21:50:43 2020.
 Gaussian 16:  ES64L-G16RevA.03 25-Dec-2016

 -----------------------------------
 CID_88004586_JID_1632_Energie_anion
 -----------------------------------
 Structure from the checkpoint file:  "JID_1632.chk"
 Charge = -1 Multiplicity = 2

                         Standard orientation:
 ---------------------------------------------------------------------
 Center     Atomic      Atomic             Coordinates (Angstroms)
 Number     Number       Type             X           Y           Z
 ---------------------------------------------------------------------
      1          6           0       -0.137841    1.892548   -1.314385
      2          6           0       -0.584772    1.579133    0.110371
      3          8           0       -1.252464    0.318570    0.210011
      4          6           0       -2.604912    0.295662   -0.226604
      5          6           0       -3.571203    0.782083    0.849661
      6          6           0        0.548489   -1.963294    1.256173
      7          6           0        0.529448   -1.852876   -0.239740
      8          8           0        1.315096   -1.216720   -0.924618
      9          8           0       -0.474650   -2.555455   -0.801024
     10          6           0        3.520031    1.462257    0.242307
     11          8           0        2.536699    0.624759    0.818741
     12          1           0        0.431717    2.829252   -1.329521
     13          1           0       -0.985007    2.008562   -1.999864
     14          1           0        0.502797    1.088236   -1.686874
     15          1           0        0.294158    1.487046    0.752820
     16          1           0       -1.223050    2.382122    0.507447
     17          1           0       -2.727709    0.883425   -1.147948
     18          1           0       -2.810334   -0.750991   -0.475889
     19          1           0       -3.385527    1.829118    1.112115
     20          1           0       -4.607493    0.701784    0.500750
     21          1           0       -3.461967    0.179238    1.757083
     22          1           0        1.485444   -1.564634    1.645627
     23          1           0        0.403109   -3.001320    1.567205
     24          1           0       -0.282863   -1.361468    1.634741
     25          1           0       -0.424747   -2.376999   -1.758930
     26          1           0        4.383960    0.896313   -0.140503
     27          1           0        3.877758    2.137258    1.026036
     28          1           0        3.121422    2.076296   -0.580875
     29          1           0        2.215452    0.014447    0.125003
 ---------------------------------------------------------------------

 SCF Done:  E(UB3LYP) =  -578.694588526     A.U. after   31 cycles

 The electronic state is 2-A.
 Alpha  occ. eigenvalues --  -19.06804 -19.02085 -19.01384 -19.00872 -10.21423
 Alpha  occ. eigenvalues --  -10.11099 -10.10599 -10.10285 -10.07488 -10.05677
 Alpha  occ. eigenvalues --  -10.04940  -1.01282  -0.92425  -0.92328  -0.90927
 Alpha  occ. eigenvalues --   -0.66324  -0.65781  -0.62433  -0.58035  -0.53904
 Alpha  occ. eigenvalues --   -0.51070  -0.47394  -0.41586  -0.39728  -0.39124
 Alpha  occ. eigenvalues --   -0.38757  -0.37850  -0.36432  -0.34022  -0.32970
 Alpha  occ. eigenvalues --   -0.32726  -0.31736  -0.30745  -0.30555  -0.29991
 Alpha  occ. eigenvalues --   -0.29046  -0.27659  -0.26860  -0.26042  -0.24407
 Alpha  occ. eigenvalues --   -0.23725  -0.22703  -0.19975  -0.19040  -0.17035
 Alpha  occ. eigenvalues --   -0.15313   0.04638
 Alpha virt. eigenvalues --    0.06862   0.07092   0.07737   0.08896   0.09176
 Alpha virt. eigenvalues --    0.09708   0.10165   0.10273   0.11335   0.11709
 Alpha virt. eigenvalues --    0.11947   0.12840   0.13808   0.14052   0.14434

  Beta  occ. eigenvalues --  -19.06749 -19.02069 -19.01381 -19.00867 -10.21420
  Beta  occ. eigenvalues --  -10.11080 -10.10569 -10.10274 -10.07463 -10.05646
  Beta  occ. eigenvalues --  -10.04911  -1.01217  -0.92395  -0.92295  -0.90913
  Beta  occ. eigenvalues --   -0.66285  -0.65729  -0.62389  -0.57989  -0.53834
  Beta  occ. eigenvalues --   -0.50958  -0.47314  -0.41560  -0.39688  -0.39094
  Beta  occ. eigenvalues --   -0.38725  -0.37822  -0.36399  -0.34003  -0.32943
  Beta  occ. eigenvalues --   -0.32680  -0.31707  -0.30706  -0.30517  -0.29939
  Beta  occ. eigenvalues --   -0.29009  -0.27608  -0.26823  -0.26001  -0.24379
  Beta  occ. eigenvalues --   -0.23697  -0.22664  -0.19947  -0.19005  -0.17023
  Beta  occ. eigenvalues --   -0.15295
  Beta virt. eigenvalues --    0.06738   0.07470   0.07900   0.08639   0.09277
  Beta virt. eigenvalues --    0.09436   0.10272   0.10546   0.10635   0.11619
  Beta virt. eigenvalues --    0.12094   0.12205   0.12977   0.14012   0.14373

 Mulliken charges and spin densities:
               1          2
     1  C    0.726635  -1.147543
     2  C   -0.755959   0.355935
     3  O   -0.025209   0.012645
     4  C   -0.160253  -0.023811
     5  C    0.824873  -1.236688
     6  C    0.712239  -1.140215
     7  C   -0.229409   0.156193
     8  O   -0.245079  -0.013769
     9  O   -0.134868   0.032532
    10  C    0.083025  -0.405188
    11  O   -0.341174   0.014775
    12  H   -0.191462   0.316330
    13  H   -0.107213   0.226964
    14  H   -0.108891   0.300800
    15  H    0.223394   0.001095
    16  H   -0.293846   0.364791
    17  H   -0.196568   0.301682
    18  H   -0.071649   0.248095
    19  H   -0.050781   0.179903
    20  H   -0.425626   0.555173
    21  H   -0.102073   0.240882
    22  H   -0.092855   0.280700
    23  H   -0.178726   0.337379
    24  H    0.335812  -0.102724
    25  H   -0.549556   0.858464
    26  H   -0.067855   0.185981
    27  H   -0.120142   0.248365
    28  H    0.014450   0.120194
    29  H    0.528765  -0.268939
 Sum of Mulliken charges =  -1.00000   1.00000

 Dipole moment (field-independent basis, Debye):
    X=              3.4073    Y=              0.5367    Z=              2.6885  Tot=              4.3733
 Quadrupole moment (field-independent basis, Debye-Ang):
   XX=           -130.1271   YY=           -114.2569   ZZ=           -106.4821
   XY=             -1.1473   XZ=             -4.7021   YZ=             -3.7004

 Summary of Natural Population Analysis:

                                       Natural Population
                Natural  -----------------------------------------------
    Atom  No    Charge         Core      Valence    Rydberg      Total
 -----------------------------------------------------------------------
      C    1   -0.30290      0.99966     2.29756    0.00568     3.30290
      C    2   -0.01609      0.99958     2.00404    0.01247     3.01609
      O    3   -0.31415      0.99989     3.30055    0.01371     4.31415
      C    4   -0.00974      0.99959     1.99763    0.01252     3.00974
      C    5   -0.29824      0.99966     2.29348    0.00509     3.29824
      C    6   -0.34273      0.99959     2.33804    0.00509     3.34273
      C    7    0.42074      0.99974     1.55429    0.02522     2.57926
      O    8   -0.33030      0.99985     3.32319    0.00727     4.33030
      O    9   -0.33912      0.99987     3.33157    0.00768     4.33912
      C   10   -0.09611      0.99965     2.08775    0.00871     3.09611
      O   11   -0.38402      0.99989     3.37682    0.00731     4.38402
      H   12    0.09724      0.00000     0.40146    0.00129     0.40276
      H   13    0.09640      0.00000     0.40218    0.00142     0.40360
      H   14    0.10675      0.00000     0.39168    0.00156     0.39325
      H   15    0.10032      0.00000     0.39785    0.00183     0.39968
      H   16    0.07489      0.00000     0.42372    0.00139     0.42511
      H   17    0.07959      0.00000     0.41833    0.00208     0.42041
      H   18    0.09169      0.00000     0.40634    0.00196     0.40831
      H   19    0.09558      0.00000     0.40320    0.00122     0.40442
      H   20    0.10052      0.00000     0.39815    0.00133     0.39948
      H   21    0.09779      0.00000     0.40108    0.00113     0.40221
      H   22    0.11451      0.00000     0.38407    0.00142     0.38549
      H   23    0.10963      0.00000     0.38936    0.00100     0.39037
      H   24    0.12941      0.00000     0.36916    0.00143     0.37059
      H   25    0.24661      0.00000     0.23951    0.01388     0.25339
      H   26    0.07240      0.00000     0.42605    0.00155     0.42760
      H   27    0.08074      0.00000     0.41786    0.00140     0.41926
      H   28    0.07561      0.00000     0.42295    0.00143     0.42439
      H   29    0.24298      0.00000     0.25232    0.00469     0.25702
 =======================================================================
   * Total *    0.00000     10.99698    34.85024    0.15278    46.00000

 Normal termination of Gaussian 16 at Tue Dec  8 21:57:22 2020.
