 Gaussian 16, Revision A.03,

 -----------------------------------------------------------
 # opt freq B3LYP/6-31G(d) empiricaldispersion=gd3bj scf=xqc
 -----------------------------------------------------------

 -------------------------------
 CID_116347816_JID_9678_neutraal
 -------------------------------
 Symbolic Z-matrix:
 Charge =  0 Multiplicity = 1

 SCF Done:  E(RB3LYP) =  -892.905280691     A.U. after   15 cycles
 SCF Done:  E(RB3LYP) =  -892.910082052     A.U. after   12 cycles
 SCF Done:  E(RB3LYP) =  -892.909989381     A.U. after   12 cycles
 SCF Done:  E(RB3LYP) =  -892.911116908     A.U. after   12 cycles
 SCF Done:  E(RB3LYP) =  -892.911447911     A.U. after   12 cycles
 SCF Done:  E(RB3LYP) =  -892.911506416     A.U. after   11 cycles
 SCF Done:  E(RB3LYP) =  -892.911545670     A.U. after   10 cycles
 SCF Done:  E(RB3LYP) =  -892.911577626     A.U. after   11 cycles
 SCF Done:  E(RB3LYP) =  -892.911602300     A.U. after   12 cycles
 SCF Done:  E(RB3LYP) =  -892.911638072     A.U. after   11 cycles
 SCF Done:  E(RB3LYP) =  -892.912748233     A.U. after   10 cycles
 SCF Done:  E(RB3LYP) =  -892.912748386     A.U. after    8 cycles
 SCF Done:  E(RB3LYP) =  -892.912748446     A.U. after    9 cycles
 SCF Done:  E(RB3LYP) =  -892.912748469     A.U. after    8 cycles
 Optimization completed.
    -- Stationary point found.
 Normal termination of Gaussian 16 at Mon Dec 14 17:59:33 2020.

 --------------------------------------------------------------------
 #N Geom=AllCheck Guess=TCheck SCRF=Check GenChk RB3LYP/6-31G(d) Freq
 --------------------------------------------------------------------

 Structure from the checkpoint file:  "JID_9678.chk"
 -------------------------------
 CID_116347816_JID_9678_neutraal
 -------------------------------
 Charge =  0 Multiplicity = 1

 SCF Done:  E(RB3LYP) =  -892.912748469     A.U. after    1 cycles

  Exact polarizability: 198.286   4.587 149.861  -0.302   0.525 124.807
 Approx polarizability: 253.536   7.036 239.626   8.690 -13.348 196.847

                      1                      2                      3
                      A                      A                      A
 Frequencies --     10.3449                19.0308                41.0249
 Red. masses --      4.0724                 4.5854                 6.0248
 Frc consts  --      0.0003                 0.0010                 0.0060
 IR Inten    --      3.1919                 0.8257                 0.1366

                      4                      5                      6
                      A                      A                      A
 Frequencies --     53.7167                66.7670                81.9495
 Red. masses --      4.6446                 6.1440                 4.6837
 Frc consts  --      0.0079                 0.0161                 0.0185
 IR Inten    --      0.9380                 2.6169                 0.8318

                      7                      8                      9
                      A                      A                      A
 Frequencies --    105.0755               117.6859               164.9376
 Red. masses --      3.8274                 3.4632                 4.8699
 Frc consts  --      0.0249                 0.0283                 0.0781
 IR Inten    --      1.0783                 1.5985                 0.0984

                     10                     11                     12
                      A                      A                      A
 Frequencies --    205.8681               221.2813               241.3972
 Red. masses --      4.9024                 3.6328                 4.0749
 Frc consts  --      0.1224                 0.1048                 0.1399
 IR Inten    --      4.7426                 0.1943                 4.4111

                     13                     14                     15
                      A                      A                      A
 Frequencies --    247.9139               290.0003               307.0679
 Red. masses --      1.8058                 4.2696                 1.9586
 Frc consts  --      0.0654                 0.2116                 0.1088
 IR Inten    --      0.1938                 1.6529                19.2215

                     16                     17                     18
                      A                      A                      A
 Frequencies --    324.0943               366.3909               377.5658
 Red. masses --      2.6895                 1.7583                 3.5154
 Frc consts  --      0.1664                 0.1391                 0.2953
 IR Inten    --     12.5981                77.6959                 8.4374

                     19                     20                     21
                      A                      A                      A
 Frequencies --    381.5680               412.9321               440.8632
 Red. masses --      2.0701                 3.4894                 2.8957
 Frc consts  --      0.1776                 0.3506                 0.3316
 IR Inten    --      0.5943                27.4474                15.1315

                     22                     23                     24
                      A                      A                      A
 Frequencies --    467.7850               489.2201               526.8526
 Red. masses --      3.1921                 3.5709                 3.5709
 Frc consts  --      0.4115                 0.5035                 0.5840
 IR Inten    --      2.1256                 7.9928                13.8585

                     25                     26                     27
                      A                      A                      A
 Frequencies --    544.0810               579.4501               605.8427
 Red. masses --      1.6954                 1.3384                 4.5752
 Frc consts  --      0.2957                 0.2648                 0.9894
 IR Inten    --     24.0728                67.7218                20.0151

                     28                     29                     30
                      A                      A                      A
 Frequencies --    638.4585               685.0562               718.7331
 Red. masses --      4.6662                 4.8932                 9.8657
 Frc consts  --      1.1207                 1.3530                 3.0027
 IR Inten    --     25.5279                 3.1851                10.7625

                     31                     32                     33
                      A                      A                      A
 Frequencies --    763.7742               770.1406               796.9485
 Red. masses --      2.1140                 2.3789                 1.3755
 Frc consts  --      0.7266                 0.8313                 0.5147
 IR Inten    --     34.4799                46.9027                 5.5713

                     34                     35                     36
                      A                      A                      A
 Frequencies --    801.3617               808.6737               816.9809
 Red. masses --      1.6242                 2.5978                 2.2720
 Frc consts  --      0.6145                 1.0009                 0.8935
 IR Inten    --      6.2538                 3.6821                53.4616

                     37                     38                     39
                      A                      A                      A
 Frequencies --    836.2556               863.2799               914.5970
 Red. masses --      1.4518                 2.4054                 3.0572
 Frc consts  --      0.5982                 1.0562                 1.5067
 IR Inten    --      0.8728                 5.6368                 4.8761

                     40                     41                     42
                      A                      A                      A
 Frequencies --    914.6312               929.2310               936.6618
 Red. masses --      2.4229                 1.9674                 1.9341
 Frc consts  --      1.1942                 1.0009                 0.9997
 IR Inten    --      2.1316                 0.6992                 2.7773

                     43                     44                     45
                      A                      A                      A
 Frequencies --    963.9808              1008.9545              1023.0457
 Red. masses --      1.2937                 1.4238                 2.1888
 Frc consts  --      0.7083                 0.8540                 1.3498
 IR Inten    --      5.7417                 1.3075                28.9660

                     46                     47                     48
                      A                      A                      A
 Frequencies --   1029.9116              1044.2597              1053.9493
 Red. masses --      3.7769                 2.4204                 2.9361
 Frc consts  --      2.3604                 1.5551                 1.9216
 IR Inten    --      8.9775                 9.9447                55.7741

                     49                     50                     51
                      A                      A                      A
 Frequencies --   1059.4042              1069.3764              1076.6755
 Red. masses --      1.7972                 1.6700                 2.8871
 Frc consts  --      1.1884                 1.1252                 1.9719
 IR Inten    --     26.8763                 7.1181                 8.2170

                     52                     53                     54
                      A                      A                      A
 Frequencies --   1086.7667              1101.5395              1123.3767
 Red. masses --      4.0266                 1.3522                 2.5814
 Frc consts  --      2.8020                 0.9667                 1.9194
 IR Inten    --     86.7814                 3.5364                 0.7284

                     55                     56                     57
                      A                      A                      A
 Frequencies --   1140.3442              1152.9748              1174.5996
 Red. masses --      2.7289                 1.8682                 1.6360
 Frc consts  --      2.0908                 1.4632                 1.3299
 IR Inten    --      9.6742                16.4919                17.5228

                     58                     59                     60
                      A                      A                      A
 Frequencies --   1182.7112              1202.1276              1217.8818
 Red. masses --      1.7294                 1.2615                 2.5314
 Frc consts  --      1.4253                 1.0741                 2.2122
 IR Inten    --      6.5294                 9.0149                10.5300

                     61                     62                     63
                      A                      A                      A
 Frequencies --   1220.1271              1246.6409              1271.9237
 Red. masses --      1.3131                 1.2273                 6.0285
 Frc consts  --      1.1518                 1.1238                 5.7463
 IR Inten    --     52.8099                 0.0702                60.2198

                     64                     65                     66
                      A                      A                      A
 Frequencies --   1300.4361              1314.8160              1316.5502
 Red. masses --      2.4628                 2.2005                 2.2950
 Frc consts  --      2.4539                 2.2413                 2.3437
 IR Inten    --     50.4476                13.2342                59.0912

                     67                     68                     69
                      A                      A                      A
 Frequencies --   1323.2088              1344.4138              1345.7765
 Red. masses --      1.3186                 1.3080                 2.0995
 Frc consts  --      1.3602                 1.3929                 2.2403
 IR Inten    --      8.2590                 3.1179                35.4884

                     70                     71                     72
                      A                      A                      A
 Frequencies --   1367.1374              1369.9744              1389.7300
 Red. masses --      1.3113                 1.4538                 1.4276
 Frc consts  --      1.4440                 1.6076                 1.6245
 IR Inten    --     32.6506                13.1688                 1.7539

                     73                     74                     75
                      A                      A                      A
 Frequencies --   1403.3981              1412.3874              1432.4138
 Red. masses --      1.4780                 2.5507                 2.0739
 Frc consts  --      1.7151                 2.9979                 2.5071
 IR Inten    --     14.0684                30.2877                88.6095

                     76                     77                     78
                      A                      A                      A
 Frequencies --   1439.8095              1448.8960              1478.1013
 Red. masses --      1.3077                 1.4984                 1.6253
 Frc consts  --      1.5973                 1.8534                 2.0922
 IR Inten    --     45.6391                21.4094                56.6936

                     79                     80                     81
                      A                      A                      A
 Frequencies --   1489.3082              1492.2579              1499.3990
 Red. masses --      2.4267                 1.5365                 1.2368
 Frc consts  --      3.1713                 2.0158                 1.6382
 IR Inten    --     24.1579                20.7292                 4.8274

                     82                     83                     84
                      A                      A                      A
 Frequencies --   1508.0455              1520.7177              1524.6767
 Red. masses --      1.1172                 1.1543                 1.1301
 Frc consts  --      1.4970                 1.5728                 1.5478
 IR Inten    --      0.8143                 1.0182                 4.6511

                     85                     86                     87
                      A                      A                      A
 Frequencies --   1528.0391              1531.7998              1538.8294
 Red. masses --      1.1217                 1.2657                 1.1111
 Frc consts  --      1.5431                 1.7498                 1.5502
 IR Inten    --      0.4814                 2.8630                 4.0491

                     88                     89                     90
                      A                      A                      A
 Frequencies --   1575.9080              1786.1023              2907.0579
 Red. masses --      6.1790                 9.0593                 1.0747
 Frc consts  --      9.0412                17.0278                 5.3512
 IR Inten    --     50.0466               366.2121                29.5705

                     91                     92                     93
                      A                      A                      A
 Frequencies --   2914.0046              2998.3752              3056.0308
 Red. masses --      1.0728                 1.0713                 1.0845
 Frc consts  --      5.3674                 5.6747                 5.9677
 IR Inten    --    144.8997                53.5259                14.6254

                     94                     95                     96
                      A                      A                      A
 Frequencies --   3067.1279              3073.2033              3093.1142
 Red. masses --      1.0636                 1.0635                 1.0873
 Frc consts  --      5.8953                 5.9180                 6.1290
 IR Inten    --     21.5807                15.0268                51.5102

                     97                     98                     99
                      A                      A                      A
 Frequencies --   3095.6980              3106.9045              3126.1336
 Red. masses --      1.0876                 1.0924                 1.1024
 Frc consts  --      6.1409                 6.2127                 6.3474
 IR Inten    --     29.3171                45.7534                 7.5643

                    100                    101                    102
                      A                      A                      A
 Frequencies --   3131.7453              3145.1530              3161.8778
 Red. masses --      1.1022                 1.0554                 1.0587
 Frc consts  --      6.3693                 6.1513                 6.2361
 IR Inten    --     17.9195                13.8343                 7.7390

                    103                    104                    105
                      A                      A                      A
 Frequencies --   3233.8548              3253.4776              3308.4364
 Red. masses --      1.1170                 1.1149                 1.0985
 Frc consts  --      6.8826                 6.9528                 7.0841
 IR Inten    --      4.1445                 5.3667                 0.0578

                    106                    107                    108
                      A                      A                      A
 Frequencies --   3512.1181              3590.8325              3726.3731
 Red. masses --      1.0747                 1.0752                 1.0658
 Frc consts  --      7.8108                 8.1686                 8.7198
 IR Inten    --      0.7993                29.2400                 9.8007

 - Thermochemistry -
 -------------------
 Temperature   298.150 Kelvin.  Pressure   1.00000 Atm.
 Atom     1 has atomic number  6 and mass  12.00000

 Molecular mass:   265.15388 amu.
 Principal axes and moments of inertia in atomic units:
                           1         2         3
     Eigenvalues --  2540.502509925.93619**********
           X            0.99996  -0.00414  -0.00790
           Y            0.00436   0.99963   0.02681
           Z            0.00778  -0.02685   0.99961
 This molecule is an asymmetric top.
 Rotational symmetry number  1.
 Warning -- assumption of classical behavior for rotation
           may cause significant error
 Rotational temperatures (Kelvin)      0.03409     0.00873     0.00792
 Rotational constants (GHZ):           0.71039     0.18182     0.16501
 Zero-point vibrational energy     846475.9 (Joules/Mol)
                                  202.31259 (Kcal/Mol)
 Warning -- explicit consideration of  27 degrees of freedom as
           vibrations may cause significant error
 Vibrational temperatures:     14.88    27.38    59.03    77.29    96.06
          (Kelvin)            117.91   151.18   169.32   237.31   296.20
                              318.37   347.32   356.69   417.25   441.80
                              466.30   527.15   543.23   548.99   594.12
                              634.30   673.04   703.88   758.02   782.81
                              833.70   871.67   918.60   985.64  1034.10
                             1098.90  1108.06  1146.63  1152.98  1163.50
                             1175.45  1203.19  1242.07  1315.90  1315.95
                             1336.96  1347.65  1386.95  1451.66  1471.93
                             1481.81  1502.46  1516.40  1524.25  1538.59
                             1549.10  1563.61  1584.87  1616.29  1640.70
                             1658.87  1689.99  1701.66  1729.59  1752.26
                             1755.49  1793.64  1830.01  1871.04  1891.73
                             1894.22  1903.80  1934.31  1936.27  1967.01
                             1971.09  1999.51  2019.18  2032.11  2060.92
                             2071.56  2084.64  2126.66  2142.78  2147.03
                             2157.30  2169.74  2187.97  2193.67  2198.51
                             2203.92  2214.03  2267.38  2569.80  4182.61
                             4192.60  4313.99  4396.95  4412.91  4421.65
                             4450.30  4454.02  4470.14  4497.81  4505.88
                             4525.17  4549.24  4652.80  4681.03  4760.10
                             5053.15  5166.41  5361.42

 Zero-point correction=                           0.322406 (Hartree/Particle)
 Thermal correction to Energy=                    0.340301
 Thermal correction to Enthalpy=                  0.341245
 Thermal correction to Gibbs Free Energy=         0.273203
 Sum of electronic and zero-point Energies=           -892.590343
 Sum of electronic and thermal Energies=              -892.572447
 Sum of electronic and thermal Enthalpies=            -892.571503
 Sum of electronic and thermal Free Energies=         -892.639546

                     E (Thermal)             CV                S
                      KCal/Mol        Cal/Mol-Kelvin    Cal/Mol-Kelvin
 Total                  213.542             67.977            143.207
 Electronic               0.000              0.000              0.000
 Translational            0.889              2.981             42.625
 Rotational               0.889              2.981             33.977
 Vibrational            211.765             62.015             66.605
 Vibration     1          0.593              1.987              7.944
 Vibration     2          0.593              1.986              6.733
 Vibration     3          0.594              1.981              5.209
 Vibration     4          0.596              1.976              4.676
 Vibration     5          0.598              1.970              4.246
 Vibration     6          0.600              1.962              3.844
 Vibration     7          0.605              1.945              3.358
 Vibration     8          0.608              1.935              3.138
 Vibration     9          0.623              1.886              2.492
 Vibration    10          0.640              1.832              2.080
 Vibration    11          0.648              1.809              1.949
 Vibration    12          0.658              1.777              1.793
 Vibration    13          0.662              1.766              1.745
 Vibration    14          0.686              1.692              1.474
 Vibration    15          0.697              1.660              1.378
 Vibration    16          0.709              1.627              1.289
 Vibration    17          0.739              1.541              1.095
 Vibration    18          0.748              1.518              1.049
 Vibration    19          0.751              1.509              1.033
 Vibration    20          0.777              1.442              0.916
 Vibration    21          0.801              1.381              0.824
 Vibration    22          0.825              1.322              0.744
 Vibration    23          0.845              1.274              0.686
 Vibration    24          0.882              1.191              0.594
 Vibration    25          0.899              1.153              0.557
 Vibration    26          0.936              1.076              0.486
 Vibration    27          0.964              1.019              0.440

 Optimization completed.
    -- Stationary point found.
 Normal termination of Gaussian 16 at Mon Dec 14 18:17:11 2020.

 ----------------------------------------------------------------------
 # B3LYP/6-311++G(d,p) empiricaldispersion=gd3bj scf=xqc pop=npa geom=c
 heck
 ----------------------------------------------------------------------

 ---------------------------------------
 CID_116347816_JID_9678_Energie_neutraal
 ---------------------------------------
 Structure from the checkpoint file:  "JID_9678.chk"
 Charge =  0 Multiplicity = 1

 SCF Done:  E(RB3LYP) =  -893.174514974     A.U. after   16 cycles
 Normal termination of Gaussian 16 at Mon Dec 14 18:26:08 2020.

 ----------------------------------------------------------------------
 # B3LYP/6-311++G(d,p) empiricaldispersion=gd3bj scf=xqc pop=npa geom=c
 heck
 ----------------------------------------------------------------------

 -------------------------------------
 CID_116347816_JID_9678_Energie_kation
 -------------------------------------
 Structure from the checkpoint file:  "JID_9678.chk"
 Charge =  1 Multiplicity = 2

 SCF Done:  E(UB3LYP) =  -892.866630197     A.U. after   33 cycles
 SCF Done:  E(UB3LYP) =  -892.866630208     a.u. after    2 cycles
 Normal termination of Gaussian 16 at Mon Dec 14 19:14:52 2020.
 Gaussian 16:  ES64L-G16RevA.03 25-Dec-2016

 ----------------------------------------------------------------------
 # B3LYP/6-311++G(d,p) empiricaldispersion=gd3bj scf=xqc pop=npa geom=c
 heck
 ----------------------------------------------------------------------

 ------------------------------------
 CID_116347816_JID_9678_Energie_anion
 ------------------------------------
 Structure from the checkpoint file:  "JID_9678.chk"
 Charge = -1 Multiplicity = 2

                         Standard orientation:
 ---------------------------------------------------------------------
 Center     Atomic      Atomic             Coordinates (Angstroms)
 Number     Number       Type             X           Y           Z
 ---------------------------------------------------------------------
      1          6           0       -3.453325    0.734514    0.907360
      2          6           0       -4.749327   -0.046386    1.142036
      3          7           0       -5.197718   -0.636633   -0.117147
      4          6           0       -4.235017   -1.602446   -0.640128
      5          6           0       -2.916613   -0.889174   -0.953070
      6          6           0       -2.389839   -0.194817    0.309442
      7          7           0       -1.149578    0.532103    0.030253
      8          6           0        0.092075    0.317473    0.523173
      9          6           0        0.874355    1.291198   -0.066797
     10          7           0        0.072767    2.041956   -0.883131
     11          7           0       -1.143956    1.576049   -0.833021
     12          6           0        2.308399    1.644761    0.136780
     13          8           0        2.657330    2.800700    0.325327
     14          7           0        3.225812    0.618288    0.116019
     15          6           0        3.059767   -0.769599   -0.210675
     16          6           0        2.278772   -1.132716   -1.446217
     17          6           0        3.776642   -1.266093   -1.458007
     18          6           0        3.057274   -1.706306    0.982535
     19          8           0        4.278584   -1.642218    1.705906
     20          1           0       -3.087569    1.165087    1.846215
     21          1           0       -3.638233    1.553525    0.206352
     22          1           0       -4.573989   -0.806647    1.930855
     23          1           0       -5.527232    0.630098    1.510559
     24          1           0       -6.102952   -1.082086    0.010391
     25          1           0       -4.642167   -2.046620   -1.554351
     26          1           0       -4.034881   -2.432960    0.068086
     27          1           0       -3.081343   -0.133147   -1.726441
     28          1           0       -2.172138   -1.602561   -1.325294
     29          1           0       -2.121470   -0.956720    1.051558
     30          1           0        0.303589   -0.464745    1.233882
     31          1           0        4.153814    0.916150    0.392324
     32          1           0        1.674766   -2.035161   -1.410372
     33          1           0        1.836015   -0.321582   -2.012310
     34          1           0        4.341830   -0.534449   -2.026340
     35          1           0        4.208919   -2.263917   -1.437657
     36          1           0        2.284967   -1.412733    1.699915
     37          1           0        2.836505   -2.732771    0.647731
     38          1           0        4.983984   -1.911404    1.095633
 ---------------------------------------------------------------------

 SCF Done:  E(UB3LYP) =  -893.173935903     A.U. after   33 cycles
 SCF Done:  E(UB3LYP) =  -893.173935903     a.u. after    1 cycles

 The electronic state is 2-A.
 Alpha  occ. eigenvalues --  -19.04581 -19.00648 -14.32442 -14.28823 -14.25851
 Alpha  occ. eigenvalues --  -14.25574 -14.21862 -10.19936 -10.14800 -10.14719
 Alpha  occ. eigenvalues --  -10.14236 -10.14097 -10.12420 -10.11532 -10.11310
 Alpha  occ. eigenvalues --  -10.10426 -10.10217 -10.09314 -10.09131  -1.02052
 Alpha  occ. eigenvalues --   -0.95939  -0.94813  -0.85863  -0.84840  -0.83049
 Alpha  occ. eigenvalues --   -0.77081  -0.73679  -0.71329  -0.67971  -0.62890
 Alpha  occ. eigenvalues --   -0.59852  -0.59034  -0.55259  -0.54487  -0.53341
 Alpha  occ. eigenvalues --   -0.51881  -0.50326  -0.47028  -0.46327  -0.45293
 Alpha  occ. eigenvalues --   -0.43183  -0.41919  -0.40910  -0.39627  -0.39570
 Alpha  occ. eigenvalues --   -0.38548  -0.37780  -0.36158  -0.35914  -0.35723
 Alpha  occ. eigenvalues --   -0.35049  -0.33392  -0.33120  -0.31843  -0.31075
 Alpha  occ. eigenvalues --   -0.29849  -0.28053  -0.27640  -0.27476  -0.26304
 Alpha  occ. eigenvalues --   -0.25782  -0.25080  -0.24332  -0.23368  -0.21213
 Alpha  occ. eigenvalues --   -0.20705  -0.19315  -0.19034  -0.17390  -0.17118
 Alpha  occ. eigenvalues --   -0.15211   0.03046
 Alpha virt. eigenvalues --    0.04528   0.05837   0.05966   0.06797   0.06918
 Alpha virt. eigenvalues --    0.07597   0.07935   0.08301   0.08850   0.09225
 Alpha virt. eigenvalues --    0.10221   0.10372   0.10895   0.10914   0.11273

  Beta  occ. eigenvalues --  -19.04555 -19.00646 -14.32437 -14.28818 -14.25845
  Beta  occ. eigenvalues --  -14.25574 -14.21841 -10.19934 -10.14801 -10.14703
  Beta  occ. eigenvalues --  -10.14223 -10.14068 -10.12420 -10.11510 -10.11284
  Beta  occ. eigenvalues --  -10.10413 -10.10183 -10.09311 -10.09123  -1.02043
  Beta  occ. eigenvalues --   -0.95933  -0.94758  -0.85850  -0.84822  -0.83023
  Beta  occ. eigenvalues --   -0.77061  -0.73664  -0.71305  -0.67937  -0.62829
  Beta  occ. eigenvalues --   -0.59820  -0.59017  -0.55219  -0.54456  -0.53281
  Beta  occ. eigenvalues --   -0.51844  -0.50283  -0.46993  -0.46292  -0.45258
  Beta  occ. eigenvalues --   -0.43118  -0.41868  -0.40882  -0.39591  -0.39524
  Beta  occ. eigenvalues --   -0.38521  -0.37736  -0.36128  -0.35879  -0.35687
  Beta  occ. eigenvalues --   -0.35011  -0.33374  -0.33105  -0.31825  -0.31045
  Beta  occ. eigenvalues --   -0.29814  -0.28013  -0.27607  -0.27440  -0.26285
  Beta  occ. eigenvalues --   -0.25756  -0.25059  -0.24302  -0.23348  -0.21192
  Beta  occ. eigenvalues --   -0.20676  -0.19310  -0.19020  -0.17378  -0.17101
  Beta  occ. eigenvalues --   -0.15150
  Beta virt. eigenvalues --    0.05382   0.05607   0.06092   0.06765   0.06890
  Beta virt. eigenvalues --    0.07240   0.07956   0.08285   0.08524   0.09229
  Beta virt. eigenvalues --    0.09630   0.10436   0.10533   0.11009   0.11353

 Mulliken charges and spin densities:
               1          2
     1  C   -0.426764   0.447294
     2  C    0.620773  -1.110208
     3  N   -0.381262   0.250184
     4  C    0.672822  -1.229075
     5  C   -0.528642   0.531968
     6  C   -0.261196  -0.694898
     7  N    0.717346   0.051953
     8  C   -0.199062   0.048566
     9  C    0.125312  -0.321963
    10  N    0.194111  -0.014838
    11  N   -0.310492   0.028129
    12  C   -0.156349   0.174219
    13  O   -0.307731  -0.003053
    14  N   -0.087108   0.029250
    15  C   -2.038610   1.822268
    16  C    0.349205  -0.602700
    17  C    0.770155  -1.089214
    18  C    1.245204  -1.698599
    19  O   -0.234317   0.029294
    20  H    0.072604   0.090032
    21  H    0.194333  -0.000795
    22  H   -0.337607   0.459131
    23  H    0.016694   0.165501
    24  H   -0.012018   0.275235
    25  H   -0.044090   0.228306
    26  H   -0.418452   0.553064
    27  H    0.203962  -0.012647
    28  H   -0.089965   0.242513
    29  H    0.201549  -0.061948
    30  H   -0.480369   0.669855
    31  H    0.281017   0.048710
    32  H   -0.072533   0.251856
    33  H    0.294502  -0.084044
    34  H    0.097996   0.065043
    35  H   -0.437863   0.621640
    36  H    0.324836  -0.136901
    37  H   -0.565747   0.737308
    38  H    0.007756   0.239564
 Sum of Mulliken charges =  -1.00000   1.00000

 Dipole moment (field-independent basis, Debye):
    X=             -0.2601    Y=              2.3343    Z=             -1.2169  Tot=              2.6452
 Quadrupole moment (field-independent basis, Debye-Ang):
   XX=           -207.0898   YY=           -184.2394   ZZ=           -146.9991
   XY=             -2.2910   XZ=             -3.4541   YZ=              6.4972

 Summary of Natural Population Analysis:

                                       Natural Population
                Natural  -----------------------------------------------
    Atom  No    Charge         Core      Valence    Rydberg      Total
 -----------------------------------------------------------------------
      C    1   -0.19678      0.99960     2.18823    0.00894     3.19678
      C    2   -0.08756      0.99962     2.07654    0.01140     3.08756
      N    3   -0.34075      0.99974     2.82941    0.01160     3.84075
      C    4   -0.08757      0.99962     2.07637    0.01157     3.08757
      C    5   -0.19674      0.99960     2.18783    0.00931     3.19674
      C    6   -0.00628      0.99956     1.99249    0.01423     3.00628
      N    7   -0.09962      0.99964     2.58563    0.01435     3.59962
      C    8   -0.00596      0.99950     1.99585    0.01060     3.00596
      C    9   -0.00950      0.99951     1.99383    0.01617     3.00950
      N   10   -0.12002      0.99973     2.60767    0.01262     3.62002
      N   11   -0.04094      0.99978     2.52767    0.01350     3.54094
      C   12    0.33134      0.99962     1.64744    0.02159     2.66866
      O   13   -0.30566      0.99988     3.30034    0.00544     4.30566
      N   14   -0.31439      0.99964     2.80481    0.00994     3.81439
      C   15    0.03055      0.99953     1.95525    0.01466     2.96945
      C   16   -0.19129      0.99958     2.18194    0.00977     3.19129
      C   17   -0.19592      0.99959     2.18648    0.00986     3.19592
      C   18   -0.00791      0.99952     1.99495    0.01344     3.00791
      O   19   -0.36668      0.99990     3.36029    0.00649     4.36668
      H   20    0.10311      0.00000     0.39605    0.00084     0.39689
      H   21    0.10885      0.00000     0.38964    0.00151     0.39115
      H   22    0.08038      0.00000     0.41769    0.00194     0.41962
      H   23    0.09737      0.00000     0.40177    0.00086     0.40263
      H   24    0.17801      0.00000     0.31929    0.00269     0.32199
      H   25    0.09799      0.00000     0.40108    0.00093     0.40201
      H   26    0.08149      0.00000     0.41592    0.00258     0.41851
      H   27    0.10752      0.00000     0.39088    0.00160     0.39248
      H   28    0.10477      0.00000     0.39409    0.00114     0.39523
      H   29    0.10404      0.00000     0.39296    0.00301     0.39596
      H   30    0.11373      0.00000     0.38466    0.00161     0.38627
      H   31    0.19771      0.00000     0.30008    0.00221     0.30229
      H   32    0.10994      0.00000     0.38873    0.00133     0.39006
      H   33    0.11215      0.00000     0.38676    0.00109     0.38785
      H   34    0.10618      0.00000     0.39288    0.00093     0.39382
      H   35    0.10769      0.00000     0.39038    0.00193     0.39231
      H   36    0.08731      0.00000     0.41118    0.00151     0.41269
      H   37    0.08475      0.00000     0.41252    0.00274     0.41525
      H   38    0.22869      0.00000     0.26756    0.00376     0.27131
 =======================================================================
   * Total *    0.00000     18.99318    51.74715    0.25966    71.00000

 Normal termination of Gaussian 16 at Mon Dec 14 19:39:12 2020.
