 Gaussian 16, Revision A.03,

 ----------------------------------------------------------------------
 # opt=(cartesian,calcfc) freq B3LYP/6-31G(d) empiricaldispersion=gd3bj
  scf=xqc
 ----------------------------------------------------------------------

 -------------------------------
 CID_131873537_JID_7235_neutraal
 -------------------------------
 Symbolic Z-matrix:
 Charge =  0 Multiplicity = 1

 SCF Done:  E(RB3LYP) =  -764.789188312     A.U. after   14 cycles
 SCF Done:  E(RB3LYP) =  -764.792257333     A.U. after   11 cycles
 SCF Done:  E(RB3LYP) =  -764.795172062     A.U. after   12 cycles
 SCF Done:  E(RB3LYP) =  -764.795879000     A.U. after   11 cycles
 SCF Done:  E(RB3LYP) =  -764.795495742     A.U. after   12 cycles
 SCF Done:  E(RB3LYP) =  -764.796364676     A.U. after   11 cycles
 SCF Done:  E(RB3LYP) =  -764.796264842     A.U. after   11 cycles
 SCF Done:  E(RB3LYP) =  -764.796188314     A.U. after   11 cycles
 SCF Done:  E(RB3LYP) =  -764.796388429     A.U. after   10 cycles
 SCF Done:  E(RB3LYP) =  -764.796523035     A.U. after   11 cycles
 SCF Done:  E(RB3LYP) =  -764.797034101     A.U. after    8 cycles
 SCF Done:  E(RB3LYP) =  -764.797034472     A.U. after    7 cycles
 SCF Done:  E(RB3LYP) =  -764.797034296     A.U. after    8 cycles
 SCF Done:  E(RB3LYP) =  -764.797034481     A.U. after    6 cycles
 SCF Done:  E(RB3LYP) =  -764.797034125     A.U. after    8 cycles
 SCF Done:  E(RB3LYP) =  -764.797034483     A.U. after    5 cycles
 Optimization completed.
    -- Stationary point found.
 Normal termination of Gaussian 16 at Wed Feb 24 14:58:38 2021.

 --------------------------------------------------------------------
 #N Geom=AllCheck Guess=TCheck SCRF=Check GenChk RB3LYP/6-31G(d) Freq
 --------------------------------------------------------------------

 Structure from the checkpoint file:  "JID_7235.chk"
 -------------------------------
 CID_131873537_JID_7235_neutraal
 -------------------------------
 Charge =  0 Multiplicity = 1

 SCF Done:  E(RB3LYP) =  -764.797034483     A.U. after    1 cycles

  Exact polarizability: 155.581  -9.419 155.968 -12.154  -0.756 128.308
 Approx polarizability: 197.575 -16.232 224.151 -21.629 -10.137 215.231

                      1                      2                      3
                      A                      A                      A
 Frequencies --     21.1977                46.9624                58.1730
 Red. masses --      5.3579                 3.4556                 3.9938
 Frc consts  --      0.0014                 0.0045                 0.0080
 IR Inten    --      2.4935                 0.9751                 1.4058

                      4                      5                      6
                      A                      A                      A
 Frequencies --     75.4989                87.4855               129.4945
 Red. masses --      5.5467                 4.4179                 3.5020
 Frc consts  --      0.0186                 0.0199                 0.0346
 IR Inten    --      6.1262                 1.3354                 1.2986

                      7                      8                      9
                      A                      A                      A
 Frequencies --    136.9292               172.1076               206.9066
 Red. masses --      3.3936                 2.7306                 3.5996
 Frc consts  --      0.0375                 0.0477                 0.0908
 IR Inten    --      0.5868                 0.6876                 1.1239

                     10                     11                     12
                      A                      A                      A
 Frequencies --    243.6236               256.1956               266.0829
 Red. masses --      1.1839                 2.2384                 1.9720
 Frc consts  --      0.0414                 0.0866                 0.0823
 IR Inten    --      0.9083                 5.8339                15.9991

                     13                     14                     15
                      A                      A                      A
 Frequencies --    295.3563               307.9020               333.1149
 Red. masses --      1.6934                 1.6194                 3.5139
 Frc consts  --      0.0870                 0.0905                 0.2297
 IR Inten    --      9.4085                13.1353                 8.8327

                     16                     17                     18
                      A                      A                      A
 Frequencies --    366.7046               398.5538               405.6530
 Red. masses --      2.4946                 2.6080                 2.1451
 Frc consts  --      0.1976                 0.2441                 0.2080
 IR Inten    --      0.4625                 2.9375                 0.6407

                     19                     20                     21
                      A                      A                      A
 Frequencies --    433.1591               445.9599               467.9731
 Red. masses --      2.0694                 1.9846                 2.8367
 Frc consts  --      0.2288                 0.2325                 0.3660
 IR Inten    --      1.2442                 2.3364                 3.6462

                     22                     23                     24
                      A                      A                      A
 Frequencies --    498.8526               513.2915               551.0573
 Red. masses --      2.8469                 2.4314                 2.0812
 Frc consts  --      0.4174                 0.3774                 0.3724
 IR Inten    --      1.3490                 0.5051                 5.2569

                     25                     26                     27
                      A                      A                      A
 Frequencies --    625.3702               633.5772               651.4897
 Red. masses --      1.6074                 2.4565                 4.1869
 Frc consts  --      0.3704                 0.5810                 1.0470
 IR Inten    --    218.0594                12.4627                 0.5596

                     28                     29                     30
                      A                      A                      A
 Frequencies --    688.0583               735.3282               768.6960
 Red. masses --      3.8350                 4.2429                 3.2982
 Frc consts  --      1.0697                 1.3517                 1.1483
 IR Inten    --      0.3359                37.5472                21.0143

                     31                     32                     33
                      A                      A                      A
 Frequencies --    772.3890               799.4365               802.1445
 Red. masses --      3.2175                 1.5089                 2.5169
 Frc consts  --      1.1309                 0.5682                 0.9542
 IR Inten    --     13.2022                 1.0225                 9.7435

                     34                     35                     36
                      A                      A                      A
 Frequencies --    825.4891               855.5141               879.2219
 Red. masses --      2.5931                 2.3888                 2.3762
 Frc consts  --      1.0411                 1.0301                 1.0822
 IR Inten    --      2.3020                 6.7679                 1.2791

                     37                     38                     39
                      A                      A                      A
 Frequencies --    885.3722               899.9084               951.3444
 Red. masses --      1.8477                 1.9650                 1.4112
 Frc consts  --      0.8534                 0.9376                 0.7525
 IR Inten    --      1.4915                 5.8984                 1.1349

                     40                     41                     42
                      A                      A                      A
 Frequencies --    966.1775               986.1287               992.2852
 Red. masses --      4.1955                 7.9138                 2.7732
 Frc consts  --      2.3075                 4.5342                 1.6088
 IR Inten    --     11.4504                13.9701                14.4431

                     43                     44                     45
                      A                      A                      A
 Frequencies --   1019.6678              1038.6410              1044.7776
 Red. masses --      1.9579                 3.4346                 2.6568
 Frc consts  --      1.1994                 2.1830                 1.7087
 IR Inten    --     21.5936                25.7185                 6.1409

                     46                     47                     48
                      A                      A                      A
 Frequencies --   1047.8771              1055.0129              1075.4745
 Red. masses --      1.7397                 1.7346                 2.0238
 Frc consts  --      1.1255                 1.1375                 1.3792
 IR Inten    --      5.0578                 7.3034                12.0031

                     49                     50                     51
                      A                      A                      A
 Frequencies --   1096.4911              1099.1592              1136.6562
 Red. masses --      1.8331                 2.5800                 1.7482
 Frc consts  --      1.2985                 1.8365                 1.3307
 IR Inten    --      0.1232                 8.2030                20.4445

                     52                     53                     54
                      A                      A                      A
 Frequencies --   1144.1863              1149.7827              1157.3015
 Red. masses --      1.0477                 2.1601                 1.5483
 Frc consts  --      0.8081                 1.6825                 1.2218
 IR Inten    --      4.5594                 0.0298                 5.7261

                     55                     56                     57
                      A                      A                      A
 Frequencies --   1171.5269              1184.7634              1210.7449
 Red. masses --      1.5752                 1.7198                 1.4228
 Frc consts  --      1.2738                 1.4223                 1.2289
 IR Inten    --      3.0100                18.5488                 2.6076

                     58                     59                     60
                      A                      A                      A
 Frequencies --   1271.7312              1273.6769              1282.2791
 Red. masses --      2.5472                 1.5188                 1.7620
 Frc consts  --      2.4272                 1.4516                 1.7069
 IR Inten    --      8.1051                18.0163                47.8745

                     61                     62                     63
                      A                      A                      A
 Frequencies --   1304.1115              1305.7690              1313.0752
 Red. masses --      1.3004                 1.3118                 1.2758
 Frc consts  --      1.3031                 1.3178                 1.2960
 IR Inten    --      1.4736                 0.6995                 3.0982

                     64                     65                     66
                      A                      A                      A
 Frequencies --   1363.0422              1366.3195              1371.5698
 Red. masses --      1.4933                 1.4887                 1.4406
 Frc consts  --      1.6347                 1.6374                 1.5967
 IR Inten    --      3.7363                 7.6857                 2.2234

                     67                     68                     69
                      A                      A                      A
 Frequencies --   1378.1097              1389.1384              1402.3343
 Red. masses --      1.4395                 1.4448                 1.4161
 Frc consts  --      1.6108                 1.6426                 1.6408
 IR Inten    --     18.0453                 2.2293                 0.2611

                     70                     71                     72
                      A                      A                      A
 Frequencies --   1405.7302              1411.4744              1415.8824
 Red. masses --      1.4491                 1.4353                 1.3552
 Frc consts  --      1.6872                 1.6847                 1.6007
 IR Inten    --      5.2226                 0.7988                12.3474

                     73                     74                     75
                      A                      A                      A
 Frequencies --   1422.8879              1429.1099              1464.9170
 Red. masses --      1.3831                 1.3007                 3.9990
 Frc consts  --      1.6498                 1.5651                 5.0563
 IR Inten    --     14.8463                 5.6857                45.9406

                     76                     77                     78
                      A                      A                      A
 Frequencies --   1488.7687              1504.1110              1505.7852
 Red. masses --      1.1563                 1.1017                 1.0833
 Frc consts  --      1.5100                 1.4685                 1.4472
 IR Inten    --      2.3172                 3.8511                 7.8763

                     79                     80                     81
                      A                      A                      A
 Frequencies --   1509.2723              1514.2364              1515.0380
 Red. masses --      1.0935                 1.0909                 1.0900
 Frc consts  --      1.4676                 1.4737                 1.4741
 IR Inten    --      7.8595                 2.8910                 2.5880

                     82                     83                     84
                      A                      A                      A
 Frequencies --   1518.7134              1527.9492              1537.0134
 Red. masses --      1.0757                 1.1002                 1.0750
 Frc consts  --      1.4618                 1.5134                 1.4962
 IR Inten    --     11.7496                 3.9921                12.3957

                     85                     86                     87
                      A                      A                      A
 Frequencies --   1544.4785              1555.2140              1622.7269
 Red. masses --      1.0776                 1.0665                 2.3597
 Frc consts  --      1.5145                 1.5197                 3.6610
 IR Inten    --      4.7068                 0.4791                53.6622

                     88                     89                     90
                      A                      A                      A
 Frequencies --   1650.8630              1707.1314              2938.5944
 Red. masses --      2.8516                 3.1721                 1.0633
 Frc consts  --      4.5790                 5.4466                 5.4098
 IR Inten    --     35.5060               313.0345                82.4626

                     91                     92                     93
                      A                      A                      A
 Frequencies --   2981.6872              3017.8551              3018.6105
 Red. masses --      1.0812                 1.0745                 1.0659
 Frc consts  --      5.6635                 5.7657                 5.7226
 IR Inten    --     61.3075                36.4027                28.1218

                     94                     95                     96
                      A                      A                      A
 Frequencies --   3035.5231              3042.3551              3043.8293
 Red. masses --      1.0711                 1.0639                 1.0603
 Frc consts  --      5.8149                 5.8020                 5.7877
 IR Inten    --     20.4698                15.9064                40.6731

                     97                     98                     99
                      A                      A                      A
 Frequencies --   3046.9378              3052.4858              3061.1917
 Red. masses --      1.0696                 1.0641                 1.0759
 Frc consts  --      5.8505                 5.8415                 5.9405
 IR Inten    --     17.1257                52.9890                42.7160

                    100                    101                    102
                      A                      A                      A
 Frequencies --   3067.6944              3079.3106              3082.7075
 Red. masses --      1.0910                 1.0750                 1.0998
 Frc consts  --      6.0495                 6.0055                 6.1576
 IR Inten    --     48.9223                32.8214                34.8685

                    103                    104                    105
                      A                      A                      A
 Frequencies --   3086.2949              3088.6322              3093.0429
 Red. masses --      1.1001                 1.0962                 1.0991
 Frc consts  --      6.1736                 6.1612                 6.1951
 IR Inten    --     19.0272                28.3742                95.2767

                    106                    107                    108
                      A                      A                      A
 Frequencies --   3110.3646              3127.5901              3132.5166
 Red. masses --      1.0940                 1.0990                 1.0906
 Frc consts  --      6.2355                 6.3337                 6.3053
 IR Inten    --     48.3249                45.2186                 6.4196

                    109                    110                    111
                      A                      A                      A
 Frequencies --   3143.4395              3562.1012              3667.0627
 Red. masses --      1.0873                 1.0474                 1.0993
 Frc consts  --      6.3298                 7.8302                 8.7100
 IR Inten    --     39.1627                45.9733                36.6400

 - Thermochemistry -
 -------------------
 Temperature   298.150 Kelvin.  Pressure   1.00000 Atm.
 Atom     1 has atomic number  6 and mass  12.00000

 Molecular mass:   238.17936 amu.
 Principal axes and moments of inertia in atomic units:
                           1         2         3
     Eigenvalues --  2474.961495693.961696923.46859
           X            0.99992   0.00851  -0.00927
           Y           -0.00842   0.99991   0.01024
           Z            0.00935  -0.01016   0.99990
 This molecule is an asymmetric top.
 Rotational symmetry number  1.
 Warning -- assumption of classical behavior for rotation
           may cause significant error
 Rotational temperatures (Kelvin)      0.03500     0.01521     0.01251
 Rotational constants (GHZ):           0.72920     0.31696     0.26067
 Zero-point vibrational energy     914069.7 (Joules/Mol)
                                  218.46790 (Kcal/Mol)
 Warning -- explicit consideration of  24 degrees of freedom as
           vibrations may cause significant error
 Vibrational temperatures:     30.50    67.57    83.70   108.63   125.87
          (Kelvin)            186.31   197.01   247.62   297.69   350.52
                              368.61   382.83   424.95   443.00   479.28
                              527.61   573.43   583.64   623.22   641.64
                              673.31   717.74   738.51   792.85   899.77
                              911.58   937.35   989.96  1057.97  1105.98
                             1111.30  1150.21  1154.11  1187.69  1230.89
                             1265.00  1273.85  1294.77  1368.77  1390.11
                             1418.82  1427.68  1467.07  1494.37  1503.20
                             1507.66  1517.93  1547.37  1577.61  1581.44
                             1635.39  1646.23  1654.28  1665.10  1685.57
                             1704.61  1741.99  1829.74  1832.54  1844.91
                             1876.33  1878.71  1889.22  1961.11  1965.83
                             1973.38  1982.79  1998.66  2017.65  2022.53
                             2030.80  2037.14  2047.22  2056.17  2107.69
                             2142.01  2164.08  2166.49  2171.51  2178.65
                             2179.80  2185.09  2198.38  2211.42  2222.16
                             2237.61  2334.74  2375.22  2456.18  4227.98
                             4289.98  4342.02  4343.11  4367.44  4377.27
                             4379.39  4383.86  4391.85  4404.37  4413.73
                             4430.44  4435.33  4440.49  4443.85  4450.20
                             4475.12  4499.90  4506.99  4522.71  5125.07
                             5276.09

 Zero-point correction=                           0.348151 (Hartree/Particle)
 Thermal correction to Energy=                    0.364643
 Thermal correction to Enthalpy=                  0.365587
 Thermal correction to Gibbs Free Energy=         0.303388
 Sum of electronic and zero-point Energies=           -764.448884
 Sum of electronic and thermal Energies=              -764.432392
 Sum of electronic and thermal Enthalpies=            -764.431448
 Sum of electronic and thermal Free Energies=         -764.493646

                     E (Thermal)             CV                S
                      KCal/Mol        Cal/Mol-Kelvin    Cal/Mol-Kelvin
 Total                  228.817             64.510            130.908
 Electronic               0.000              0.000              0.000
 Translational            0.889              2.981             42.305
 Rotational               0.889              2.981             32.945
 Vibrational            227.039             58.548             55.659
 Vibration     1          0.593              1.985              6.519
 Vibration     2          0.595              1.979              4.941
 Vibration     3          0.596              1.974              4.518
 Vibration     4          0.599              1.965              4.005
 Vibration     5          0.601              1.958              3.716
 Vibration     6          0.612              1.924              2.954
 Vibration     7          0.614              1.916              2.846
 Vibration     8          0.626              1.877              2.412
 Vibration     9          0.641              1.830              2.071
 Vibration    10          0.659              1.773              1.776
 Vibration    11          0.666              1.752              1.688
 Vibration    12          0.672              1.735              1.622
 Vibration    13          0.690              1.682              1.443
 Vibration    14          0.698              1.659              1.374
 Vibration    15          0.715              1.609              1.245
 Vibration    16          0.740              1.541              1.094
 Vibration    17          0.765              1.473              0.968
 Vibration    18          0.771              1.458              0.942
 Vibration    19          0.794              1.398              0.848
 Vibration    20          0.805              1.370              0.808
 Vibration    21          0.825              1.321              0.743
 Vibration    22          0.854              1.253              0.661
 Vibration    23          0.868              1.221              0.626
 Vibration    24          0.906              1.137              0.542

 Optimization completed.
    -- Stationary point found.
 Normal termination of Gaussian 16 at Wed Feb 24 15:19:32 2021.

 ----------------------------------------------------------------------
 # B3LYP/6-311++G(d,p) empiricaldispersion=gd3bj scf=xqc pop=npa geom=c
 heck
 ----------------------------------------------------------------------

 ---------------------------------------
 CID_131873537_JID_7235_Energie_neutraal
 ---------------------------------------
 Structure from the checkpoint file:  "JID_7235.chk"
 Charge =  0 Multiplicity = 1

 SCF Done:  E(RB3LYP) =  -765.011365655     A.U. after   14 cycles
 Normal termination of Gaussian 16 at Wed Feb 24 15:28:44 2021.

 ----------------------------------------------------------------------
 # B3LYP/6-311++G(d,p) empiricaldispersion=gd3bj scf=xqc pop=npa geom=c
 heck
 ----------------------------------------------------------------------

 -------------------------------------
 CID_131873537_JID_7235_Energie_kation
 -------------------------------------
 Structure from the checkpoint file:  "JID_7235.chk"
 Charge =  1 Multiplicity = 2

 SCF Done:  E(UB3LYP) =  -764.737756584     A.U. after   29 cycles
 Normal termination of Gaussian 16 at Wed Feb 24 15:56:36 2021.
 Gaussian 16:  ES64L-G16RevA.03 25-Dec-2016

 ----------------------------------------------------------------------
 # B3LYP/6-311++G(d,p) empiricaldispersion=gd3bj scf=xqc pop=npa geom=c
 heck
 ----------------------------------------------------------------------

 ------------------------------------
 CID_131873537_JID_7235_Energie_anion
 ------------------------------------
 Structure from the checkpoint file:  "JID_7235.chk"
 Charge = -1 Multiplicity = 2

                         Standard orientation:
 ---------------------------------------------------------------------
 Center     Atomic      Atomic             Coordinates (Angstroms)
 Number     Number       Type             X           Y           Z
 ---------------------------------------------------------------------
      1          6           0       -2.179517    2.303927   -0.065542
      2          7           0       -1.489116    1.088405   -0.460111
      3          6           0       -0.302888    1.368556   -1.264348
      4          6           0        0.743360    2.369069   -0.725255
      5          6           0        1.421011    2.016942    0.611963
      6          6           0        2.048125    0.669996    0.642518
      7          7           0        1.961649   -0.257312    1.534555
      8          7           0        2.747016   -1.340422    1.092261
      9          6           0        3.229898   -0.966942   -0.053804
     10          8           0        2.850084    0.287331   -0.421671
     11          7           0        3.987828   -1.685604   -0.940818
     12          6           0       -1.384213    0.055668    0.591270
     13          6           0       -2.763442   -0.220908    1.225935
     14          6           0       -3.763735   -0.790734    0.212135
     15          6           0       -3.227149   -2.083053   -0.418956
     16          6           0       -1.826130   -1.878108   -1.011593
     17          6           0       -0.866628   -1.282093    0.025932
     18          1           0       -2.162321    3.010118   -0.902940
     19          1           0       -1.737578    2.814302    0.811974
     20          1           0       -3.228888    2.101926    0.163879
     21          1           0        0.193587    0.425784   -1.499911
     22          1           0       -0.649736    1.774380   -2.225879
     23          1           0        1.516534    2.475548   -1.497017
     24          1           0        0.286796    3.359107   -0.611832
     25          1           0        2.186321    2.775832    0.827021
     26          1           0        0.707395    2.047647    1.438785
     27          1           0        4.652344   -1.140660   -1.476273
     28          1           0        4.392484   -2.514362   -0.522963
     29          1           0       -0.706056    0.368575    1.402523
     30          1           0       -2.604081   -0.951511    2.029854
     31          1           0       -3.164343    0.674626    1.711880
     32          1           0       -3.942079   -0.050399   -0.577545
     33          1           0       -4.727648   -0.979033    0.701704
     34          1           0       -3.918739   -2.447838   -1.189018
     35          1           0       -3.177303   -2.864017    0.354412
     36          1           0       -1.892828   -1.200622   -1.871819
     37          1           0       -1.429048   -2.831648   -1.381862
     38          1           0        0.140029   -1.186670   -0.388926
     39          1           0       -0.759297   -1.969111    0.874588
 ---------------------------------------------------------------------

 SCF Done:  E(UB3LYP) =  -765.004572978     A.U. after   30 cycles

 The electronic state is 2-A.
 Alpha  occ. eigenvalues --  -19.10451 -14.23621 -14.23234 -14.22020 -14.20756
 Alpha  occ. eigenvalues --  -10.19508 -10.16162 -10.10272 -10.09751 -10.09516
 Alpha  occ. eigenvalues --  -10.09488 -10.07827 -10.07802 -10.07674 -10.07556
 Alpha  occ. eigenvalues --  -10.07082 -10.06651  -1.05511  -0.87249  -0.83909
 Alpha  occ. eigenvalues --   -0.82947  -0.73664  -0.72964  -0.68226  -0.65372
 Alpha  occ. eigenvalues --   -0.64917  -0.61600  -0.57397  -0.55060  -0.52706
 Alpha  occ. eigenvalues --   -0.51675  -0.49938  -0.48090  -0.44512  -0.43698
 Alpha  occ. eigenvalues --   -0.41219  -0.40886  -0.39471  -0.39233  -0.37691
 Alpha  occ. eigenvalues --   -0.37295  -0.35725  -0.35227  -0.34464  -0.32935
 Alpha  occ. eigenvalues --   -0.32527  -0.31915  -0.29871  -0.29477  -0.28805
 Alpha  occ. eigenvalues --   -0.28060  -0.27583  -0.27414  -0.25561  -0.25274
 Alpha  occ. eigenvalues --   -0.24665  -0.24375  -0.23573  -0.23282  -0.21757
 Alpha  occ. eigenvalues --   -0.21363  -0.20763  -0.18070  -0.13553  -0.11502
 Alpha  occ. eigenvalues --    0.03878
 Alpha virt. eigenvalues --    0.05585   0.06326   0.07427   0.07563   0.08538
 Alpha virt. eigenvalues --    0.08735   0.09215   0.09969   0.10147   0.10384
 Alpha virt. eigenvalues --    0.10481   0.11588   0.11921   0.12110   0.12544

  Beta  occ. eigenvalues --  -19.10423 -14.23521 -14.23227 -14.22015 -14.20756
  Beta  occ. eigenvalues --  -10.19493 -10.16145 -10.10271 -10.09741 -10.09491
  Beta  occ. eigenvalues --  -10.09475 -10.07824 -10.07779 -10.07669 -10.07552
  Beta  occ. eigenvalues --  -10.07079 -10.06648  -1.05475  -0.87227  -0.83791
  Beta  occ. eigenvalues --   -0.82938  -0.73640  -0.72919  -0.68190  -0.65362
  Beta  occ. eigenvalues --   -0.64904  -0.61567  -0.57360  -0.55003  -0.52661
  Beta  occ. eigenvalues --   -0.51657  -0.49900  -0.48048  -0.44485  -0.43611
  Beta  occ. eigenvalues --   -0.41150  -0.40812  -0.39446  -0.39196  -0.37652
  Beta  occ. eigenvalues --   -0.37269  -0.35699  -0.35209  -0.34421  -0.32920
  Beta  occ. eigenvalues --   -0.32503  -0.31889  -0.29855  -0.29467  -0.28791
  Beta  occ. eigenvalues --   -0.28044  -0.27543  -0.27396  -0.25541  -0.25255
  Beta  occ. eigenvalues --   -0.24646  -0.24322  -0.23523  -0.23270  -0.21740
  Beta  occ. eigenvalues --   -0.21353  -0.20754  -0.18055  -0.13480  -0.11493
  Beta virt. eigenvalues --    0.05735   0.06630   0.07200   0.07569   0.08070
  Beta virt. eigenvalues --    0.08650   0.08961   0.09488   0.10241   0.10503
  Beta virt. eigenvalues --    0.10515   0.11037   0.11764   0.12150   0.12206

 Mulliken charges and spin densities:
               1          2
     1  C    0.328549  -0.734800
     2  N    0.036846   0.092333
     3  C   -0.219241   0.144561
     4  C    0.271462  -0.913484
     5  C    0.604253  -0.743037
     6  C   -0.002436  -0.503777
     7  N   -0.066306   0.155033
     8  N   -0.007759  -0.156834
     9  C    0.501961  -0.423458
    10  O    0.074122   0.012612
    11  N   -0.550625   0.301685
    12  C    0.249922   0.084888
    13  C   -0.213717  -0.406620
    14  C   -0.157993  -0.117586
    15  C   -0.373054  -0.185913
    16  C   -0.261814  -0.046932
    17  C   -0.571073   0.067655
    18  H   -0.135096   0.281502
    19  H   -0.100118   0.247003
    20  H    0.028601   0.092025
    21  H    0.120295   0.002240
    22  H   -0.095318   0.284231
    23  H   -0.233702   0.423448
    24  H   -0.075115   0.236992
    25  H   -0.315590   0.538735
    26  H    0.120993   0.049680
    27  H   -0.635127   0.917826
    28  H   -0.377829   0.663053
    29  H    0.208895  -0.010102
    30  H    0.113347   0.023220
    31  H    0.113396   0.049402
    32  H    0.099134   0.014408
    33  H    0.086337   0.070138
    34  H    0.075196   0.086791
    35  H    0.122061  -0.008471
    36  H    0.087288   0.055654
    37  H    0.118614   0.048491
    38  H   -0.148549   0.314146
    39  H    0.179189  -0.006740
 Sum of Mulliken charges =  -1.00000   1.00000

 Dipole moment (field-independent basis, Debye):
    X=             -9.5939    Y=              0.0402    Z=              2.0659  Tot=              9.8139
 Quadrupole moment (field-independent basis, Debye-Ang):
   XX=           -194.8490   YY=           -153.5219   ZZ=           -141.8062
   XY=             15.7164   XZ=              9.3032   YZ=              1.3371

 Summary of Natural Population Analysis:

                                       Natural Population
                Natural  -----------------------------------------------
    Atom  No    Charge         Core      Valence    Rydberg      Total
 -----------------------------------------------------------------------
      C    1   -0.17914      0.99964     2.17027    0.00923     3.17914
      N    2   -0.29445      0.99971     2.78124    0.01351     3.79445
      C    3   -0.08322      0.99960     2.07154    0.01208     3.08322
      C    4   -0.19669      0.99962     2.18818    0.00889     3.19669
      C    5   -0.22166      0.99957     2.21299    0.00910     3.22166
      C    6    0.25309      0.99958     1.72689    0.02044     2.74691
      N    7   -0.16408      0.99965     2.65238    0.01205     3.66408
      N    8   -0.20256      0.99966     2.69022    0.01268     3.70256
      C    9    0.33859      0.99961     1.64142    0.02039     2.66141
      O   10   -0.25084      0.99985     3.24251    0.00847     4.25084
      N   11   -0.39666      0.99971     2.88700    0.00996     3.89666
      C   12   -0.00205      0.99957     1.99041    0.01207     3.00205
      C   13   -0.19295      0.99961     2.18548    0.00786     3.19295
      C   14   -0.19308      0.99963     2.18573    0.00772     3.19308
      C   15   -0.18769      0.99963     2.18051    0.00755     3.18769
      C   16   -0.19200      0.99963     2.18506    0.00731     3.19200
      C   17   -0.19456      0.99961     2.18607    0.00888     3.19456
      H   18    0.09702      0.00000     0.40211    0.00088     0.40298
      H   19    0.08128      0.00000     0.41746    0.00126     0.41872
      H   20    0.09307      0.00000     0.40590    0.00102     0.40693
      H   21    0.09886      0.00000     0.39949    0.00165     0.40114
      H   22    0.09388      0.00000     0.40508    0.00104     0.40612
      H   23    0.10419      0.00000     0.39413    0.00168     0.39581
      H   24    0.09957      0.00000     0.39909    0.00134     0.40043
      H   25    0.11276      0.00000     0.38586    0.00137     0.38724
      H   26    0.11220      0.00000     0.38613    0.00167     0.38780
      H   27    0.20243      0.00000     0.27475    0.02281     0.29757
      H   28    0.19953      0.00000     0.29516    0.00531     0.30047
      H   29    0.09220      0.00000     0.40560    0.00220     0.40780
      H   30    0.09730      0.00000     0.40161    0.00109     0.40270
      H   31    0.09940      0.00000     0.39966    0.00095     0.40060
      H   32    0.09903      0.00000     0.39951    0.00146     0.40097
      H   33    0.09376      0.00000     0.40518    0.00106     0.40624
      H   34    0.09479      0.00000     0.40417    0.00105     0.40521
      H   35    0.08920      0.00000     0.40948    0.00131     0.41080
      H   36    0.09871      0.00000     0.39980    0.00149     0.40129
      H   37    0.09695      0.00000     0.40212    0.00093     0.40305
      H   38    0.10275      0.00000     0.39526    0.00198     0.39725
      H   39    0.10106      0.00000     0.39789    0.00105     0.39894
 =======================================================================
   * Total *    0.00000     16.99388    47.76333    0.24279    65.00000

 Normal termination of Gaussian 16 at Wed Feb 24 16:24:24 2021.
