 Gaussian 16, Revision A.03,

 -----------------------------------------------------------
 # opt freq B3LYP/6-31G(d) empiricaldispersion=gd3bj scf=xqc
 -----------------------------------------------------------

 -------------------------------
 CID_146571784_JID_9268_neutraal
 -------------------------------
 Symbolic Z-matrix:
 Charge =  0 Multiplicity = 1

 SCF Done:  E(RB3LYP) =  -1200.07293572     A.U. after   15 cycles
 SCF Done:  E(RB3LYP) =  -1200.07955042     A.U. after   12 cycles
 SCF Done:  E(RB3LYP) =  -1200.08070101     A.U. after   13 cycles
 SCF Done:  E(RB3LYP) =  -1200.08149709     A.U. after   12 cycles
 SCF Done:  E(RB3LYP) =  -1200.08201256     A.U. after   12 cycles
 SCF Done:  E(RB3LYP) =  -1200.08244995     A.U. after   12 cycles
 SCF Done:  E(RB3LYP) =  -1200.08272060     A.U. after   11 cycles
 SCF Done:  E(RB3LYP) =  -1200.08286556     A.U. after   11 cycles
 SCF Done:  E(RB3LYP) =  -1200.08296011     A.U. after   10 cycles
 SCF Done:  E(RB3LYP) =  -1200.08307055     A.U. after   10 cycles
 SCF Done:  E(RB3LYP) =  -1200.08318760     A.U. after    8 cycles
 SCF Done:  E(RB3LYP) =  -1200.08318764     A.U. after    8 cycles
 SCF Done:  E(RB3LYP) =  -1200.08318768     A.U. after    8 cycles
 SCF Done:  E(RB3LYP) =  -1200.08318771     A.U. after    7 cycles
 SCF Done:  E(RB3LYP) =  -1200.08318773     A.U. after    7 cycles
 Optimization completed.
    -- Stationary point found.
 Normal termination of Gaussian 16 at Sun Dec 13 16:20:51 2020.

 --------------------------------------------------------------------
 #N Geom=AllCheck Guess=TCheck SCRF=Check GenChk RB3LYP/6-31G(d) Freq
 --------------------------------------------------------------------

 Structure from the checkpoint file:  "JID_9268.chk"
 -------------------------------
 CID_146571784_JID_9268_neutraal
 -------------------------------
 Charge =  0 Multiplicity = 1

 SCF Done:  E(RB3LYP) =  -1200.08318773     A.U. after    1 cycles

  Exact polarizability: 222.799  17.091 193.020  15.050   1.668 118.177
 Approx polarizability: 304.743  36.376 318.264  38.873  -1.442 217.859

                      1                      2                      3
                      A                      A                      A
 Frequencies --     15.8141                27.2140                39.6233
 Red. masses --      7.2075                 6.1093                 5.7193
 Frc consts  --      0.0011                 0.0027                 0.0053
 IR Inten    --      0.4050                 0.2049                 0.0479

                      4                      5                      6
                      A                      A                      A
 Frequencies --     62.8040                87.2133                96.9291
 Red. masses --      3.3427                 3.9870                 1.9967
 Frc consts  --      0.0078                 0.0179                 0.0111
 IR Inten    --      1.5415                 0.2127                 1.9969

                      7                      8                      9
                      A                      A                      A
 Frequencies --    119.7616               136.8820               169.2762
 Red. masses --      1.9562                 1.4101                 4.1427
 Frc consts  --      0.0165                 0.0156                 0.0699
 IR Inten    --      1.5630                 0.2695                 0.5361

                     10                     11                     12
                      A                      A                      A
 Frequencies --    187.2738               238.6061               250.6248
 Red. masses --      5.4129                 3.4477                 3.5037
 Frc consts  --      0.1118                 0.1157                 0.1297
 IR Inten    --      0.1688                 0.4113                 0.4229

                     13                     14                     15
                      A                      A                      A
 Frequencies --    253.3614               279.9488               283.8319
 Red. masses --      1.5634                 2.2186                 5.6390
 Frc consts  --      0.0591                 0.1024                 0.2677
 IR Inten    --      0.8153                 1.3199                 1.2710

                     16                     17                     18
                      A                      A                      A
 Frequencies --    316.3790               329.3775               366.5289
 Red. masses --      4.8677                 5.0458                 3.8974
 Frc consts  --      0.2871                 0.3225                 0.3085
 IR Inten    --      0.3662                 0.3921                 2.3459

                     19                     20                     21
                      A                      A                      A
 Frequencies --    420.0405               491.0854               521.8013
 Red. masses --      5.4317                 6.0202                 5.9234
 Frc consts  --      0.5646                 0.8554                 0.9502
 IR Inten    --      5.0504                 0.2902                 3.2072

                     22                     23                     24
                      A                      A                      A
 Frequencies --    526.8481               567.1213               578.9892
 Red. masses --      5.9620                 5.0528                 4.6775
 Frc consts  --      0.9750                 0.9575                 0.9239
 IR Inten    --      1.2217                 2.7803                 0.6888

                     25                     26                     27
                      A                      A                      A
 Frequencies --    600.2359               606.5894               614.2872
 Red. masses --      5.8073                 5.0702                 6.1903
 Frc consts  --      1.2327                 1.0992                 1.3763
 IR Inten    --      5.7119                 0.6640                 5.6532

                     28                     29                     30
                      A                      A                      A
 Frequencies --    627.8808               662.4181               719.1272
 Red. masses --      6.7757                 5.5426                 7.1089
 Frc consts  --      1.5738                 1.4329                 2.1660
 IR Inten    --      2.8234                 0.8213                 8.6194

                     31                     32                     33
                      A                      A                      A
 Frequencies --    734.2532               748.9204               760.2697
 Red. masses --      5.1507                 2.9475                 1.2199
 Frc consts  --      1.6361                 0.9740                 0.4155
 IR Inten    --      6.7894                19.0703                22.5483

                     34                     35                     36
                      A                      A                      A
 Frequencies --    774.2195               806.9934               816.2649
 Red. masses --      3.1172                 1.5233                 1.7517
 Frc consts  --      1.1009                 0.5845                 0.6877
 IR Inten    --      1.6568                58.8363                60.6896

                     37                     38                     39
                      A                      A                      A
 Frequencies --    833.3880               866.6448               869.2862
 Red. masses --      1.4481                 4.6956                 4.8399
 Frc consts  --      0.5926                 2.0779                 2.1548
 IR Inten    --      9.9067                18.5738                35.6020

                     40                     41                     42
                      A                      A                      A
 Frequencies --    879.5451               902.5393               965.7009
 Red. masses --      5.2241                 1.4152                 1.2557
 Frc consts  --      2.3811                 0.6792                 0.6899
 IR Inten    --      8.2081                 0.1765                 1.0044

                     43                     44                     45
                      A                      A                      A
 Frequencies --    985.1470               991.6264              1005.3900
 Red. masses --      2.2616                 1.7924                 2.1646
 Frc consts  --      1.2932                 1.0384                 1.2892
 IR Inten    --     10.0252                44.0664                 9.6637

                     46                     47                     48
                      A                      A                      A
 Frequencies --   1077.9287              1081.7138              1094.2660
 Red. masses --      1.4757                 1.9141                 2.1831
 Frc consts  --      1.0102                 1.3196                 1.5402
 IR Inten    --      1.4720                10.3678                44.8821

                     49                     50                     51
                      A                      A                      A
 Frequencies --   1142.9755              1151.0903              1173.1406
 Red. masses --      3.0349                 2.1437                 1.5265
 Frc consts  --      2.3359                 1.6736                 1.2378
 IR Inten    --     64.6817                10.2355                12.6067

                     52                     53                     54
                      A                      A                      A
 Frequencies --   1184.8982              1194.8499              1203.1083
 Red. masses --      1.7458                 1.6870                 2.3559
 Frc consts  --      1.4441                 1.4190                 2.0091
 IR Inten    --     13.9654                29.5972                12.7255

                     55                     56                     57
                      A                      A                      A
 Frequencies --   1221.2535              1240.5048              1265.5470
 Red. masses --      4.9534                 4.9737                 1.2696
 Frc consts  --      4.3527                 4.5095                 1.1980
 IR Inten    --     24.2724               307.2437                 5.0606

                     58                     59                     60
                      A                      A                      A
 Frequencies --   1285.4582              1300.4424              1302.9266
 Red. masses --      1.9379                 1.4074                 3.5296
 Frc consts  --      1.8867                 1.4023                 3.5303
 IR Inten    --     55.0951                23.7177                76.1196

                     61                     62                     63
                      A                      A                      A
 Frequencies --   1361.9386              1387.3429              1404.3345
 Red. masses --      2.1777                 2.2447                 4.4004
 Frc consts  --      2.3799                 2.5455                 5.1131
 IR Inten    --      2.4878                26.7326                 7.3793

                     64                     65                     66
                      A                      A                      A
 Frequencies --   1415.7969              1448.5579              1476.5740
 Red. masses --      1.9221                 1.4928                 2.9960
 Frc consts  --      2.2701                 1.8455                 3.8486
 IR Inten    --      8.8990                 1.2730                38.2024

                     67                     68                     69
                      A                      A                      A
 Frequencies --   1483.0600              1500.4869              1501.2486
 Red. masses --      1.2359                 2.1739                 1.6249
 Frc consts  --      1.6016                 2.8837                 2.1576
 IR Inten    --      5.1481               104.1095                29.0338

                     70                     71                     72
                      A                      A                      A
 Frequencies --   1504.6749              1515.3336              1519.0852
 Red. masses --      1.2390                 1.1003                 1.0607
 Frc consts  --      1.6527                 1.4885                 1.4421
 IR Inten    --     22.9446                 8.6569                 8.6379

                     73                     74                     75
                      A                      A                      A
 Frequencies --   1537.7132              1538.2201              1546.7865
 Red. masses --      1.2409                 2.2338                 1.0577
 Frc consts  --      1.7288                 3.1142                 1.4910
 IR Inten    --     42.5951                33.7406                 4.2036

                     76                     77                     78
                      A                      A                      A
 Frequencies --   1576.0644              1645.9117              1672.3440
 Red. masses --      6.5459                 7.1894                 8.8781
 Frc consts  --      9.5800                11.4751                14.6292
 IR Inten    --    194.3250                24.9374                16.7032

                     79                     80                     81
                      A                      A                      A
 Frequencies --   1690.7859              2938.4993              2953.6889
 Red. masses --      7.7814                 1.0726                 1.0614
 Frc consts  --     13.1064                 5.4567                 5.4556
 IR Inten    --     22.7857                55.0828               137.1593

                     82                     83                     84
                      A                      A                      A
 Frequencies --   3027.3057              3051.4318              3075.1956
 Red. masses --      1.0858                 1.0382                 1.0738
 Frc consts  --      5.8630                 5.6957                 5.9830
 IR Inten    --     30.0237                25.0044                38.5136

                     85                     86                     87
                      A                      A                      A
 Frequencies --   3103.2529              3125.6178              3151.0105
 Red. masses --      1.1013                 1.1018                 1.0993
 Frc consts  --      6.2486                 6.3418                 6.4308
 IR Inten    --     10.0793                30.6468                12.2164

                     88                     89                     90
                      A                      A                      A
 Frequencies --   3199.8313              3222.6917              3236.6897
 Red. masses --      1.0880                 1.0926                 1.0936
 Frc consts  --      6.5633                 6.6856                 6.7503
 IR Inten    --     14.2541                 5.1499                 4.6979

                     91                     92                     93
                      A                      A                      A
 Frequencies --   3246.3419              3252.9724              3494.7687
 Red. masses --      1.0929                 1.0946                 1.0743
 Frc consts  --      6.7860                 6.8244                 7.7307
 IR Inten    --      2.6745                 7.5877                 0.1995

 - Thermochemistry -
 -------------------
 Temperature   298.150 Kelvin.  Pressure   1.00000 Atm.
 Atom     1 has atomic number  6 and mass  12.00000

 Molecular mass:   274.07760 amu.
 Principal axes and moments of inertia in atomic units:
                           1         2         3
     Eigenvalues --  2546.655189197.63315**********
           X            0.99997  -0.00781  -0.00093
           Y            0.00782   0.99993   0.00929
           Z            0.00085  -0.00930   0.99996
 This molecule is an asymmetric top.
 Rotational symmetry number  1.
 Warning -- assumption of classical behavior for rotation
           may cause significant error
 Rotational temperatures (Kelvin)      0.03401     0.00942     0.00797
 Rotational constants (GHZ):           0.70867     0.19622     0.16612
 Zero-point vibrational energy     681056.3 (Joules/Mol)
                                  162.77637 (Kcal/Mol)
 Warning -- explicit consideration of  27 degrees of freedom as
           vibrations may cause significant error
 Vibrational temperatures:     22.75    39.15    57.01    90.36   125.48
          (Kelvin)            139.46   172.31   196.94   243.55   269.45
                              343.30   360.59   364.53   402.78   408.37
                              455.20   473.90   527.35   604.34   706.56
                              750.76   758.02   815.96   833.04   863.61
                              872.75   883.82   903.38   953.07  1034.66
                             1056.43  1077.53  1093.86  1113.93  1161.08
                             1174.42  1199.06  1246.91  1250.71  1265.47
                             1298.55  1389.43  1417.41  1426.73  1446.53
                             1550.90  1556.34  1574.40  1644.49  1656.16
                             1687.89  1704.80  1719.12  1731.00  1757.11
                             1784.81  1820.84  1849.49  1871.05  1874.62
                             1959.53  1996.08  2020.52  2037.02  2084.15
                             2124.46  2133.79  2158.87  2159.96  2164.89
                             2180.23  2185.62  2212.43  2213.16  2225.48
                             2267.61  2368.10  2406.13  2432.66  4227.85
                             4249.70  4355.62  4390.33  4424.52  4464.89
                             4497.07  4533.60  4603.84  4636.73  4656.87
                             4670.76  4680.30  5028.19

 Zero-point correction=                           0.259401 (Hartree/Particle)
 Thermal correction to Energy=                    0.276705
 Thermal correction to Enthalpy=                  0.277649
 Thermal correction to Gibbs Free Energy=         0.211682
 Sum of electronic and zero-point Energies=          -1199.823787
 Sum of electronic and thermal Energies=             -1199.806483
 Sum of electronic and thermal Enthalpies=           -1199.805538
 Sum of electronic and thermal Free Energies=        -1199.871506

                     E (Thermal)             CV                S
                      KCal/Mol        Cal/Mol-Kelvin    Cal/Mol-Kelvin
 Total                  173.635             64.972            138.840
 Electronic               0.000              0.000              0.000
 Translational            0.889              2.981             42.723
 Rotational               0.889              2.981             33.897
 Vibrational            171.858             59.011             62.219
 Vibration     1          0.593              1.986              7.101
 Vibration     2          0.593              1.984              6.023
 Vibration     3          0.594              1.981              5.278
 Vibration     4          0.597              1.972              4.367
 Vibration     5          0.601              1.958              3.722
 Vibration     6          0.603              1.951              3.515
 Vibration     7          0.609              1.933              3.104
 Vibration     8          0.614              1.916              2.847
 Vibration     9          0.625              1.880              2.444
 Vibration    10          0.632              1.857              2.255
 Vibration    11          0.657              1.781              1.813
 Vibration    12          0.663              1.762              1.726
 Vibration    13          0.665              1.757              1.707
 Vibration    14          0.680              1.711              1.534
 Vibration    15          0.682              1.704              1.510
 Vibration    16          0.703              1.642              1.329
 Vibration    17          0.712              1.617              1.263
 Vibration    18          0.739              1.541              1.094
 Vibration    19          0.783              1.427              0.892
 Vibration    20          0.847              1.270              0.681
 Vibration    21          0.877              1.202              0.606
 Vibration    22          0.882              1.191              0.594
 Vibration    23          0.923              1.102              0.510
 Vibration    24          0.936              1.077              0.487
 Vibration    25          0.958              1.031              0.449
 Vibration    26          0.965              1.018              0.438
 Vibration    27          0.974              1.002              0.426

 Optimization completed.
    -- Stationary point found.
 Normal termination of Gaussian 16 at Sun Dec 13 16:37:51 2020.

 ----------------------------------------------------------------------
 # B3LYP/6-311++G(d,p) empiricaldispersion=gd3bj scf=xqc pop=npa geom=c
 heck
 ----------------------------------------------------------------------

 ---------------------------------------
 CID_146571784_JID_9268_Energie_neutraal
 ---------------------------------------
 Structure from the checkpoint file:  "JID_9268.chk"
 Charge =  0 Multiplicity = 1

 SCF Done:  E(RB3LYP) =  -1200.32314746     A.U. after   17 cycles
 Normal termination of Gaussian 16 at Sun Dec 13 16:46:00 2020.

 ----------------------------------------------------------------------
 # B3LYP/6-311++G(d,p) empiricaldispersion=gd3bj scf=xqc pop=npa geom=c
 heck
 ----------------------------------------------------------------------

 -------------------------------------
 CID_146571784_JID_9268_Energie_kation
 -------------------------------------
 Structure from the checkpoint file:  "JID_9268.chk"
 Charge =  1 Multiplicity = 2

 SCF Done:  E(UB3LYP) =  -1200.04155773     A.U. after   32 cycles
 Normal termination of Gaussian 16 at Sun Dec 13 17:08:44 2020.
 Gaussian 16:  ES64L-G16RevA.03 25-Dec-2016

 ----------------------------------------------------------------------
 # B3LYP/6-311++G(d,p) empiricaldispersion=gd3bj scf=xqc pop=npa geom=c
 heck
 ----------------------------------------------------------------------

 ------------------------------------
 CID_146571784_JID_9268_Energie_anion
 ------------------------------------
 Structure from the checkpoint file:  "JID_9268.chk"
 Charge = -1 Multiplicity = 2

                         Standard orientation:
 ---------------------------------------------------------------------
 Center     Atomic      Atomic             Coordinates (Angstroms)
 Number     Number       Type             X           Y           Z
 ---------------------------------------------------------------------
      1          6           0        1.122422   -3.018271   -0.421954
      2          6           0        1.164870   -1.544042   -0.244663
      3          6           0        2.140532   -0.666349    0.123478
      4          6           0        1.529496    0.650102    0.112307
      5          6           0        0.194753    0.433955   -0.265168
      6          8           0       -0.034829   -0.893603   -0.486317
      7          6           0       -0.724745    1.474741   -0.370099
      8          6           0       -0.277918    2.764113   -0.105860
      9          6           0        1.062324    2.996161    0.252262
     10          6           0        1.977669    1.954106    0.368006
     11          8           0       -2.034142    1.275253   -0.789203
     12          6           0       -2.777879    0.394216   -0.069599
     13          6           0       -2.680824   -0.006115    1.233736
     14          7           0       -3.635429   -0.916005    1.633857
     15          6           0       -4.446284   -1.207329    0.663613
     16         16           0       -4.115641   -0.399068   -0.863010
     17          6           0        3.558011   -0.969062    0.496197
     18          7           0        4.488454   -0.102791   -0.227266
     19          6           0        5.882367   -0.424156    0.048426
     20          1           0        0.428621   -3.480041    0.290898
     21          1           0        0.779633   -3.280184   -1.429835
     22          1           0        2.113593   -3.450933   -0.267154
     23          1           0       -0.986008    3.581724   -0.188187
     24          1           0        1.381889    4.016079    0.443603
     25          1           0        3.015903    2.131154    0.623289
     26          1           0       -1.925606    0.333174    1.930679
     27          1           0       -5.286608   -1.885666    0.749401
     28          1           0        3.709018   -0.778938    1.568970
     29          1           0        3.765715   -2.045732    0.345459
     30          1           0        4.304069   -0.186985   -1.225169
     31          1           0        6.151974   -1.479060   -0.147773
     32          1           0        6.532002    0.216342   -0.555943
     33          1           0        6.097897   -0.219889    1.103861
 ---------------------------------------------------------------------

 SCF Done:  E(UB3LYP) =  -1200.31495349     A.U. after   33 cycles
 SCF Done:  E(UB3LYP) =  -1200.31495349     a.u. after    1 cycles

 The electronic state is 2-A.
 Alpha  occ. eigenvalues --  -88.78183 -19.08263 -19.08208 -14.21477 -14.20127
 Alpha  occ. eigenvalues --  -10.15829 -10.13655 -10.12915 -10.12911 -10.12397
 Alpha  occ. eigenvalues --  -10.10153 -10.09442 -10.08759 -10.08171 -10.07741
 Alpha  occ. eigenvalues --  -10.07650 -10.07484 -10.07459 -10.06725  -7.86848
 Alpha  occ. eigenvalues --   -5.83115  -5.82798  -5.82440  -1.01159  -0.99701
 Alpha  occ. eigenvalues --   -0.86043  -0.80992  -0.76038  -0.71521  -0.69720
 Alpha  occ. eigenvalues --   -0.67157  -0.65115  -0.63297  -0.61854  -0.59033
 Alpha  occ. eigenvalues --   -0.54267  -0.54094  -0.50519  -0.49562  -0.48747
 Alpha  occ. eigenvalues --   -0.45582  -0.43764  -0.41538  -0.39569  -0.38079
 Alpha  occ. eigenvalues --   -0.37450  -0.36847  -0.35481  -0.35293  -0.34471
 Alpha  occ. eigenvalues --   -0.34349  -0.32904  -0.32003  -0.31522  -0.31292
 Alpha  occ. eigenvalues --   -0.31132  -0.30333  -0.28961  -0.27765  -0.27442
 Alpha  occ. eigenvalues --   -0.27197  -0.26674  -0.25869  -0.24630  -0.24384
 Alpha  occ. eigenvalues --   -0.18827  -0.18227  -0.17568  -0.14724  -0.13280
 Alpha  occ. eigenvalues --   -0.12706  -0.12062   0.04266
 Alpha virt. eigenvalues --    0.05648   0.07038   0.07127   0.07391   0.07695
 Alpha virt. eigenvalues --    0.08530   0.09151   0.09322   0.09683   0.10071
 Alpha virt. eigenvalues --    0.10585   0.10685   0.11265   0.11318   0.11618

  Beta  occ. eigenvalues --  -88.78164 -19.08254 -19.08217 -14.21435 -14.20114
  Beta  occ. eigenvalues --  -10.15700 -10.13547 -10.12939 -10.12771 -10.12240
  Beta  occ. eigenvalues --  -10.10131 -10.09451 -10.08718 -10.08161 -10.07706
  Beta  occ. eigenvalues --  -10.07671 -10.07475 -10.07431 -10.06628  -7.86830
  Beta  occ. eigenvalues --   -5.83106  -5.82791  -5.82373  -1.01112  -0.99649
  Beta  occ. eigenvalues --   -0.85906  -0.80970  -0.75931  -0.71398  -0.69587
  Beta  occ. eigenvalues --   -0.67048  -0.64948  -0.63162  -0.61792  -0.58946
  Beta  occ. eigenvalues --   -0.54169  -0.53979  -0.50474  -0.49362  -0.48596
  Beta  occ. eigenvalues --   -0.45506  -0.43687  -0.41452  -0.39503  -0.37969
  Beta  occ. eigenvalues --   -0.37268  -0.36793  -0.35362  -0.35198  -0.34385
  Beta  occ. eigenvalues --   -0.34226  -0.32814  -0.31901  -0.31325  -0.31207
  Beta  occ. eigenvalues --   -0.31075  -0.30278  -0.28881  -0.27595  -0.27391
  Beta  occ. eigenvalues --   -0.27091  -0.26638  -0.25709  -0.24543  -0.24183
  Beta  occ. eigenvalues --   -0.18506  -0.17905  -0.17464  -0.14361  -0.13235
  Beta  occ. eigenvalues --   -0.12311  -0.11565
  Beta virt. eigenvalues --    0.06565   0.07086   0.07314   0.07504   0.07817
  Beta virt. eigenvalues --    0.08207   0.08889   0.09268   0.09717   0.09839
  Beta virt. eigenvalues --    0.10144   0.10639   0.10794   0.11397   0.11516

 Mulliken charges and spin densities:
               1          2
     1  C    0.649415  -1.098925
     2  C   -1.337128   1.105933
     3  C    0.563309   0.611220
     4  C    0.848866  -0.073075
     5  C   -0.548224   0.181882
     6  O    0.063226   0.013215
     7  C   -0.134265  -0.078090
     8  C    0.185831  -0.023447
     9  C   -0.660874   0.167066
    10  C   -0.173485  -0.172319
    11  O   -0.068617  -0.006749
    12  C    0.018757   0.029058
    13  C   -0.329836  -0.013099
    14  N   -0.047398   0.010938
    15  C   -0.303279   0.110646
    16  S   -0.084002   0.056682
    17  C   -0.137790  -1.090275
    18  N   -0.330394   0.263221
    19  C    1.044627  -1.405157
    20  H    0.166057  -0.006019
    21  H   -0.022151   0.185157
    22  H   -0.557520   0.718091
    23  H    0.126526   0.031868
    24  H    0.098850   0.053866
    25  H    0.166463  -0.006227
    26  H    0.156998   0.007595
    27  H    0.206679  -0.007031
    28  H   -0.085962   0.244587
    29  H    0.521168  -0.403740
    30  H    0.056696   0.139413
    31  H   -0.639572   0.774688
    32  H   -0.143728   0.268912
    33  H   -0.269245   0.410115
 Sum of Mulliken charges =  -1.00000   1.00000

 Dipole moment (field-independent basis, Debye):
    X=             -7.0504    Y=              2.9262    Z=             -0.7644  Tot=              7.6717
 Quadrupole moment (field-independent basis, Debye-Ang):
   XX=           -222.9838   YY=           -152.4500   ZZ=           -143.6842
   XY=             16.2764   XZ=              4.9183   YZ=              0.4131

 Summary of Natural Population Analysis:

                                       Natural Population
                Natural  -----------------------------------------------
    Atom  No    Charge         Core      Valence    Rydberg      Total
 -----------------------------------------------------------------------
      C    1   -0.30899      0.99962     2.30365    0.00572     3.30899
      C    2    0.19212      0.99939     1.79463    0.01385     2.80788
      C    3   -0.06915      0.99941     2.05904    0.01070     3.06915
      C    4   -0.03606      0.99947     2.02673    0.00986     3.03606
      C    5    0.13114      0.99930     1.85645    0.01311     2.86886
      O    6   -0.24137      0.99985     3.23378    0.00774     4.24137
      C    7    0.14136      0.99928     1.84655    0.01281     2.85864
      C    8   -0.11717      0.99954     2.10783    0.00980     3.11717
      C    9   -0.11293      0.99959     2.10365    0.00969     3.11293
      C   10   -0.08367      0.99954     2.07553    0.00860     3.08367
      O   11   -0.26591      0.99983     3.25499    0.01109     4.26591
      C   12    0.08669      0.99938     1.89694    0.01699     2.91331
      C   13   -0.06774      0.99945     2.05531    0.01297     3.06774
      N   14   -0.22800      0.99969     2.71592    0.01240     3.72800
      C   15   -0.03759      0.99967     2.02137    0.01655     3.03759
      S   16    0.16857      4.99945     2.81157    0.02041     7.83143
      C   17   -0.09070      0.99960     2.07955    0.01155     3.09070
      N   18   -0.33633      0.99975     2.82475    0.01183     3.83633
      C   19   -0.17768      0.99967     2.16964    0.00838     3.17768
      H   20    0.10797      0.00000     0.39082    0.00121     0.39203
      H   21    0.10947      0.00000     0.38925    0.00128     0.39053
      H   22    0.11039      0.00000     0.38846    0.00115     0.38961
      H   23    0.10348      0.00000     0.39548    0.00104     0.39652
      H   24    0.09760      0.00000     0.40164    0.00076     0.40240
      H   25    0.10983      0.00000     0.38883    0.00134     0.39017
      H   26    0.10440      0.00000     0.39366    0.00193     0.39560
      H   27    0.09182      0.00000     0.40690    0.00128     0.40818
      H   28    0.09523      0.00000     0.40351    0.00126     0.40477
      H   29    0.08656      0.00000     0.41151    0.00192     0.41344
      H   30    0.17077      0.00000     0.32648    0.00275     0.32923
      H   31    0.08150      0.00000     0.41576    0.00273     0.41850
      H   32    0.09371      0.00000     0.40535    0.00093     0.40629
      H   33    0.09066      0.00000     0.40791    0.00143     0.40934
 =======================================================================
   * Total *   -0.00000     22.99147    48.76346    0.24506    72.00000

 Normal termination of Gaussian 16 at Sun Dec 13 17:31:34 2020.
