 Gaussian 16, Revision A.03,

 -----------------------------------------------------------
 # opt freq B3LYP/6-31G(d) empiricaldispersion=gd3bj scf=xqc
 -----------------------------------------------------------

 ------------------------------
 CID_76851153_JID_2043_neutraal
 ------------------------------
 Symbolic Z-matrix:
 Charge =  0 Multiplicity = 1

 SCF Done:  E(RB3LYP) =  -588.069990479     A.U. after   14 cycles
 SCF Done:  E(RB3LYP) =  -588.075349905     A.U. after   13 cycles
 SCF Done:  E(RB3LYP) =  -588.074476828     A.U. after   13 cycles
 SCF Done:  E(RB3LYP) =  -588.075944362     A.U. after   12 cycles
 SCF Done:  E(RB3LYP) =  -588.076057250     A.U. after   12 cycles
 SCF Done:  E(RB3LYP) =  -588.076087792     A.U. after   10 cycles
 SCF Done:  E(RB3LYP) =  -588.076100359     A.U. after   10 cycles
 SCF Done:  E(RB3LYP) =  -588.076105784     A.U. after    9 cycles
 SCF Done:  E(RB3LYP) =  -588.076107561     A.U. after    9 cycles
 SCF Done:  E(RB3LYP) =  -588.076109564     A.U. after   10 cycles
 SCF Done:  E(RB3LYP) =  -588.078055868     A.U. after   10 cycles
 SCF Done:  E(RB3LYP) =  -588.078059186     A.U. after   10 cycles
 SCF Done:  E(RB3LYP) =  -588.078059878     A.U. after    8 cycles
 SCF Done:  E(RB3LYP) =  -588.078060036     A.U. after    7 cycles
 SCF Done:  E(RB3LYP) =  -588.078060098     A.U. after    7 cycles
 Optimization completed.
    -- Stationary point found.
 Normal termination of Gaussian 16 at Wed Dec  9 16:55:52 2020.

 --------------------------------------------------------------------
 #N Geom=AllCheck Guess=TCheck SCRF=Check GenChk RB3LYP/6-31G(d) Freq
 --------------------------------------------------------------------

 Structure from the checkpoint file:  "JID_2043.chk"
 ------------------------------
 CID_76851153_JID_2043_neutraal
 ------------------------------
 Charge =  0 Multiplicity = 1

 SCF Done:  E(RB3LYP) =  -588.078060098     A.U. after    1 cycles

  Exact polarizability: 138.192 -12.698  91.683   5.074   9.162  66.845
 Approx polarizability: 190.440 -19.433 151.071  10.369  30.091 105.748

                      1                      2                      3
                      A                      A                      A
 Frequencies --     40.9548                67.7548               100.7143
 Red. masses --      4.7986                 3.8582                 2.6483
 Frc consts  --      0.0047                 0.0104                 0.0158
 IR Inten    --      0.3020                 2.1415                 2.7866

                      4                      5                      6
                      A                      A                      A
 Frequencies --    122.1430               133.9290               156.5409
 Red. masses --      1.9198                 4.3615                 2.0558
 Frc consts  --      0.0169                 0.0461                 0.0297
 IR Inten    --      3.4619                 2.6977                 2.2788

                      7                      8                      9
                      A                      A                      A
 Frequencies --    207.0366               287.0702               348.0143
 Red. masses --      3.1957                 2.8450                 4.2867
 Frc consts  --      0.0807                 0.1381                 0.3059
 IR Inten    --      6.0936                 2.8244                10.2978

                     10                     11                     12
                      A                      A                      A
 Frequencies --    400.6147               424.2278               429.4899
 Red. masses --      4.4767                 2.1723                 2.6566
 Frc consts  --      0.4233                 0.2303                 0.2887
 IR Inten    --     16.4247                 9.2163                 0.8510

                     13                     14                     15
                      A                      A                      A
 Frequencies --    435.8873               467.1644               482.4817
 Red. masses --      3.4228                 1.3876                 1.4006
 Frc consts  --      0.3832                 0.1784                 0.1921
 IR Inten    --      0.2634               305.7179                19.0081

                     16                     17                     18
                      A                      A                      A
 Frequencies --    520.6988               545.2110               580.7978
 Red. masses --      2.2446                 2.8517                 4.1188
 Frc consts  --      0.3586                 0.4994                 0.8186
 IR Inten    --     38.6319                63.7932                 4.5747

                     19                     20                     21
                      A                      A                      A
 Frequencies --    662.5011               767.2714               806.1359
 Red. masses --      8.4621                 4.9469                10.9314
 Frc consts  --      2.1883                 1.7159                 4.1854
 IR Inten    --      8.0059                 5.7928                26.0305

                     22                     23                     24
                      A                      A                      A
 Frequencies --    854.9114               899.8203               916.4517
 Red. masses --      2.9613                 5.3002                 2.5095
 Frc consts  --      1.2752                 2.5284                 1.2418
 IR Inten    --     18.5480                 4.5394                29.8052

                     25                     26                     27
                      A                      A                      A
 Frequencies --    956.5994               997.2050              1003.0015
 Red. masses --      1.5199                 2.1788                 1.6079
 Frc consts  --      0.8195                 1.2765                 0.9530
 IR Inten    --     14.6643                26.1849                 3.1548

                     28                     29                     30
                      A                      A                      A
 Frequencies --   1050.6683              1086.3243              1090.9583
 Red. masses --      3.7392                 1.6156                 3.6408
 Frc consts  --      2.4320                 1.1233                 2.5531
 IR Inten    --      0.2231                 3.7219                51.4469

                     31                     32                     33
                      A                      A                      A
 Frequencies --   1131.0096              1176.2146              1195.1537
 Red. masses --      1.9617                 3.0814                 1.3859
 Frc consts  --      1.4785                 2.5118                 1.1664
 IR Inten    --     34.8135                66.5529                 9.7392

                     34                     35                     36
                      A                      A                      A
 Frequencies --   1230.7249              1267.7217              1284.0937
 Red. masses --      1.5710                 3.9399                 1.8096
 Frc consts  --      1.4020                 3.7307                 1.7580
 IR Inten    --     40.8528                56.5054               111.2833

                     37                     38                     39
                      A                      A                      A
 Frequencies --   1324.6663              1339.5161              1343.7912
 Red. masses --      1.4190                 1.4248                 1.2748
 Frc consts  --      1.4671                 1.5063                 1.3564
 IR Inten    --     58.2101                 0.7447                41.9656

                     40                     41                     42
                      A                      A                      A
 Frequencies --   1400.6682              1424.8988              1433.0166
 Red. masses --      2.5114                 1.3647                 1.3785
 Frc consts  --      2.9029                 1.6325                 1.6679
 IR Inten    --     60.4286                11.2147                29.7267

                     43                     44                     45
                      A                      A                      A
 Frequencies --   1452.6215              1497.0936              1509.2369
 Red. masses --      3.5679                 1.1119                 2.0247
 Frc consts  --      4.4358                 1.4683                 2.7172
 IR Inten    --      4.0920                 1.5899               364.2264

                     46                     47                     48
                      A                      A                      A
 Frequencies --   1514.2986              1521.3839              1523.1596
 Red. masses --      1.0850                 1.1215                 1.2833
 Frc consts  --      1.4659                 1.5294                 1.7542
 IR Inten    --      9.6147                15.6025               106.9919

                     49                     50                     51
                      A                      A                      A
 Frequencies --   1540.2013              1603.3665              1650.5593
 Red. masses --      1.0643                 6.4676                 1.6948
 Frc consts  --      1.4875                 9.7962                 2.7204
 IR Inten    --      8.9401                69.1471               114.7652

                     52                     53                     54
                      A                      A                      A
 Frequencies --   1676.6588              3014.2396              3025.2391
 Red. masses --      3.1709                 1.0444                 1.0564
 Frc consts  --      5.2520                 5.5907                 5.6963
 IR Inten    --    198.2417                41.0306                56.0614

                     55                     56                     57
                      A                      A                      A
 Frequencies --   3045.1288              3074.5268              3087.5996
 Red. masses --      1.0606                 1.1037                 1.0958
 Frc consts  --      5.7946                 6.1468                 6.1550
 IR Inten    --     45.9564                51.1685                48.4197

                     58                     59                     60
                      A                      A                      A
 Frequencies --   3100.2678              3146.8885              3178.6745
 Red. masses --      1.1077                 1.1016                 1.0914
 Frc consts  --      6.2729                 6.4274                 6.4974
 IR Inten    --     29.5830                23.0384                19.1685

                     61                     62                     63
                      A                      A                      A
 Frequencies --   3199.6683              3592.7641              3712.0275
 Red. masses --      1.0919                 1.0458                 1.1023
 Frc consts  --      6.5862                 7.9534                 8.9490
 IR Inten    --      2.4362                56.1963                32.9635

 - Thermochemistry -
 -------------------
 Temperature   298.150 Kelvin.  Pressure   1.00000 Atm.
 Atom     1 has atomic number  6 and mass  12.00000

 Molecular mass:   169.08513 amu.
 Principal axes and moments of inertia in atomic units:
                           1         2         3
     Eigenvalues --   877.726773458.530143928.16612
           X            0.99998  -0.00328  -0.00525
           Y            0.00307   0.99926  -0.03832
           Z            0.00537   0.03830   0.99925
 This molecule is an asymmetric top.
 Rotational symmetry number  1.
 Warning -- assumption of classical behavior for rotation
           may cause significant error
 Rotational temperatures (Kelvin)      0.09868     0.02504     0.02205
 Rotational constants (GHZ):           2.05615     0.52182     0.45944
 Zero-point vibrational energy     496807.1 (Joules/Mol)
                                  118.73974 (Kcal/Mol)
 Warning -- explicit consideration of  18 degrees of freedom as
           vibrations may cause significant error
 Vibrational temperatures:     58.92    97.48   144.91   175.74   192.69
          (Kelvin)            225.23   297.88   413.03   500.71   576.40
                              610.37   617.94   627.14   672.15   694.18
                              749.17   784.44   835.64   953.19  1103.93
                             1159.85  1230.03  1294.64  1318.57  1376.33
                             1434.76  1443.10  1511.68  1562.98  1569.65
                             1627.27  1692.31  1719.56  1770.74  1823.97
                             1847.52  1905.90  1927.26  1933.42  2015.25
                             2050.11  2061.79  2090.00  2153.98  2171.46
                             2178.74  2188.93  2191.49  2216.01  2306.89
                             2374.79  2412.34  4336.82  4352.64  4381.26
                             4423.56  4442.37  4460.59  4527.67  4573.40
                             4603.61  5169.19  5340.78

 Zero-point correction=                           0.189224 (Hartree/Particle)
 Thermal correction to Energy=                    0.200852
 Thermal correction to Enthalpy=                  0.201796
 Thermal correction to Gibbs Free Energy=         0.150900
 Sum of electronic and zero-point Energies=           -587.888836
 Sum of electronic and thermal Energies=              -587.877208
 Sum of electronic and thermal Enthalpies=            -587.876264
 Sum of electronic and thermal Free Energies=         -587.927160

                     E (Thermal)             CV                S
                      KCal/Mol        Cal/Mol-Kelvin    Cal/Mol-Kelvin
 Total                  126.036             42.844            107.120
 Electronic               0.000              0.000              0.000
 Translational            0.889              2.981             41.284
 Rotational               0.889              2.981             30.856
 Vibrational            124.259             36.882             34.980
 Vibration     1          0.594              1.981              5.212
 Vibration     2          0.598              1.970              4.218
 Vibration     3          0.604              1.949              3.440
 Vibration     4          0.610              1.931              3.066
 Vibration     5          0.613              1.919              2.889
 Vibration     6          0.620              1.895              2.591
 Vibration     7          0.641              1.830              2.070
 Vibration     8          0.684              1.698              1.491
 Vibration     9          0.726              1.579              1.175
 Vibration    10          0.766              1.469              0.960
 Vibration    11          0.786              1.418              0.878
 Vibration    12          0.791              1.406              0.860
 Vibration    13          0.796              1.392              0.840
 Vibration    14          0.824              1.323              0.746
 Vibration    15          0.839              1.289              0.703
 Vibration    16          0.876              1.204              0.608
 Vibration    17          0.900              1.150              0.554
 Vibration    18          0.937              1.073              0.484

 Optimization completed.
    -- Stationary point found.
 Normal termination of Gaussian 16 at Wed Dec  9 17:00:19 2020.

 ----------------------------------------------------------------------
 # B3LYP/6-311++G(d,p) empiricaldispersion=gd3bj scf=xqc pop=npa geom=c
 heck
 ----------------------------------------------------------------------

 --------------------------------------
 CID_76851153_JID_2043_Energie_neutraal
 --------------------------------------
 Structure from the checkpoint file:  "JID_2043.chk"
 Charge =  0 Multiplicity = 1

 SCF Done:  E(RB3LYP) =  -588.251082559     A.U. after   14 cycles
 Normal termination of Gaussian 16 at Wed Dec  9 17:01:57 2020.

 ----------------------------------------------------------------------
 # B3LYP/6-311++G(d,p) empiricaldispersion=gd3bj scf=xqc pop=npa geom=c
 heck
 ----------------------------------------------------------------------

 ------------------------------------
 CID_76851153_JID_2043_Energie_kation
 ------------------------------------
 Structure from the checkpoint file:  "JID_2043.chk"
 Charge =  1 Multiplicity = 2

 SCF Done:  E(UB3LYP) =  -587.960020037     A.U. after   21 cycles
 Normal termination of Gaussian 16 at Wed Dec  9 17:05:12 2020.
 Gaussian 16:  ES64L-G16RevA.03 25-Dec-2016

 ----------------------------------------------------------------------
 # B3LYP/6-311++G(d,p) empiricaldispersion=gd3bj scf=xqc pop=npa geom=c
 heck
 ----------------------------------------------------------------------

 -----------------------------------
 CID_76851153_JID_2043_Energie_anion
 -----------------------------------
 Structure from the checkpoint file:  "JID_2043.chk"
 Charge = -1 Multiplicity = 2

                         Standard orientation:
 ---------------------------------------------------------------------
 Center     Atomic      Atomic             Coordinates (Angstroms)
 Number     Number       Type             X           Y           Z
 ---------------------------------------------------------------------
      1          6           0        2.396476    1.526947   -1.091245
      2          8           0        2.698657    1.124692    0.237032
      3          6           0        3.128902   -0.220756    0.353000
      4          6           0        2.014985   -1.176294    0.756343
      5          8           0        1.031887   -1.335249   -0.271341
      6          6           0       -0.190390   -0.738248   -0.100909
      7          6           0       -0.419306    0.491358    0.522212
      8          7           0       -1.643104    1.017875    0.625227
      9          6           0       -2.648000    0.314108    0.077616
     10          7           0       -2.540328   -0.875929   -0.545909
     11          6           0       -1.313969   -1.386291   -0.620876
     12          7           0       -3.900754    0.876953    0.122924
     13          1           0        3.277178    1.425704   -1.742872
     14          1           0        2.110926    2.580342   -1.040576
     15          1           0        1.569324    0.950574   -1.522481
     16          1           0        3.587521   -0.566393   -0.584598
     17          1           0        3.898802   -0.249150    1.135626
     18          1           0        2.447169   -2.170081    0.930111
     19          1           0        1.540550   -0.840074    1.685343
     20          1           0        0.403272    1.067224    0.938571
     21          1           0       -1.198775   -2.349990   -1.114233
     22          1           0       -4.671748    0.240847   -0.020316
     23          1           0       -4.031454    1.598218    0.817350
 ---------------------------------------------------------------------

 SCF Done:  E(UB3LYP) =  -588.239178662     A.U. after   33 cycles
 SCF Done:  E(UB3LYP) =  -588.239178662     a.u. after    1 cycles

 The electronic state is 2-A.
 Alpha  occ. eigenvalues --  -19.02850 -19.01741 -14.20735 -14.16706 -14.16578
 Alpha  occ. eigenvalues --  -10.13508 -10.11122 -10.10735 -10.10082 -10.09688
 Alpha  occ. eigenvalues --  -10.06754 -10.06247  -0.94566  -0.92471  -0.86475
 Alpha  occ. eigenvalues --   -0.77754  -0.74923  -0.66621  -0.62099  -0.57455
 Alpha  occ. eigenvalues --   -0.53288  -0.51555  -0.48581  -0.42608  -0.41598
 Alpha  occ. eigenvalues --   -0.40884  -0.38401  -0.36946  -0.35884  -0.35478
 Alpha  occ. eigenvalues --   -0.31869  -0.31313  -0.29887  -0.29497  -0.27767
 Alpha  occ. eigenvalues --   -0.27158  -0.24134  -0.22720  -0.21099  -0.18721
 Alpha  occ. eigenvalues --   -0.18390  -0.18335  -0.14855  -0.11446  -0.09124
 Alpha  occ. eigenvalues --    0.05312
 Alpha virt. eigenvalues --    0.07063   0.07959   0.08278   0.09728   0.10203
 Alpha virt. eigenvalues --    0.11056   0.11876   0.12038   0.12767   0.12977
 Alpha virt. eigenvalues --    0.13616   0.15400   0.15655   0.15769   0.16920

  Beta  occ. eigenvalues --  -19.02864 -19.01734 -14.20742 -14.16479 -14.16365
  Beta  occ. eigenvalues --  -10.13550 -10.11106 -10.10703 -10.10053 -10.09779
  Beta  occ. eigenvalues --  -10.06519 -10.05963  -0.94581  -0.92464  -0.86232
  Beta  occ. eigenvalues --   -0.77624  -0.74403  -0.66545  -0.61899  -0.57344
  Beta  occ. eigenvalues --   -0.52783  -0.51459  -0.48506  -0.42496  -0.41505
  Beta  occ. eigenvalues --   -0.40765  -0.38328  -0.36898  -0.35800  -0.35434
  Beta  occ. eigenvalues --   -0.31660  -0.31079  -0.29751  -0.29139  -0.27603
  Beta  occ. eigenvalues --   -0.27108  -0.24091  -0.22613  -0.21010  -0.18383
  Beta  occ. eigenvalues --   -0.18017  -0.16757  -0.14789  -0.11186  -0.08528
  Beta virt. eigenvalues --    0.07900   0.08166   0.09095   0.10085   0.10165
  Beta virt. eigenvalues --    0.10534   0.11371   0.12085   0.12230   0.12859
  Beta virt. eigenvalues --    0.13253   0.13763   0.15431   0.15670   0.15752

 Mulliken charges and spin densities:
               1          2
     1  C    0.245007  -0.567497
     2  O   -0.212501   0.067583
     3  C    0.589496  -0.904546
     4  C    0.127372  -0.340309
     5  O   -0.143814   0.029613
     6  C   -0.498087   0.017785
     7  C    0.189048  -0.031754
     8  N   -0.226654   0.101796
     9  C   -0.139338  -0.047644
    10  N   -0.243070   0.093403
    11  C    0.139324   0.117606
    12  N   -0.264702  -0.001861
    13  H   -0.554332   0.670263
    14  H    0.205021  -0.056617
    15  H    0.093973   0.073029
    16  H    0.077021   0.071519
    17  H   -0.679052   0.845563
    18  H   -0.754134   0.918463
    19  H    0.251097  -0.099676
    20  H    0.221846  -0.011287
    21  H    0.100951   0.050644
    22  H    0.244068  -0.002466
    23  H    0.231457   0.006389
 Sum of Mulliken charges =  -1.00000   1.00000

 Dipole moment (field-independent basis, Debye):
    X=             -5.9324    Y=              1.7904    Z=              0.1219  Tot=              6.1979
 Quadrupole moment (field-independent basis, Debye-Ang):
   XX=           -132.7181   YY=           -100.1441   ZZ=            -91.6604
   XY=              2.9919   XZ=             -7.0309   YZ=              2.0858

 Summary of Natural Population Analysis:

                                       Natural Population
                Natural  -----------------------------------------------
    Atom  No    Charge         Core      Valence    Rydberg      Total
 -----------------------------------------------------------------------
      C    1   -0.09895      0.99960     2.08995    0.00939     3.09895
      O    2   -0.30366      0.99989     3.29335    0.01042     4.30366
      C    3   -0.02063      0.99957     2.00651    0.01455     3.02063
      C    4   -0.02117      0.99956     2.00787    0.01374     3.02117
      O    5   -0.29035      0.99986     3.27997    0.01052     4.29035
      C    6    0.08312      0.99934     1.90462    0.01292     2.91688
      C    7    0.05560      0.99955     1.93202    0.01283     2.94440
      N    8   -0.24935      0.99967     2.73762    0.01205     3.74935
      C    9    0.27298      0.99965     1.70881    0.01856     2.72702
      N   10   -0.25027      0.99968     2.73783    0.01277     3.75027
      C   11    0.06824      0.99956     1.91786    0.01433     2.93176
      N   12   -0.40602      0.99970     2.89661    0.00971     3.90602
      H   13    0.07857      0.00000     0.41993    0.00150     0.42143
      H   14    0.08756      0.00000     0.41150    0.00094     0.41244
      H   15    0.08782      0.00000     0.41073    0.00145     0.41218
      H   16    0.08333      0.00000     0.41423    0.00243     0.41667
      H   17    0.09107      0.00000     0.40648    0.00245     0.40893
      H   18    0.09031      0.00000     0.40748    0.00220     0.40969
      H   19    0.08711      0.00000     0.41095    0.00194     0.41289
      H   20    0.09394      0.00000     0.40303    0.00303     0.40606
      H   21    0.08529      0.00000     0.41295    0.00176     0.41471
      H   22    0.18749      0.00000     0.31123    0.00128     0.31251
      H   23    0.18795      0.00000     0.31076    0.00130     0.31205
 =======================================================================
   * Total *   -0.00000     11.99563    32.83230    0.17207    45.00000

 Normal termination of Gaussian 16 at Wed Dec  9 17:11:13 2020.
