 Gaussian 16, Revision A.03,

 -----------------------------------------------------------
 # opt freq B3LYP/6-31G(d) empiricaldispersion=gd3bj scf=xqc
 -----------------------------------------------------------

 -------------------------------
 CID_150095854_JID_8073_neutraal
 -------------------------------
 Symbolic Z-matrix:
 Charge =  0 Multiplicity = 1

 SCF Done:  E(RB3LYP) =  -749.695267804     A.U. after   16 cycles
 SCF Done:  E(RB3LYP) =  -749.698998601     A.U. after   15 cycles
 SCF Done:  E(RB3LYP) =  -749.701828075     A.U. after   14 cycles
 SCF Done:  E(RB3LYP) =  -749.703011007     A.U. after   13 cycles
 SCF Done:  E(RB3LYP) =  -749.703941671     A.U. after   14 cycles
 SCF Done:  E(RB3LYP) =  -749.703924303     A.U. after   14 cycles
 SCF Done:  E(RB3LYP) =  -749.704481822     A.U. after   13 cycles
 SCF Done:  E(RB3LYP) =  -749.704681659     A.U. after   11 cycles
 SCF Done:  E(RB3LYP) =  -749.704902181     A.U. after   13 cycles
 SCF Done:  E(RB3LYP) =  -749.704975504     A.U. after   12 cycles
 SCF Done:  E(RB3LYP) =  -749.704983782     A.U. after   10 cycles
 SCF Done:  E(RB3LYP) =  -749.704984654     A.U. after    8 cycles
 SCF Done:  E(RB3LYP) =  -749.704984637     A.U. after    7 cycles
 SCF Done:  E(RB3LYP) =  -749.704984612     A.U. after    8 cycles
 SCF Done:  E(RB3LYP) =  -749.704984591     A.U. after    7 cycles
 Optimization completed.
    -- Stationary point found.
 Normal termination of Gaussian 16 at Fri Dec 11 18:55:30 2020.

 --------------------------------------------------------------------
 #N Geom=AllCheck Guess=TCheck SCRF=Check GenChk RB3LYP/6-31G(d) Freq
 --------------------------------------------------------------------

 Structure from the checkpoint file:  "JID_8073.chk"
 -------------------------------
 CID_150095854_JID_8073_neutraal
 -------------------------------
 Charge =  0 Multiplicity = 1

 SCF Done:  E(RB3LYP) =  -749.704984591     A.U. after    1 cycles

  Exact polarizability: 186.534  -6.406 160.299  -5.796  16.997 160.435
 Approx polarizability: 272.858 -26.785 232.043 -22.763  48.581 275.420

                      1                      2                      3
                      A                      A                      A
 Frequencies --     23.8973                33.7193                57.5921
 Red. masses --      8.1719                 3.6327                 4.6013
 Frc consts  --      0.0027                 0.0024                 0.0090
 IR Inten    --      0.4838                 0.1544                 0.1137

                      4                      5                      6
                      A                      A                      A
 Frequencies --     69.2320               118.7253               138.8545
 Red. masses --      4.6980                 2.8446                 2.9903
 Frc consts  --      0.0133                 0.0236                 0.0340
 IR Inten    --      0.3238                 0.3139                 0.4434

                      7                      8                      9
                      A                      A                      A
 Frequencies --    164.8369               168.9055               182.5476
 Red. masses --      3.8506                 3.0396                 4.9344
 Frc consts  --      0.0616                 0.0511                 0.0969
 IR Inten    --      0.4907                 0.5343                 0.8889

                     10                     11                     12
                      A                      A                      A
 Frequencies --    242.2335               249.4355               259.8165
 Red. masses --      2.1199                 1.1316                 2.3196
 Frc consts  --      0.0733                 0.0415                 0.0923
 IR Inten    --      0.7915                 0.1399                 0.2011

                     13                     14                     15
                      A                      A                      A
 Frequencies --    283.4689               303.9624               311.9860
 Red. masses --      1.1663                 2.5563                 1.9712
 Frc consts  --      0.0552                 0.1392                 0.1130
 IR Inten    --      0.1316                 1.0215                 0.1212

                     16                     17                     18
                      A                      A                      A
 Frequencies --    322.5121               344.1207               352.4957
 Red. masses --      3.6973                 2.3362                 2.6530
 Frc consts  --      0.2266                 0.1630                 0.1942
 IR Inten    --      0.5242                 0.4297                 2.0572

                     19                     20                     21
                      A                      A                      A
 Frequencies --    377.8514               411.8959               434.7252
 Red. masses --      2.3730                 2.4610                 2.5897
 Frc consts  --      0.1996                 0.2460                 0.2884
 IR Inten    --      0.6943                 0.3043                 0.5172

                     22                     23                     24
                      A                      A                      A
 Frequencies --    454.1901               487.3839               496.2029
 Red. masses --      2.8410                 2.9825                 2.6234
 Frc consts  --      0.3453                 0.4174                 0.3806
 IR Inten    --      0.0340                 1.3775                 1.3633

                     25                     26                     27
                      A                      A                      A
 Frequencies --    509.1659               529.9511               566.9515
 Red. masses --      2.0819                 3.2326                13.0073
 Frc consts  --      0.3180                 0.5349                 2.4634
 IR Inten    --      1.4369                 0.1186                11.1245

                     28                     29                     30
                      A                      A                      A
 Frequencies --    574.7433               627.6485               653.1342
 Red. masses --      2.1936                 2.1586                 4.2399
 Frc consts  --      0.4269                 0.5010                 1.0656
 IR Inten    --      5.2470                20.2114                10.2611

                     31                     32                     33
                      A                      A                      A
 Frequencies --    679.1340               766.7355               773.7877
 Red. masses --      5.5088                 2.9246                 2.3563
 Frc consts  --      1.4970                 1.0130                 0.8312
 IR Inten    --      8.8203                 1.2810                 7.0025

                     34                     35                     36
                      A                      A                      A
 Frequencies --    804.4600               821.8808               860.6903
 Red. masses --      1.5136                 2.3535                 2.4094
 Frc consts  --      0.5771                 0.9367                 1.0516
 IR Inten    --      0.4371                 1.8368                 7.0087

                     37                     38                     39
                      A                      A                      A
 Frequencies --    864.9130               879.1771               894.8676
 Red. masses --      1.5772                 1.6885                 2.1391
 Frc consts  --      0.6951                 0.7690                 1.0092
 IR Inten    --      5.5267                 5.3414                 2.2649

                     40                     41                     42
                      A                      A                      A
 Frequencies --    912.8599               931.8592               939.6061
 Red. masses --      2.8514                 3.1490                 2.2670
 Frc consts  --      1.4000                 1.6111                 1.1792
 IR Inten    --      3.1284                 1.4630                 2.5721

                     43                     44                     45
                      A                      A                      A
 Frequencies --    949.5442               960.9939               961.8636
 Red. masses --      1.9655                 1.5069                 1.7224
 Frc consts  --      1.0441                 0.8199                 0.9389
 IR Inten    --      4.3180                 2.9883                 3.6779

                     46                     47                     48
                      A                      A                      A
 Frequencies --    979.2708               982.2292              1004.2612
 Red. masses --      1.2559                 2.3336                 2.0801
 Frc consts  --      0.7096                 1.3265                 1.2360
 IR Inten    --      0.1347                16.1446                 0.7310

                     49                     50                     51
                      A                      A                      A
 Frequencies --   1026.0432              1032.5386              1048.6914
 Red. masses --      1.8889                 1.7009                 1.4298
 Frc consts  --      1.1717                 1.0684                 0.9264
 IR Inten    --      7.6649                 4.6970                 2.2666

                     52                     53                     54
                      A                      A                      A
 Frequencies --   1055.6992              1091.3439              1098.3898
 Red. masses --      1.9099                 1.8097                 2.6707
 Frc consts  --      1.2541                 1.2699                 1.8984
 IR Inten    --      0.5362                 0.3336                 2.8690

                     55                     56                     57
                      A                      A                      A
 Frequencies --   1107.4147              1130.0806              1161.6415
 Red. masses --      2.5131                 1.6749                 1.7708
 Frc consts  --      1.8158                 1.2603                 1.4079
 IR Inten    --      0.9217                 1.3646                 1.5439

                     58                     59                     60
                      A                      A                      A
 Frequencies --   1176.3562              1207.7754              1215.4908
 Red. masses --      1.4845                 1.6769                 1.4514
 Frc consts  --      1.2103                 1.4412                 1.2634
 IR Inten    --      1.0819                 2.3825                 2.2170

                     61                     62                     63
                      A                      A                      A
 Frequencies --   1224.0303              1239.1693              1267.0236
 Red. masses --      1.5840                 2.0608                 1.6121
 Frc consts  --      1.3982                 1.8644                 1.5248
 IR Inten    --      0.5000                 2.1009                 0.3416

                     64                     65                     66
                      A                      A                      A
 Frequencies --   1274.4230              1309.2394              1317.0422
 Red. masses --      1.4107                 1.2826                 1.5115
 Frc consts  --      1.3499                 1.2953                 1.5448
 IR Inten    --      2.4825                 0.2288                 3.1571

                     67                     68                     69
                      A                      A                      A
 Frequencies --   1321.1656              1337.0600              1343.7425
 Red. masses --      1.4700                 1.6652                 2.0849
 Frc consts  --      1.5117                 1.7540                 2.2180
 IR Inten    --      1.4264                35.8135                89.3812

                     70                     71                     72
                      A                      A                      A
 Frequencies --   1366.6922              1373.8559              1387.9938
 Red. masses --      1.5731                 1.4585                 1.5553
 Frc consts  --      1.7312                 1.6219                 1.7653
 IR Inten    --     27.1572                 4.5390                 2.5507

                     73                     74                     75
                      A                      A                      A
 Frequencies --   1393.1159              1398.6999              1405.8724
 Red. masses --      1.6284                 1.5499                 1.4599
 Frc consts  --      1.8620                 1.7865                 1.7000
 IR Inten    --      7.7807                 8.8839                 1.1654

                     76                     77                     78
                      A                      A                      A
 Frequencies --   1412.8537              1414.5693              1422.1885
 Red. masses --      1.3972                 1.4487                 1.2294
 Frc consts  --      1.6432                 1.7080                 1.4650
 IR Inten    --      1.8851                 4.2451                 6.4137

                     79                     80                     81
                      A                      A                      A
 Frequencies --   1443.1801              1455.7404              1495.7535
 Red. masses --      1.2690                 1.6669                 1.0913
 Frc consts  --      1.5572                 2.0813                 1.4385
 IR Inten    --      1.6285                 1.7301                 1.4041

                     82                     83                     84
                      A                      A                      A
 Frequencies --   1512.4866              1514.1736              1515.3850
 Red. masses --      1.0839                 1.0477                 1.0871
 Frc consts  --      1.4609                 1.4152                 1.4709
 IR Inten    --      2.0170                 0.4960                 3.7735

                     85                     86                     87
                      A                      A                      A
 Frequencies --   1518.2041              1518.8239              1522.5620
 Red. masses --      1.0813                 1.0600                 1.0898
 Frc consts  --      1.4684                 1.4407                 1.4885
 IR Inten    --      0.4238                 4.2887                 6.8205

                     88                     89                     90
                      A                      A                      A
 Frequencies --   1527.5407              1530.9857              1537.7923
 Red. masses --      1.0898                 1.0543                 1.0603
 Frc consts  --      1.4982                 1.4560                 1.4774
 IR Inten    --     12.9690                 2.8199                 8.6654

                     91                     92                     93
                      A                      A                      A
 Frequencies --   1541.7419              1663.5555              1729.6394
 Red. masses --      1.0942                 7.6136                 6.5277
 Frc consts  --      1.5324                12.4141                11.5058
 IR Inten    --      8.2157                 1.1602                 3.7603

                     94                     95                     96
                      A                      A                      A
 Frequencies --   2257.8317              2985.1791              3021.8181
 Red. masses --     13.6553                 1.0709                 1.0672
 Frc consts  --     41.0143                 5.6224                 5.7417
 IR Inten    --    541.0166                34.3123                23.2716

                     97                     98                     99
                      A                      A                      A
 Frequencies --   3024.2782              3029.6201              3037.9012
 Red. masses --      1.0700                 1.0702                 1.0357
 Frc consts  --      5.7660                 5.7874                 5.6318
 IR Inten    --      6.2018                27.0671                23.3572

                    100                    101                    102
                      A                      A                      A
 Frequencies --   3042.4019              3042.6859              3043.4195
 Red. masses --      1.0592                 1.0439                 1.0627
 Frc consts  --      5.7767                 5.6939                 5.7992
 IR Inten    --     65.8509                20.4412                33.9502

                    103                    104                    105
                      A                      A                      A
 Frequencies --   3052.6742              3066.7726              3074.8302
 Red. masses --      1.0636                 1.0891                 1.0936
 Frc consts  --      5.8398                 6.0353                 6.0920
 IR Inten    --     26.4486                32.0131                64.3812

                    106                    107                    108
                      A                      A                      A
 Frequencies --   3083.6451              3091.7333              3094.7458
 Red. masses --      1.1032                 1.0936                 1.0935
 Frc consts  --      6.1806                 6.1592                 6.1707
 IR Inten    --     49.1151                23.6521                24.8799

                    109                    110                    111
                      A                      A                      A
 Frequencies --   3100.4351              3104.8819              3109.7828
 Red. masses --      1.0995                 1.1013                 1.1013
 Frc consts  --      6.2270                 6.2552                 6.2750
 IR Inten    --     72.0488                 0.6678                39.3954

                    112                    113                    114
                      A                      A                      A
 Frequencies --   3110.9520              3125.3345              3134.8475
 Red. masses --      1.1015                 1.0976                 1.1013
 Frc consts  --      6.2808                 6.3169                 6.3766
 IR Inten    --     51.1989                25.0287                17.5056

                    115                    116                    117
                      A                      A                      A
 Frequencies --   3175.1779              3193.0548              3198.1443
 Red. masses --      1.0848                 1.0887                 1.0957
 Frc consts  --      6.4437                 6.5400                 6.6030
 IR Inten    --      8.7968                18.5573                27.6051

 - Thermochemistry -
 -------------------
 Temperature   298.150 Kelvin.  Pressure   1.00000 Atm.
 Atom     1 has atomic number  6 and mass  12.00000

 Molecular mass:   245.18920 amu.
 Principal axes and moments of inertia in atomic units:
                           1         2         3
     Eigenvalues --  3726.599594921.125486368.87369
           X            0.99542   0.09479   0.01260
           Y           -0.09471   0.99548  -0.00658
           Z           -0.01317   0.00535   0.99990
 This molecule is an asymmetric top.
 Rotational symmetry number  1.
 Warning -- assumption of classical behavior for rotation
           may cause significant error
 Rotational temperatures (Kelvin)      0.02324     0.01760     0.01360
 Rotational constants (GHZ):           0.48429     0.36673     0.28337
 Zero-point vibrational energy     954083.1 (Joules/Mol)
                                  228.03133 (Kcal/Mol)
 Warning -- explicit consideration of  28 degrees of freedom as
           vibrations may cause significant error
 Vibrational temperatures:     34.38    48.51    82.86    99.61   170.82
          (Kelvin)            199.78   237.16   243.02   262.65   348.52
                              358.88   373.82   407.85   437.33   448.88
                              464.02   495.11   507.16   543.64   592.63
                              625.47   653.48   701.24   713.93   732.58
                              762.48   815.72   826.93   903.05   939.71
                              977.12  1103.16  1113.31  1157.44  1182.50
                             1238.34  1244.42  1264.94  1287.51  1313.40
                             1340.74  1351.88  1366.18  1382.66  1383.91
                             1408.95  1413.21  1444.91  1476.25  1485.59
                             1508.83  1518.92  1570.20  1580.34  1593.32
                             1625.93  1671.34  1692.51  1737.72  1748.82
                             1761.11  1782.89  1822.96  1833.61  1883.70
                             1894.93  1900.86  1923.73  1933.35  1966.37
                             1976.67  1997.01  2004.38  2012.42  2022.74
                             2032.78  2035.25  2046.21  2076.41  2094.49
                             2152.06  2176.13  2178.56  2180.30  2184.36
                             2185.25  2190.63  2197.79  2202.75  2212.54
                             2218.22  2393.49  2488.57  3248.52  4295.01
                             4347.72  4351.26  4358.95  4370.86  4377.34
                             4377.75  4378.80  4392.12  4412.40  4423.99
                             4436.68  4448.31  4452.65  4460.83  4467.23
                             4474.28  4475.97  4496.66  4510.35  4568.37
                             4594.09  4601.42

 Zero-point correction=                           0.363391 (Hartree/Particle)
 Thermal correction to Energy=                    0.380903
 Thermal correction to Enthalpy=                  0.381848
 Thermal correction to Gibbs Free Energy=         0.317963
 Sum of electronic and zero-point Energies=           -749.341594
 Sum of electronic and thermal Energies=              -749.324081
 Sum of electronic and thermal Enthalpies=            -749.323137
 Sum of electronic and thermal Free Energies=         -749.387021

                     E (Thermal)             CV                S
                      KCal/Mol        Cal/Mol-Kelvin    Cal/Mol-Kelvin
 Total                  239.021             69.347            134.456
 Electronic               0.000              0.000              0.000
 Translational            0.889              2.981             42.391
 Rotational               0.889              2.981             33.124
 Vibrational            237.243             63.385             58.941
 Vibration     1          0.593              1.985              6.281
 Vibration     2          0.594              1.983              5.598
 Vibration     3          0.596              1.974              4.538
 Vibration     4          0.598              1.969              4.175
 Vibration     5          0.609              1.934              3.121
 Vibration     6          0.614              1.914              2.820
 Vibration     7          0.623              1.886              2.494
 Vibration     8          0.625              1.881              2.448
 Vibration     9          0.630              1.864              2.302
 Vibration    10          0.658              1.776              1.786
 Vibration    11          0.662              1.764              1.735
 Vibration    12          0.668              1.746              1.663
 Vibration    13          0.682              1.704              1.513
 Vibration    14          0.695              1.666              1.395
 Vibration    15          0.700              1.651              1.352
 Vibration    16          0.708              1.630              1.297
 Vibration    17          0.723              1.587              1.193
 Vibration    18          0.729              1.570              1.155
 Vibration    19          0.748              1.517              1.048
 Vibration    20          0.776              1.444              0.920
 Vibration    21          0.795              1.395              0.843
 Vibration    22          0.813              1.352              0.783
 Vibration    23          0.843              1.278              0.690
 Vibration    24          0.852              1.258              0.668
 Vibration    25          0.864              1.230              0.636
 Vibration    26          0.885              1.184              0.587
 Vibration    27          0.923              1.103              0.510
 Vibration    28          0.931              1.086              0.495

 Optimization completed.
    -- Stationary point found.
 Normal termination of Gaussian 16 at Fri Dec 11 19:20:45 2020.

 ----------------------------------------------------------------------
 # B3LYP/6-311++G(d,p) empiricaldispersion=gd3bj scf=xqc pop=npa geom=c
 heck
 ----------------------------------------------------------------------

 ---------------------------------------
 CID_150095854_JID_8073_Energie_neutraal
 ---------------------------------------
 Structure from the checkpoint file:  "JID_8073.chk"
 Charge =  0 Multiplicity = 1

 SCF Done:  E(RB3LYP) =  -749.902774204     A.U. after   15 cycles
 Normal termination of Gaussian 16 at Fri Dec 11 19:32:40 2020.

 ----------------------------------------------------------------------
 # B3LYP/6-311++G(d,p) empiricaldispersion=gd3bj scf=xqc pop=npa geom=c
 heck
 ----------------------------------------------------------------------

 -------------------------------------
 CID_150095854_JID_8073_Energie_kation
 -------------------------------------
 Structure from the checkpoint file:  "JID_8073.chk"
 Charge =  1 Multiplicity = 2

 SCF Done:  E(UB3LYP) =  -749.620940061     A.U. after   26 cycles
 Normal termination of Gaussian 16 at Fri Dec 11 20:02:37 2020.
 Gaussian 16:  ES64L-G16RevA.03 25-Dec-2016

 ----------------------------------------------------------------------
 # B3LYP/6-311++G(d,p) empiricaldispersion=gd3bj scf=xqc pop=npa geom=c
 heck
 ----------------------------------------------------------------------

 ------------------------------------
 CID_150095854_JID_8073_Energie_anion
 ------------------------------------
 Structure from the checkpoint file:  "JID_8073.chk"
 Charge = -1 Multiplicity = 2

                         Standard orientation:
 ---------------------------------------------------------------------
 Center     Atomic      Atomic             Coordinates (Angstroms)
 Number     Number       Type             X           Y           Z
 ---------------------------------------------------------------------
      1          6           0        2.967772    1.623796    0.143996
      2          6           0        2.593509    0.182066    0.555270
      3          6           0        3.138525   -0.827111   -0.477449
      4          6           0        2.331809   -0.833836   -1.748080
      5          6           0        1.018153   -0.567042   -1.718378
      6          6           0        0.327311   -0.230968   -0.460116
      7          6           0        1.079093    0.096811    0.605830
      8          6           0       -1.202306   -0.182967   -0.469139
      9          6           0       -1.798677   -1.437664   -1.160590
     10          6           0       -1.558936   -2.716727   -0.351658
     11          6           0       -2.178599   -2.602328    1.045657
     12          6           0       -1.647857   -1.365868    1.780200
     13          6           0       -1.825186   -0.089794    0.943397
     14          6           0       -1.639712    1.047025   -1.306531
     15          7           0       -1.094132    2.328485   -0.811292
     16          7           0       -1.767177    2.920030    0.034391
     17          7           0       -2.296151    3.572250    0.811134
     18          6           0        3.188979   -0.125337    1.937399
     19          1           0        2.570666    1.860090   -0.847560
     20          1           0        4.058236    1.747983    0.124200
     21          1           0        2.554881    2.348273    0.854428
     22          1           0        4.193269   -0.607230   -0.684189
     23          1           0        3.116556   -1.840273   -0.040966
     24          1           0        2.821322   -1.097636   -2.682384
     25          1           0        0.443024   -0.600333   -2.639139
     26          1           0        0.617759    0.407677    1.538306
     27          1           0       -2.881631   -1.284478   -1.274649
     28          1           0       -1.395714   -1.549111   -2.172590
     29          1           0       -0.478557   -2.891588   -0.264476
     30          1           0       -1.978637   -3.576713   -0.887550
     31          1           0       -1.975820   -3.507321    1.631216
     32          1           0       -3.271777   -2.528020    0.948065
     33          1           0       -0.585835   -1.513082    2.005407
     34          1           0       -2.162304   -1.242693    2.741093
     35          1           0       -1.429245    0.773979    1.486538
     36          1           0       -2.901060    0.098542    0.816937
     37          1           0       -1.265602    0.953710   -2.328865
     38          1           0       -2.736107    1.088227   -1.352714
     39          1           0        4.283196   -0.059128    1.913436
     40          1           0        2.826473    0.587255    2.687933
     41          1           0        2.915843   -1.133820    2.269030
 ---------------------------------------------------------------------

 SCF Done:  E(UB3LYP) =  -749.891060714     A.U. after   33 cycles
 SCF Done:  E(UB3LYP) =  -749.891061124     a.u. after    2 cycles

 The electronic state is 2-A.
 Alpha  occ. eigenvalues --  -14.35972 -14.25955 -14.24485 -10.11021 -10.08420
 Alpha  occ. eigenvalues --  -10.07889 -10.06252 -10.06199 -10.06136 -10.06119
 Alpha  occ. eigenvalues --  -10.05970 -10.05843 -10.05655 -10.05576 -10.05145
 Alpha  occ. eigenvalues --  -10.04999 -10.04917 -10.04103  -1.02404  -0.86667
 Alpha  occ. eigenvalues --   -0.75433  -0.73131  -0.68329  -0.66296  -0.64056
 Alpha  occ. eigenvalues --   -0.62718  -0.59835  -0.58346  -0.56842  -0.51566
 Alpha  occ. eigenvalues --   -0.50852  -0.48007  -0.46220  -0.43357  -0.42335
 Alpha  occ. eigenvalues --   -0.40566  -0.40239  -0.39142  -0.36996  -0.36061
 Alpha  occ. eigenvalues --   -0.35522  -0.34300  -0.34058  -0.33107  -0.32897
 Alpha  occ. eigenvalues --   -0.32568  -0.31141  -0.30397  -0.29514  -0.28462
 Alpha  occ. eigenvalues --   -0.28215  -0.27470  -0.27072  -0.25937  -0.25834
 Alpha  occ. eigenvalues --   -0.24869  -0.23847  -0.23546  -0.22590  -0.21372
 Alpha  occ. eigenvalues --   -0.21238  -0.20071  -0.19185  -0.18856  -0.18034
 Alpha  occ. eigenvalues --   -0.14226  -0.10367   0.04748
 Alpha virt. eigenvalues --    0.06277   0.06634   0.07105   0.07777   0.08237
 Alpha virt. eigenvalues --    0.08669   0.09023   0.09611   0.10160   0.10417
 Alpha virt. eigenvalues --    0.10873   0.11388   0.11489   0.11711   0.12181

  Beta  occ. eigenvalues --  -14.35799 -14.25779 -14.24503 -10.10966 -10.08426
  Beta  occ. eigenvalues --  -10.07897 -10.06246 -10.06203 -10.06124 -10.06107
  Beta  occ. eigenvalues --  -10.05966 -10.05824 -10.05646 -10.05552 -10.05117
  Beta  occ. eigenvalues --  -10.04943 -10.04793 -10.03924  -1.02107  -0.86537
  Beta  occ. eigenvalues --   -0.75340  -0.73052  -0.68265  -0.66158  -0.64020
  Beta  occ. eigenvalues --   -0.62521  -0.59745  -0.58303  -0.56731  -0.51457
  Beta  occ. eigenvalues --   -0.50795  -0.47897  -0.46042  -0.43290  -0.42242
  Beta  occ. eigenvalues --   -0.40164  -0.39948  -0.39001  -0.36888  -0.36006
  Beta  occ. eigenvalues --   -0.35394  -0.34049  -0.33958  -0.33031  -0.32798
  Beta  occ. eigenvalues --   -0.32446  -0.31047  -0.30256  -0.29439  -0.28399
  Beta  occ. eigenvalues --   -0.28165  -0.27404  -0.27016  -0.25889  -0.25773
  Beta  occ. eigenvalues --   -0.24819  -0.23795  -0.23450  -0.22530  -0.21307
  Beta  occ. eigenvalues --   -0.21169  -0.19947  -0.18848  -0.18797  -0.17644
  Beta  occ. eigenvalues --   -0.14160  -0.09628
  Beta virt. eigenvalues --    0.06610   0.07276   0.07619   0.07953   0.08293
  Beta virt. eigenvalues --    0.08684   0.09076   0.09307   0.09838   0.10264
  Beta virt. eigenvalues --    0.10418   0.11062   0.11590   0.11635   0.11839

 Mulliken charges and spin densities:
               1          2
     1  C   -0.429974  -0.376094
     2  C    0.376561   0.569309
     3  C   -0.344126  -0.230600
     4  C    0.003480  -0.319859
     5  C   -0.566031   0.265424
     6  C    0.659388  -0.209736
     7  C   -0.419589   0.006191
     8  C    0.517126  -0.136117
     9  C   -0.101752  -0.110084
    10  C   -0.264311  -0.138264
    11  C    0.872785  -1.413407
    12  C   -0.544045   0.245613
    13  C   -0.355649  -0.071203
    14  C   -0.410276   0.007388
    15  N    0.321914  -0.028962
    16  N   -0.014254   0.091747
    17  N   -0.417849   0.101488
    18  C   -0.262073  -0.283400
    19  H    0.198458  -0.036267
    20  H   -0.070161   0.199762
    21  H    0.120301   0.025448
    22  H    0.137060   0.006484
    23  H   -0.012274   0.154899
    24  H   -0.221689   0.380145
    25  H   -0.005162   0.117753
    26  H    0.154096   0.021453
    27  H   -0.144375   0.300072
    28  H   -0.023480   0.172788
    29  H    0.326146  -0.196722
    30  H   -0.704198   0.885293
    31  H   -0.329648   0.500770
    32  H    0.044479   0.071379
    33  H    0.208239  -0.101457
    34  H   -0.032105   0.199309
    35  H    0.108456   0.013916
    36  H    0.020928   0.142434
    37  H    0.203864   0.006210
    38  H    0.161651   0.007264
    39  H    0.080689   0.061925
    40  H    0.071732   0.048411
    41  H    0.085669   0.049297
 Sum of Mulliken charges =  -1.00000   1.00000

 Dipole moment (field-independent basis, Debye):
    X=              2.1560    Y=              2.2115    Z=              0.6188  Tot=              3.1500
 Quadrupole moment (field-independent basis, Debye-Ang):
   XX=           -165.4359   YY=           -174.3756   ZZ=           -141.6114
   XY=             -9.8175   XZ=              7.6666   YZ=             -6.0921

 Summary of Natural Population Analysis:

                                       Natural Population
                Natural  -----------------------------------------------
    Atom  No    Charge         Core      Valence    Rydberg      Total
 -----------------------------------------------------------------------
      C    1   -0.28081      0.99963     2.27397    0.00721     3.28081
      C    2   -0.05651      0.99957     2.04745    0.00949     3.05651
      C    3   -0.20442      0.99959     2.19444    0.01038     3.20442
      C    4   -0.05830      0.99955     2.04870    0.01006     3.05830
      C    5   -0.11347      0.99949     2.10361    0.01038     3.11347
      C    6   -0.02358      0.99944     2.01148    0.01267     3.02358
      C    7   -0.04997      0.99945     2.03978    0.01074     3.04997
      C    8   -0.04574      0.99952     2.03387    0.01235     3.04574
      C    9   -0.18785      0.99960     2.17750    0.01075     3.18785
      C   10   -0.19112      0.99962     2.18208    0.00941     3.19112
      C   11   -0.18719      0.99963     2.17921    0.00835     3.18719
      C   12   -0.19031      0.99962     2.18262    0.00807     3.19031
      C   13   -0.19283      0.99960     2.18333    0.00990     3.19283
      C   14   -0.08129      0.99953     2.06904    0.01271     3.08129
      N   15   -0.18424      0.99970     2.67101    0.01353     3.68424
      N   16    0.12852      0.99970     2.35626    0.01552     3.37148
      N   17   -0.04634      0.99982     2.53404    0.01248     3.54634
      C   18   -0.27599      0.99964     2.27094    0.00541     3.27599
      H   19    0.10756      0.00000     0.39160    0.00084     0.39244
      H   20    0.09259      0.00000     0.40652    0.00089     0.40741
      H   21    0.09782      0.00000     0.40152    0.00066     0.40218
      H   22    0.09907      0.00000     0.39999    0.00093     0.40093
      H   23    0.10312      0.00000     0.39574    0.00115     0.39688
      H   24    0.09202      0.00000     0.40711    0.00087     0.40798
      H   25    0.09536      0.00000     0.40304    0.00161     0.40464
      H   26    0.09303      0.00000     0.40576    0.00121     0.40697
      H   27    0.09534      0.00000     0.40336    0.00130     0.40466
      H   28    0.10243      0.00000     0.39652    0.00105     0.39757
      H   29    0.09930      0.00000     0.39930    0.00140     0.40070
      H   30    0.10004      0.00000     0.39814    0.00182     0.39996
      H   31    0.09727      0.00000     0.40175    0.00098     0.40273
      H   32    0.09131      0.00000     0.40732    0.00137     0.40869
      H   33    0.09942      0.00000     0.39916    0.00141     0.40058
      H   34    0.09547      0.00000     0.40368    0.00086     0.40453
      H   35    0.10261      0.00000     0.39543    0.00196     0.39739
      H   36    0.09684      0.00000     0.40185    0.00131     0.40316
      H   37    0.09945      0.00000     0.39939    0.00116     0.40055
      H   38    0.09065      0.00000     0.40825    0.00110     0.40935
      H   39    0.09504      0.00000     0.40422    0.00074     0.40496
      H   40    0.09659      0.00000     0.40262    0.00079     0.40341
      H   41    0.09909      0.00000     0.40004    0.00087     0.40091
 =======================================================================
   * Total *   -0.00000     17.99268    48.79163    0.21569    67.00000

 Normal termination of Gaussian 16 at Fri Dec 11 21:16:25 2020.
