 Gaussian 16, Revision A.03,

 -----------------------------------------------------------
 # opt freq B3LYP/6-31G(d) empiricaldispersion=gd3bj scf=xqc
 -----------------------------------------------------------

 -------------------------------
 CID_130677304_JID_3357_neutraal
 -------------------------------
 Symbolic Z-matrix:
 Charge =  0 Multiplicity = 1

 SCF Done:  E(RB3LYP) =  -626.162750358     A.U. after   15 cycles
 SCF Done:  E(RB3LYP) =  -626.168311678     A.U. after   13 cycles
 SCF Done:  E(RB3LYP) =  -626.167616799     A.U. after   13 cycles
 SCF Done:  E(RB3LYP) =  -626.169573441     A.U. after   11 cycles
 SCF Done:  E(RB3LYP) =  -626.170039994     A.U. after   12 cycles
 SCF Done:  E(RB3LYP) =  -626.170450120     A.U. after   12 cycles
 SCF Done:  E(RB3LYP) =  -626.170740703     A.U. after   12 cycles
 SCF Done:  E(RB3LYP) =  -626.171044308     A.U. after   12 cycles
 SCF Done:  E(RB3LYP) =  -626.171199321     A.U. after   12 cycles
 SCF Done:  E(RB3LYP) =  -626.171235755     A.U. after   11 cycles
 SCF Done:  E(RB3LYP) =  -626.171417732     A.U. after   10 cycles
 SCF Done:  E(RB3LYP) =  -626.171423456     A.U. after   10 cycles
 SCF Done:  E(RB3LYP) =  -626.171425040     A.U. after    9 cycles
 SCF Done:  E(RB3LYP) =  -626.171425551     A.U. after    8 cycles
 SCF Done:  E(RB3LYP) =  -626.171425794     A.U. after    8 cycles
 Optimization completed.
    -- Stationary point found.
 Normal termination of Gaussian 16 at Wed Dec  9 23:04:57 2020.

 --------------------------------------------------------------------
 #N Geom=AllCheck Guess=TCheck SCRF=Check GenChk RB3LYP/6-31G(d) Freq
 --------------------------------------------------------------------

 Structure from the checkpoint file:  "JID_3357.chk"
 -------------------------------
 CID_130677304_JID_3357_neutraal
 -------------------------------
 Charge =  0 Multiplicity = 1

 SCF Done:  E(RB3LYP) =  -626.171425794     A.U. after    1 cycles

  Exact polarizability: 117.011   8.579  92.217  -5.064   5.976  90.352
 Approx polarizability: 165.802  24.043 139.721 -10.093  11.043 145.057

                      1                      2                      3
                      A                      A                      A
 Frequencies --     48.8449                56.8850                81.7518
 Red. masses --      4.1382                 4.9933                 1.4610
 Frc consts  --      0.0058                 0.0095                 0.0058
 IR Inten    --      0.3988                 0.9499                 0.1153

                      4                      5                      6
                      A                      A                      A
 Frequencies --     95.7791               114.8317               123.1893
 Red. masses --      5.5317                 2.6504                 2.6154
 Frc consts  --      0.0299                 0.0206                 0.0234
 IR Inten    --      2.3710                 0.5338                 0.0381

                      7                      8                      9
                      A                      A                      A
 Frequencies --    192.2483               207.6065               297.3498
 Red. masses --      3.3244                 3.0002                 4.6124
 Frc consts  --      0.0724                 0.0762                 0.2403
 IR Inten    --      2.1035                 1.7285                 0.6553

                     10                     11                     12
                      A                      A                      A
 Frequencies --    337.8161               380.9053               413.0987
 Red. masses --      3.3650                 5.3909                 3.8587
 Frc consts  --      0.2263                 0.4608                 0.3880
 IR Inten    --      4.2313                13.8799                10.3961

                     13                     14                     15
                      A                      A                      A
 Frequencies --    427.9007               511.4860               537.8573
 Red. masses --      3.4234                 4.1099                 1.8060
 Frc consts  --      0.3693                 0.6335                 0.3078
 IR Inten    --      5.8068                 9.3339                47.0411

                     16                     17                     18
                      A                      A                      A
 Frequencies --    623.3278               633.8817               682.0945
 Red. masses --      3.3590                 3.2358                 2.4077
 Frc consts  --      0.7689                 0.7660                 0.6600
 IR Inten    --      4.4345                20.8500                 5.0034

                     19                     20                     21
                      A                      A                      A
 Frequencies --    713.9866               752.5946               763.1408
 Red. masses --      1.6922                 3.3878                 3.8905
 Frc consts  --      0.5083                 1.1306                 1.3349
 IR Inten    --     26.3769                22.6772                27.8403

                     22                     23                     24
                      A                      A                      A
 Frequencies --    796.7910               823.9408               851.8802
 Red. masses --      1.2856                 1.4664                 1.3324
 Frc consts  --      0.4809                 0.5865                 0.5697
 IR Inten    --      2.1753                14.6210                16.2152

                     25                     26                     27
                      A                      A                      A
 Frequencies --    862.4814               910.2187               934.0975
 Red. masses --      4.0354                 3.2776                 5.4418
 Frc consts  --      1.7686                 1.5999                 2.7976
 IR Inten    --     10.9845                18.1264                29.6236

                     28                     29                     30
                      A                      A                      A
 Frequencies --    972.7983              1002.8769              1038.5322
 Red. masses --      3.5812                 4.2796                 1.9441
 Frc consts  --      1.9968                 2.5360                 1.2354
 IR Inten    --      2.1422                18.5169                 9.5528

                     31                     32                     33
                      A                      A                      A
 Frequencies --   1071.2013              1087.9548              1094.8560
 Red. masses --      1.3887                 1.3685                 2.6550
 Frc consts  --      0.9389                 0.9543                 1.8751
 IR Inten    --     17.7425                 2.2672                29.9492

                     34                     35                     36
                      A                      A                      A
 Frequencies --   1128.6999              1145.6126              1148.7664
 Red. masses --      1.6679                 1.1739                 6.0309
 Frc consts  --      1.2519                 0.9077                 4.6892
 IR Inten    --      5.0314                 2.5478                18.2290

                     37                     38                     39
                      A                      A                      A
 Frequencies --   1169.1464              1202.4381              1210.0460
 Red. masses --      1.3773                 2.2450                 1.5857
 Frc consts  --      1.1093                 1.9125                 1.3679
 IR Inten    --      6.1371                36.3256                 4.2352

                     40                     41                     42
                      A                      A                      A
 Frequencies --   1236.9096              1251.2306              1316.7411
 Red. masses --      2.0829                 1.4361                 2.4486
 Frc consts  --      1.8776                 1.3246                 2.5013
 IR Inten    --     15.4618                14.5999               136.3720

                     43                     44                     45
                      A                      A                      A
 Frequencies --   1336.3866              1343.2183              1409.9153
 Red. masses --      2.7187                 3.1288                 1.9937
 Frc consts  --      2.8608                 3.3260                 2.3350
 IR Inten    --     70.3937                18.0820                60.8815

                     46                     47                     48
                      A                      A                      A
 Frequencies --   1436.1929              1457.3275              1471.7412
 Red. masses --      1.8071                 1.6471                 1.3745
 Frc consts  --      2.1961                 2.0611                 1.7541
 IR Inten    --    179.5647                40.0941               112.1846

                     49                     50                     51
                      A                      A                      A
 Frequencies --   1490.1214              1527.5844              1531.8579
 Red. masses --      1.0980                 1.0499                 1.3716
 Frc consts  --      1.4364                 1.4435                 1.8964
 IR Inten    --      0.4653                10.7924                 9.6024

                     52                     53                     54
                      A                      A                      A
 Frequencies --   1546.3411              1567.0772              1655.2470
 Red. masses --      1.1553                 5.6904                 7.6008
 Frc consts  --      1.6276                 8.2333                12.2698
 IR Inten    --     17.2812                34.6829               116.9798

                     55                     56                     57
                      A                      A                      A
 Frequencies --   1786.4238              3043.8876              3096.4784
 Red. masses --      7.4909                 1.0406                 1.1023
 Frc consts  --     14.0850                 5.6805                 6.2270
 IR Inten    --    446.6381                55.0575                34.5378

                     58                     59                     60
                      A                      A                      A
 Frequencies --   3146.7028              3155.1603              3165.4544
 Red. masses --      1.0855                 1.0539                 1.0588
 Frc consts  --      6.3330                 6.1816                 6.2508
 IR Inten    --     17.0556                16.8314                 7.2861

                     61                     62                     63
                      A                      A                      A
 Frequencies --   3196.3817              3234.9220              3252.5706
 Red. masses --      1.0970                 1.1195                 1.1161
 Frc consts  --      6.6036                 6.9025                 6.9569
 IR Inten    --      1.3292                 4.2756                12.0489

                     64                     65                     66
                      A                      A                      A
 Frequencies --   3297.7242              3324.3257              3581.3186
 Red. masses --      1.0985                 1.1006                 1.0748
 Frc consts  --      7.0384                 7.1662                 8.1223
 IR Inten    --      0.9685                 2.5866                40.6151

 - Thermochemistry -
 -------------------
 Temperature   298.150 Kelvin.  Pressure   1.00000 Atm.
 Atom     1 has atomic number  6 and mass  12.00000

 Molecular mass:   181.08513 amu.
 Principal axes and moments of inertia in atomic units:
                           1         2         3
     Eigenvalues --  1419.880692852.193303437.52014
           X            0.99965  -0.02211  -0.01454
           Y            0.02197   0.99971  -0.00997
           Z            0.01476   0.00965   0.99984
 This molecule is an asymmetric top.
 Rotational symmetry number  1.
 Warning -- assumption of classical behavior for rotation
           may cause significant error
 Rotational temperatures (Kelvin)      0.06100     0.03037     0.02520
 Rotational constants (GHZ):           1.27105     0.63276     0.52501
 Zero-point vibrational energy     510256.1 (Joules/Mol)
                                  121.95413 (Kcal/Mol)
 Warning -- explicit consideration of  15 degrees of freedom as
           vibrations may cause significant error
 Vibrational temperatures:     70.28    81.84   117.62   137.80   165.22
          (Kelvin)            177.24   276.60   298.70   427.82   486.04
                              548.04   594.36   615.65   735.91   773.86
                              896.83   912.01   981.38  1027.27  1082.82
                             1097.99  1146.40  1185.47  1225.67  1240.92
                             1309.60  1343.96  1399.64  1442.92  1494.22
                             1541.22  1565.32  1575.25  1623.95  1648.28
                             1652.82  1682.14  1730.04  1740.99  1779.64
                             1800.24  1894.50  1922.76  1932.59  2028.55
                             2066.36  2096.77  2117.51  2143.95  2197.85
                             2204.00  2224.84  2254.67  2381.53  2570.27
                             4379.48  4455.14  4527.40  4539.57  4554.38
                             4598.88  4654.33  4679.72  4744.69  4782.96
                             5152.72

 Zero-point correction=                           0.194346 (Hartree/Particle)
 Thermal correction to Energy=                    0.206479
 Thermal correction to Enthalpy=                  0.207423
 Thermal correction to Gibbs Free Energy=         0.154963
 Sum of electronic and zero-point Energies=           -625.977080
 Sum of electronic and thermal Energies=              -625.964947
 Sum of electronic and thermal Enthalpies=            -625.964003
 Sum of electronic and thermal Free Energies=         -626.016462

                     E (Thermal)             CV                S
                      KCal/Mol        Cal/Mol-Kelvin    Cal/Mol-Kelvin
 Total                  129.567             44.687            110.410
 Electronic               0.000              0.000              0.000
 Translational            0.889              2.981             41.488
 Rotational               0.889              2.981             31.010
 Vibrational            127.790             38.726             37.912
 Vibration     1          0.595              1.978              4.864
 Vibration     2          0.596              1.975              4.562
 Vibration     3          0.600              1.962              3.848
 Vibration     4          0.603              1.952              3.538
 Vibration     5          0.608              1.937              3.186
 Vibration     6          0.610              1.930              3.050
 Vibration     7          0.634              1.851              2.206
 Vibration     8          0.641              1.829              2.065
 Vibration     9          0.691              1.679              1.432
 Vibration    10          0.718              1.600              1.222
 Vibration    11          0.751              1.511              1.036
 Vibration    12          0.777              1.442              0.916
 Vibration    13          0.789              1.410              0.866
 Vibration    14          0.867              1.225              0.630
 Vibration    15          0.893              1.166              0.570

 Optimization completed.
    -- Stationary point found.
 Normal termination of Gaussian 16 at Wed Dec  9 23:11:38 2020.

 ----------------------------------------------------------------------
 # B3LYP/6-311++G(d,p) empiricaldispersion=gd3bj scf=xqc pop=npa geom=c
 heck
 ----------------------------------------------------------------------

 ---------------------------------------
 CID_130677304_JID_3357_Energie_neutraal
 ---------------------------------------
 Structure from the checkpoint file:  "JID_3357.chk"
 Charge =  0 Multiplicity = 1

 SCF Done:  E(RB3LYP) =  -626.351073680     A.U. after   14 cycles
 Normal termination of Gaussian 16 at Wed Dec  9 23:14:13 2020.

 ----------------------------------------------------------------------
 # B3LYP/6-311++G(d,p) empiricaldispersion=gd3bj scf=xqc pop=npa geom=c
 heck
 ----------------------------------------------------------------------

 -------------------------------------
 CID_130677304_JID_3357_Energie_kation
 -------------------------------------
 Structure from the checkpoint file:  "JID_3357.chk"
 Charge =  1 Multiplicity = 2

 SCF Done:  E(UB3LYP) =  -626.044216328     A.U. after   23 cycles
 Normal termination of Gaussian 16 at Wed Dec  9 23:20:17 2020.
 Gaussian 16:  ES64L-G16RevA.03 25-Dec-2016

 ----------------------------------------------------------------------
 # B3LYP/6-311++G(d,p) empiricaldispersion=gd3bj scf=xqc pop=npa geom=c
 heck
 ----------------------------------------------------------------------

 ------------------------------------
 CID_130677304_JID_3357_Energie_anion
 ------------------------------------
 Structure from the checkpoint file:  "JID_3357.chk"
 Charge = -1 Multiplicity = 2

                         Standard orientation:
 ---------------------------------------------------------------------
 Center     Atomic      Atomic             Coordinates (Angstroms)
 Number     Number       Type             X           Y           Z
 ---------------------------------------------------------------------
      1          6           0       -2.759519   -0.339536    1.127579
      2          7           0       -1.581868   -0.152764    0.290263
      3          6           0       -1.013477    1.164588    0.273593
      4          6           0       -0.640235    1.805177   -1.035011
      5          6           0       -1.854277    2.288969   -0.289601
      6          6           0       -1.051576   -1.259500   -0.326838
      7          8           0       -1.655582   -2.319036   -0.451175
      8          7           0        0.226933   -1.128149   -0.906326
      9          6           0        1.329622   -0.523986   -0.292578
     10          6           0        2.453660   -0.042679   -0.890419
     11          8           0        3.304436    0.382840    0.104180
     12          6           0        2.621700    0.155857    1.250980
     13          7           0        1.456003   -0.386244    1.089665
     14          1           0       -2.535790   -0.049460    2.161983
     15          1           0       -3.046137   -1.389000    1.092171
     16          1           0       -3.591955    0.275367    0.768071
     17          1           0       -0.392372    1.401693    1.135643
     18          1           0        0.253271    2.421752   -1.048737
     19          1           0       -0.797793    1.218959   -1.933522
     20          1           0       -2.825695    2.027674   -0.698171
     21          1           0       -1.817855    3.250350    0.214291
     22          1           0        0.436652   -1.985659   -1.404000
     23          1           0        2.796356    0.056689   -1.906532
     24          1           0        3.107608    0.437965    2.173330
 ---------------------------------------------------------------------

 SCF Done:  E(UB3LYP) =  -626.335838221     A.U. after   33 cycles
 SCF Done:  E(UB3LYP) =  -626.335838267     a.u. after    2 cycles

 The electronic state is 2-A.
 Alpha  occ. eigenvalues --  -19.10571 -18.98721 -14.24614 -14.24604 -14.21941
 Alpha  occ. eigenvalues --  -10.20172 -10.16181 -10.14518 -10.12814 -10.11102
 Alpha  occ. eigenvalues --  -10.09950 -10.07585 -10.07389  -1.04022  -0.95671
 Alpha  occ. eigenvalues --   -0.86052  -0.84495  -0.80560  -0.74794  -0.66957
 Alpha  occ. eigenvalues --   -0.61263  -0.55008  -0.53727  -0.51760  -0.50619
 Alpha  occ. eigenvalues --   -0.47067  -0.45693  -0.43083  -0.40215  -0.39261
 Alpha  occ. eigenvalues --   -0.37750  -0.36538  -0.35416  -0.34986  -0.33708
 Alpha  occ. eigenvalues --   -0.32043  -0.31440  -0.29874  -0.28896  -0.26902
 Alpha  occ. eigenvalues --   -0.24258  -0.22248  -0.20829  -0.20581  -0.19763
 Alpha  occ. eigenvalues --   -0.16973  -0.14821  -0.13525   0.04689
 Alpha virt. eigenvalues --    0.06663   0.07102   0.07507   0.08486   0.09172
 Alpha virt. eigenvalues --    0.09609   0.10572   0.11070   0.11913   0.12221
 Alpha virt. eigenvalues --    0.12754   0.12966   0.13789   0.14478   0.15008

  Beta  occ. eigenvalues --  -19.10535 -18.98716 -14.24615 -14.24600 -14.21930
  Beta  occ. eigenvalues --  -10.20167 -10.16127 -10.14522 -10.12770 -10.11094
  Beta  occ. eigenvalues --  -10.09936 -10.07557 -10.07363  -1.03959  -0.95662
  Beta  occ. eigenvalues --   -0.86034  -0.84481  -0.80533  -0.74770  -0.66888
  Beta  occ. eigenvalues --   -0.61237  -0.54981  -0.53698  -0.51663  -0.50543
  Beta  occ. eigenvalues --   -0.47029  -0.45648  -0.43057  -0.40150  -0.39192
  Beta  occ. eigenvalues --   -0.37622  -0.36494  -0.35347  -0.34960  -0.33690
  Beta  occ. eigenvalues --   -0.32008  -0.31413  -0.29835  -0.28876  -0.26868
  Beta  occ. eigenvalues --   -0.24174  -0.22214  -0.20798  -0.20558  -0.19690
  Beta  occ. eigenvalues --   -0.16949  -0.14794  -0.13437
  Beta virt. eigenvalues --    0.07089   0.07399   0.08034   0.08375   0.09074
  Beta virt. eigenvalues --    0.09786   0.10028   0.10919   0.11525   0.12085
  Beta virt. eigenvalues --    0.12710   0.12899   0.13173   0.14065   0.14503

 Mulliken charges and spin densities:
               1          2
     1  C    0.315267  -0.561085
     2  N    0.063844   0.017948
     3  C   -1.738417   1.384850
     4  C    0.824550  -1.084927
     5  C    0.988289  -1.534654
     6  C    0.272700  -0.096402
     7  O   -0.374572   0.004355
     8  N   -0.195785   0.003421
     9  C    0.278346  -0.219643
    10  C    0.300392  -0.672306
    11  O   -0.018804  -0.010436
    12  C    0.989907  -0.934761
    13  N   -0.128042   0.033361
    14  H   -0.057244   0.220602
    15  H    0.161029   0.007166
    16  H   -0.085266   0.218701
    17  H   -0.312727   0.583667
    18  H   -0.111357   0.298992
    19  H    0.010292   0.164976
    20  H    0.086030   0.035927
    21  H   -0.407313   0.566574
    22  H    0.266841   0.054655
    23  H   -1.007079   1.188336
    24  H   -1.120880   1.330683
 Sum of Mulliken charges =  -1.00000   1.00000

 Dipole moment (field-independent basis, Debye):
    X=             -2.9375    Y=             -3.9097    Z=             -1.2369  Tot=              5.0442
 Quadrupole moment (field-independent basis, Debye-Ang):
   XX=           -128.1420   YY=           -123.8327   ZZ=           -118.6699
   XY=             -9.1106   XZ=             -2.0840   YZ=             -3.2837

 Summary of Natural Population Analysis:

                                       Natural Population
                Natural  -----------------------------------------------
    Atom  No    Charge         Core      Valence    Rydberg      Total
 -----------------------------------------------------------------------
      C    1   -0.17326      0.99964     2.16749    0.00613     3.17326
      N    2   -0.25821      0.99962     2.74779    0.01079     3.75821
      C    3   -0.02453      0.99956     2.01104    0.01393     3.02453
      C    4   -0.19483      0.99961     2.18495    0.01027     3.19483
      C    5   -0.19729      0.99961     2.18848    0.00920     3.19729
      C    6    0.41936      0.99966     1.55788    0.02310     2.58064
      O    7   -0.34123      0.99988     3.33640    0.00496     4.34123
      N    8   -0.33153      0.99964     2.82207    0.00982     3.83153
      C    9    0.12276      0.99950     1.86114    0.01660     2.87724
      C   10    0.03762      0.99943     1.94893    0.01402     2.96238
      O   11   -0.22737      0.99988     3.21919    0.00830     4.22737
      C   12    0.19574      0.99964     1.78504    0.01959     2.80426
      N   13   -0.25782      0.99970     2.74742    0.01070     3.75782
      H   14    0.09337      0.00000     0.40537    0.00126     0.40663
      H   15    0.11230      0.00000     0.38668    0.00102     0.38770
      H   16    0.09154      0.00000     0.40709    0.00136     0.40846
      H   17    0.10899      0.00000     0.38844    0.00257     0.39101
      H   18    0.10990      0.00000     0.38798    0.00212     0.39010
      H   19    0.10735      0.00000     0.39114    0.00151     0.39265
      H   20    0.10204      0.00000     0.39694    0.00102     0.39796
      H   21    0.10693      0.00000     0.39146    0.00161     0.39307
      H   22    0.19946      0.00000     0.29833    0.00221     0.30054
      H   23    0.10401      0.00000     0.39255    0.00344     0.39599
      H   24    0.09469      0.00000     0.40157    0.00374     0.40531
 =======================================================================
   * Total *    0.00000     12.99537    34.82536    0.17927    48.00000

 Normal termination of Gaussian 16 at Wed Dec  9 23:36:04 2020.
