 Gaussian 16, Revision A.03,

 -----------------------------------------------------------
 # opt freq B3LYP/6-31G(d) empiricaldispersion=gd3bj scf=xqc
 -----------------------------------------------------------

 --------------------------------
 CID_147854017_JID_10770_neutraal
 --------------------------------
 Symbolic Z-matrix:
 Charge =  0 Multiplicity = 1

 SCF Done:  E(RB3LYP) =  -901.606998143     A.U. after   14 cycles
 SCF Done:  E(RB3LYP) =  -901.612073146     A.U. after   12 cycles
 SCF Done:  E(RB3LYP) =  -901.612769852     A.U. after   12 cycles
 SCF Done:  E(RB3LYP) =  -901.612943740     A.U. after   11 cycles
 SCF Done:  E(RB3LYP) =  -901.613012213     A.U. after   11 cycles
 SCF Done:  E(RB3LYP) =  -901.613054673     A.U. after   10 cycles
 SCF Done:  E(RB3LYP) =  -901.613081764     A.U. after   10 cycles
 SCF Done:  E(RB3LYP) =  -901.613095834     A.U. after   10 cycles
 SCF Done:  E(RB3LYP) =  -901.613112430     A.U. after   10 cycles
 SCF Done:  E(RB3LYP) =  -901.613148387     A.U. after   11 cycles
 SCF Done:  E(RB3LYP) =  -901.613176694     A.U. after   10 cycles
 SCF Done:  E(RB3LYP) =  -901.613178352     A.U. after    8 cycles
 SCF Done:  E(RB3LYP) =  -901.613178555     A.U. after    7 cycles
 SCF Done:  E(RB3LYP) =  -901.613178567     A.U. after    7 cycles
 SCF Done:  E(RB3LYP) =  -901.613178574     A.U. after    6 cycles
 Optimization completed.
    -- Stationary point found.
 Normal termination of Gaussian 16 at Mon Dec 14 13:56:53 2020.

 --------------------------------------------------------------------
 #N Geom=AllCheck Guess=TCheck SCRF=Check GenChk RB3LYP/6-31G(d) Freq
 --------------------------------------------------------------------

 Structure from the checkpoint file:  "JID_10770.chk"
 --------------------------------
 CID_147854017_JID_10770_neutraal
 --------------------------------
 Charge =  0 Multiplicity = 1

 SCF Done:  E(RB3LYP) =  -901.613178574     A.U. after    1 cycles

  Exact polarizability: 266.717 -10.123 161.224  -1.070  11.395 133.160
 Approx polarizability: 361.006 -15.289 261.260  -9.509  20.205 204.993

                      1                      2                      3
                      A                      A                      A
 Frequencies --     13.2937                25.0109                42.8064
 Red. masses --      5.6030                 4.6155                 4.0880
 Frc consts  --      0.0006                 0.0017                 0.0044
 IR Inten    --      1.3398                 0.3251                 0.6017

                      4                      5                      6
                      A                      A                      A
 Frequencies --     72.3056                79.7664                92.8424
 Red. masses --      3.9924                 2.6010                 2.6336
 Frc consts  --      0.0123                 0.0098                 0.0134
 IR Inten    --      0.9195                 1.1539                 5.1091

                      7                      8                      9
                      A                      A                      A
 Frequencies --    125.3210               141.6883               148.4680
 Red. masses --      2.7397                 1.8808                 1.6686
 Frc consts  --      0.0254                 0.0222                 0.0217
 IR Inten    --      1.3433                 0.0416                 1.1560

                     10                     11                     12
                      A                      A                      A
 Frequencies --    159.6565               168.5203               199.1692
 Red. masses --      1.4329                 1.3111                 2.0522
 Frc consts  --      0.0215                 0.0219                 0.0480
 IR Inten    --      0.4288                 2.1185                 2.7678

                     13                     14                     15
                      A                      A                      A
 Frequencies --    215.8929               234.5686               248.3099
 Red. masses --      4.0485                 3.6891                 3.6439
 Frc consts  --      0.1112                 0.1196                 0.1324
 IR Inten    --      1.6106                 3.2036                 3.0264

                     16                     17                     18
                      A                      A                      A
 Frequencies --    272.0555               290.5618               302.3101
 Red. masses --      4.2073                 4.4262                 1.0677
 Frc consts  --      0.1835                 0.2202                 0.0575
 IR Inten    --      2.3254                 2.1441                23.0971

                     19                     20                     21
                      A                      A                      A
 Frequencies --    333.3410               356.1455               375.4754
 Red. masses --      3.9571                 3.9609                 4.3363
 Frc consts  --      0.2591                 0.2960                 0.3602
 IR Inten    --      1.2862                 5.8398                 8.7811

                     22                     23                     24
                      A                      A                      A
 Frequencies --    391.6227               431.8537               459.0741
 Red. masses --      3.7429                 3.9292                 3.0269
 Frc consts  --      0.3382                 0.4318                 0.3758
 IR Inten    --      2.9776                 2.6263                 8.7675

                     25                     26                     27
                      A                      A                      A
 Frequencies --    466.3861               518.8676               525.6771
 Red. masses --      3.3133                 4.1191                 5.0474
 Frc consts  --      0.4246                 0.6534                 0.8218
 IR Inten    --      3.4718                 6.8629                 2.4600

                     28                     29                     30
                      A                      A                      A
 Frequencies --    536.8311               554.4919               577.5645
 Red. masses --      6.1761                 4.9591                 4.0192
 Frc consts  --      1.0487                 0.8984                 0.7899
 IR Inten    --     18.5748                15.2011                53.3918

                     31                     32                     33
                      A                      A                      A
 Frequencies --    595.6435               629.1161               664.4729
 Red. masses --      2.6805                 2.4739                 3.9064
 Frc consts  --      0.5603                 0.5769                 1.0162
 IR Inten    --    136.1795               137.1661                64.4899

                     34                     35                     36
                      A                      A                      A
 Frequencies --    693.9239               701.7127               733.1770
 Red. masses --      2.9408                 3.0466                 5.1963
 Frc consts  --      0.8343                 0.8839                 1.6457
 IR Inten    --      9.3362                 3.6642                 0.9672

                     37                     38                     39
                      A                      A                      A
 Frequencies --    755.7259               776.2487               788.5677
 Red. masses --      3.2478                 1.5164                 4.9441
 Frc consts  --      1.0929                 0.5383                 1.8114
 IR Inten    --      4.4756                39.4109                14.5431

                     40                     41                     42
                      A                      A                      A
 Frequencies --    836.5419               839.7083               848.5720
 Red. masses --      1.8464                 2.4027                 1.5485
 Frc consts  --      0.7613                 0.9982                 0.6570
 IR Inten    --     23.8138                31.5992                30.3919

                     43                     44                     45
                      A                      A                      A
 Frequencies --    861.8954               929.3168               949.9657
 Red. masses --      1.5889                 1.6211                 1.4499
 Frc consts  --      0.6954                 0.8249                 0.7709
 IR Inten    --      7.9369                16.3955                 1.2934

                     46                     47                     48
                      A                      A                      A
 Frequencies --    954.7880               959.7205               971.0511
 Red. masses --      1.2910                 2.2034                 3.5499
 Frc consts  --      0.6934                 1.1957                 1.9722
 IR Inten    --      0.8223                 8.7709                42.4976

                     49                     50                     51
                      A                      A                      A
 Frequencies --   1007.4272              1016.2478              1018.4841
 Red. masses --      2.4327                 4.7843                 4.3144
 Frc consts  --      1.4547                 2.9112                 2.6368
 IR Inten    --     21.9105                27.6197                24.1696

                     52                     53                     54
                      A                      A                      A
 Frequencies --   1033.8578              1076.0576              1103.0852
 Red. masses --      1.6764                 1.5010                 1.5892
 Frc consts  --      1.0557                 1.0240                 1.1394
 IR Inten    --     17.4018                 1.0708                 2.6665

                     55                     56                     57
                      A                      A                      A
 Frequencies --   1118.9430              1138.0395              1146.2259
 Red. masses --      2.9864                 5.4522                 1.2735
 Frc consts  --      2.2030                 4.1604                 0.9858
 IR Inten    --      7.9381               301.7912                 1.2558

                     58                     59                     60
                      A                      A                      A
 Frequencies --   1158.5063              1180.7232              1188.9388
 Red. masses --      2.8634                 1.4572                 1.3073
 Frc consts  --      2.2643                 1.1969                 1.0888
 IR Inten    --    112.3654                60.0388                 7.1225

                     61                     62                     63
                      A                      A                      A
 Frequencies --   1195.3791              1196.7197              1212.0840
 Red. masses --      1.2689                 1.2337                 1.7213
 Frc consts  --      1.0683                 1.0410                 1.4899
 IR Inten    --      3.3754                40.0316                20.5516

                     64                     65                     66
                      A                      A                      A
 Frequencies --   1224.6300              1232.9577              1245.2270
 Red. masses --      2.0660                 1.5541                 1.9354
 Frc consts  --      1.8255                 1.3920                 1.7681
 IR Inten    --     84.0607                16.4313                50.7788

                     67                     68                     69
                      A                      A                      A
 Frequencies --   1284.9967              1309.4519              1330.1876
 Red. masses --      3.4786                 1.8616                 1.9225
 Frc consts  --      3.3843                 1.8807                 2.0042
 IR Inten    --    163.9073               243.0920                38.3172

                     70                     71                     72
                      A                      A                      A
 Frequencies --   1344.3710              1358.1131              1377.3133
 Red. masses --      4.4839                 2.3642                 5.1480
 Frc consts  --      4.7747                 2.5693                 5.7538
 IR Inten    --      6.9442                33.5268                11.9847

                     73                     74                     75
                      A                      A                      A
 Frequencies --   1397.0632              1413.3601              1444.0018
 Red. masses --      1.4910                 1.1869                 1.2415
 Frc consts  --      1.7146                 1.3969                 1.5253
 IR Inten    --     81.0062                17.6364                 4.6583

                     76                     77                     78
                      A                      A                      A
 Frequencies --   1466.9819              1494.1064              1503.9607
 Red. masses --      3.1748                 1.1516                 1.1579
 Frc consts  --      4.0255                 1.5147                 1.5431
 IR Inten    --     51.6051                 1.3677                 2.6380

                     79                     80                     81
                      A                      A                      A
 Frequencies --   1514.7100              1516.1742              1518.4138
 Red. masses --      1.0682                 1.0498                 1.0864
 Frc consts  --      1.4440                 1.4218                 1.4758
 IR Inten    --      4.8618                 1.5843                 1.5020

                     82                     83                     84
                      A                      A                      A
 Frequencies --   1520.7516              1534.0522              1538.8858
 Red. masses --      2.6904                 1.1859                 1.6243
 Frc consts  --      3.6660                 1.6442                 2.2663
 IR Inten    --     30.0138                34.6281               144.0161

                     85                     86                     87
                      A                      A                      A
 Frequencies --   1542.0715              1542.8452              1546.5737
 Red. masses --      1.0548                 1.4331                 2.4022
 Frc consts  --      1.4779                 2.0099                 3.3853
 IR Inten    --      6.5328               105.4025                 4.9500

                     88                     89                     90
                      A                      A                      A
 Frequencies --   1634.3672              1647.1133              1666.5955
 Red. masses --      6.3615                 6.1773                 4.9610
 Frc consts  --     10.0117                 9.8741                 8.1186
 IR Inten    --     38.5255                52.5321               180.7816

                     91                     92                     93
                      A                      A                      A
 Frequencies --   1680.3871              1697.0115              3006.9218
 Red. masses --      3.6037                 1.4051                 1.0408
 Frc consts  --      5.9954                 2.3841                 5.5447
 IR Inten    --     10.9177               173.1627                43.4463

                     94                     95                     96
                      A                      A                      A
 Frequencies --   3023.8010              3039.9506              3042.2483
 Red. masses --      1.0812                 1.0458                 1.0343
 Frc consts  --      5.8246                 5.6939                 5.6401
 IR Inten    --     60.7296                47.4566                27.2508

                     97                     98                     99
                      A                      A                      A
 Frequencies --   3063.7676              3103.3935              3108.6470
 Red. masses --      1.1015                 1.0897                 1.1032
 Frc consts  --      6.0916                 6.1834                 6.2815
 IR Inten    --     47.6569                17.0188                42.4940

                    100                    101                    102
                      A                      A                      A
 Frequencies --   3137.0466              3145.4832              3151.3869
 Red. masses --      1.1032                 1.0988                 1.1035
 Frc consts  --      6.3967                 6.4052                 6.4567
 IR Inten    --     10.9314                30.6246                30.4638

                    103                    104                    105
                      A                      A                      A
 Frequencies --   3180.5801              3182.8066              3198.2231
 Red. masses --      1.0869                 1.0892                 1.0931
 Frc consts  --      6.4780                 6.5008                 6.5874
 IR Inten    --      9.7981                21.3273                30.9623

                    106                    107                    108
                      A                      A                      A
 Frequencies --   3203.1612              3223.1975              3231.2601
 Red. masses --      1.0910                 1.0928                 1.0929
 Frc consts  --      6.5953                 6.6890                 6.7230
 IR Inten    --      4.1703                 7.1966                 3.4291

                    109                    110                    111
                      A                      A                      A
 Frequencies --   3231.6260              3552.2533              3651.2450
 Red. masses --      1.0902                 1.0479                 1.0981
 Frc consts  --      6.7081                 7.7905                 8.6256
 IR Inten    --      1.9587                14.4918                 8.5041

 - Thermochemistry -
 -------------------
 Temperature   298.150 Kelvin.  Pressure   1.00000 Atm.
 Atom     1 has atomic number  6 and mass  12.00000

 Molecular mass:   273.13649 amu.
 Principal axes and moments of inertia in atomic units:
                           1         2         3
     Eigenvalues --  2511.81982********************
           X            0.99999  -0.00159   0.00295
           Y            0.00148   0.99940   0.03450
           Z           -0.00300  -0.03449   0.99940
 This molecule is an asymmetric top.
 Rotational symmetry number  1.
 Warning -- assumption of classical behavior for rotation
           may cause significant error
 Rotational temperatures (Kelvin)      0.03448     0.00727     0.00696
 Rotational constants (GHZ):           0.71850     0.15154     0.14508
 Zero-point vibrational energy     853203.1 (Joules/Mol)
                                  203.92044 (Kcal/Mol)
 Warning -- explicit consideration of  31 degrees of freedom as
           vibrations may cause significant error
 Vibrational temperatures:     19.13    35.99    61.59   104.03   114.77
          (Kelvin)            133.58   180.31   203.86   213.61   229.71
                              242.46   286.56   310.62   337.49   357.26
                              391.43   418.05   434.96   479.60   512.41
                              540.23   563.46   621.34   660.51   671.03
                              746.53   756.33   772.38   797.79   830.99
                              857.00   905.16   956.03   998.40  1009.61
                             1054.88  1087.32  1116.85  1134.57  1203.60
                             1208.15  1220.91  1240.08  1337.08  1366.79
                             1373.73  1380.82  1397.13  1449.46  1462.15
                             1465.37  1487.49  1548.21  1587.09  1609.91
                             1637.39  1649.16  1666.83  1698.80  1710.62
                             1719.88  1721.81  1743.92  1761.97  1773.95
                             1791.60  1848.82  1884.01  1913.84  1934.25
                             1954.02  1981.65  2010.06  2033.51  2077.60
                             2110.66  2149.69  2163.86  2179.33  2181.44
                             2184.66  2188.02  2207.16  2214.11  2218.70
                             2219.81  2225.17  2351.49  2369.83  2397.86
                             2417.70  2441.62  4326.29  4350.58  4373.81
                             4377.12  4408.08  4465.09  4472.65  4513.51
                             4525.65  4534.14  4576.15  4579.35  4601.53
                             4608.63  4637.46  4649.06  4649.59  5110.90
                             5253.33

 Zero-point correction=                           0.324968 (Hartree/Particle)
 Thermal correction to Energy=                    0.344598
 Thermal correction to Enthalpy=                  0.345543
 Thermal correction to Gibbs Free Energy=         0.275212
 Sum of electronic and zero-point Energies=           -901.288211
 Sum of electronic and thermal Energies=              -901.268580
 Sum of electronic and thermal Enthalpies=            -901.267636
 Sum of electronic and thermal Free Energies=         -901.337966

                     E (Thermal)             CV                S
                      KCal/Mol        Cal/Mol-Kelvin    Cal/Mol-Kelvin
 Total                  216.239             74.273            148.022
 Electronic               0.000              0.000              0.000
 Translational            0.889              2.981             42.713
 Rotational               0.889              2.981             34.275
 Vibrational            214.461             68.312             71.034
 Vibration     1          0.593              1.987              7.445
 Vibration     2          0.593              1.985              6.190
 Vibration     3          0.595              1.980              5.125
 Vibration     4          0.598              1.967              4.090
 Vibration     5          0.600              1.963              3.897
 Vibration     6          0.602              1.954              3.599
 Vibration     7          0.610              1.928              3.017
 Vibration     8          0.615              1.912              2.781
 Vibration     9          0.618              1.904              2.692
 Vibration    10          0.622              1.892              2.554
 Vibration    11          0.625              1.881              2.452
 Vibration    12          0.637              1.841              2.141
 Vibration    13          0.645              1.817              1.993
 Vibration    14          0.654              1.788              1.844
 Vibration    15          0.662              1.766              1.743
 Vibration    16          0.675              1.725              1.583
 Vibration    17          0.687              1.691              1.471
 Vibration    18          0.694              1.669              1.404
 Vibration    19          0.715              1.609              1.244
 Vibration    20          0.732              1.563              1.139
 Vibration    21          0.746              1.522              1.057
 Vibration    22          0.759              1.488              0.994
 Vibration    23          0.793              1.401              0.853
 Vibration    24          0.817              1.341              0.769
 Vibration    25          0.824              1.325              0.748
 Vibration    26          0.874              1.208              0.613
 Vibration    27          0.881              1.193              0.597
 Vibration    28          0.892              1.169              0.572
 Vibration    29          0.910              1.130              0.535
 Vibration    30          0.934              1.080              0.490
 Vibration    31          0.953              1.041              0.457

 Optimization completed.
    -- Stationary point found.
 Normal termination of Gaussian 16 at Mon Dec 14 14:16:00 2020.

 ----------------------------------------------------------------------
 # B3LYP/6-311++G(d,p) empiricaldispersion=gd3bj scf=xqc pop=npa geom=c
 heck
 ----------------------------------------------------------------------

 ----------------------------------------
 CID_147854017_JID_10770_Energie_neutraal
 ----------------------------------------
 Structure from the checkpoint file:  "JID_10770.chk"
 Charge =  0 Multiplicity = 1

 SCF Done:  E(RB3LYP) =  -901.864908046     A.U. after   15 cycles
 Normal termination of Gaussian 16 at Mon Dec 14 14:23:15 2020.

 ----------------------------------------------------------------------
 # B3LYP/6-311++G(d,p) empiricaldispersion=gd3bj scf=xqc pop=npa geom=c
 heck
 ----------------------------------------------------------------------

 --------------------------------------
 CID_147854017_JID_10770_Energie_kation
 --------------------------------------
 Structure from the checkpoint file:  "JID_10770.chk"
 Charge =  1 Multiplicity = 2

 SCF Done:  E(UB3LYP) =  -901.595401632     A.U. after   26 cycles
 Normal termination of Gaussian 16 at Mon Dec 14 14:41:06 2020.
 Gaussian 16:  ES64L-G16RevA.03 25-Dec-2016

 ----------------------------------------------------------------------
 # B3LYP/6-311++G(d,p) empiricaldispersion=gd3bj scf=xqc pop=npa geom=c
 heck
 ----------------------------------------------------------------------

 -------------------------------------
 CID_147854017_JID_10770_Energie_anion
 -------------------------------------
 Structure from the checkpoint file:  "JID_10770.chk"
 Charge = -1 Multiplicity = 2

                         Standard orientation:
 ---------------------------------------------------------------------
 Center     Atomic      Atomic             Coordinates (Angstroms)
 Number     Number       Type             X           Y           Z
 ---------------------------------------------------------------------
      1          6           0       -3.421083    2.309259   -0.996470
      2          6           0       -2.172649    1.473555   -0.840101
      3          6           0       -2.222812    0.161916   -0.329652
      4          6           0       -1.050379   -0.576847   -0.171768
      5          6           0        0.179684   -0.033269   -0.535324
      6          6           0        0.250703    1.256869   -1.058639
      7          6           0       -0.924337    1.993617   -1.196964
      8          8           0        1.286345   -0.850758   -0.418616
      9          6           0        2.482478   -0.319983    0.024841
     10          6           0        2.544291    0.645327    1.033177
     11          6           0        3.802370    1.069783    1.459301
     12          6           0        4.970305    0.547951    0.910386
     13          6           0        4.896856   -0.427982   -0.097923
     14          6           0        3.636176   -0.854618   -0.540292
     15          7           0        6.057726   -0.919720   -0.699581
     16          6           0       -3.559430   -0.431705    0.103624
     17          8           0       -3.495820   -1.835002    0.266075
     18          6           0       -3.566545   -2.549270   -0.954464
     19          8           0       -4.041203    0.136441    1.293076
     20          6           0       -3.201711   -0.037257    2.430681
     21          1           0       -4.090303    1.899579   -1.765171
     22          1           0       -3.992004    2.347973   -0.063788
     23          1           0       -3.168959    3.331544   -1.293314
     24          1           0       -1.089569   -1.580311    0.235806
     25          1           0        1.208659    1.676200   -1.345919
     26          1           0       -0.869225    3.002256   -1.598989
     27          1           0        1.635739    1.043230    1.469127
     28          1           0        3.872782    1.817407    2.244633
     29          1           0        5.941583    0.893721    1.254312
     30          1           0        3.539757   -1.599322   -1.324523
     31          1           0        5.962052   -1.835889   -1.119653
     32          1           0        6.887992   -0.863274   -0.123109
     33          1           0       -4.332018   -0.190749   -0.640460
     34          1           0       -4.490087   -2.307279   -1.502576
     35          1           0       -2.706261   -2.339808   -1.604992
     36          1           0       -3.571129   -3.611208   -0.698651
     37          1           0       -3.056968   -1.098930    2.657678
     38          1           0       -2.223118    0.438183    2.288508
     39          1           0       -3.721083    0.445199    3.261396
 ---------------------------------------------------------------------

 SCF Done:  E(UB3LYP) =  -901.853898563     A.U. after   33 cycles
 SCF Done:  E(UB3LYP) =  -901.853898563     a.u. after    1 cycles

 The electronic state is 2-A.
 Alpha  occ. eigenvalues --  -19.07283 -19.05145 -19.04988 -14.22076 -10.19163
 Alpha  occ. eigenvalues --  -10.14829 -10.14620 -10.13359 -10.13086 -10.12491
 Alpha  occ. eigenvalues --  -10.09854 -10.09335 -10.08982 -10.08856 -10.08770
 Alpha  occ. eigenvalues --  -10.08479 -10.08325 -10.07570 -10.07522 -10.07423
 Alpha  occ. eigenvalues --   -0.99476  -0.99254  -0.93509  -0.82629  -0.77952
 Alpha  occ. eigenvalues --   -0.74978  -0.69724  -0.68236  -0.65641  -0.64712
 Alpha  occ. eigenvalues --   -0.63896  -0.60797  -0.60122  -0.55707  -0.53681
 Alpha  occ. eigenvalues --   -0.52511  -0.51259  -0.48667  -0.45971  -0.43580
 Alpha  occ. eigenvalues --   -0.42869  -0.42278  -0.41637  -0.39720  -0.39246
 Alpha  occ. eigenvalues --   -0.38572  -0.37712  -0.36736  -0.36170  -0.35707
 Alpha  occ. eigenvalues --   -0.34721  -0.33991  -0.33807  -0.33400  -0.32792
 Alpha  occ. eigenvalues --   -0.31072  -0.30699  -0.30289  -0.28637  -0.28478
 Alpha  occ. eigenvalues --   -0.27779  -0.27357  -0.26593  -0.25440  -0.25011
 Alpha  occ. eigenvalues --   -0.24645  -0.21486  -0.19579  -0.18884  -0.17336
 Alpha  occ. eigenvalues --   -0.16219  -0.13769  -0.11716   0.03897
 Alpha virt. eigenvalues --    0.04959   0.05675   0.06174   0.06808   0.07109
 Alpha virt. eigenvalues --    0.07183   0.07560   0.08334   0.08366   0.09135
 Alpha virt. eigenvalues --    0.09372   0.09798   0.09834   0.09904   0.10777

  Beta  occ. eigenvalues --  -19.07283 -19.05139 -19.04983 -14.22001 -10.19158
  Beta  occ. eigenvalues --  -10.14841 -10.14620 -10.13333 -10.13083 -10.12472
  Beta  occ. eigenvalues --  -10.09867 -10.09290 -10.08945 -10.08845 -10.08733
  Beta  occ. eigenvalues --  -10.08445 -10.08305 -10.07565 -10.07510 -10.07411
  Beta  occ. eigenvalues --   -0.99464  -0.99254  -0.93498  -0.82543  -0.77896
  Beta  occ. eigenvalues --   -0.74941  -0.69688  -0.68165  -0.65614  -0.64672
  Beta  occ. eigenvalues --   -0.63840  -0.60764  -0.60078  -0.55637  -0.53646
  Beta  occ. eigenvalues --   -0.52464  -0.51203  -0.48617  -0.45921  -0.43547
  Beta  occ. eigenvalues --   -0.42844  -0.42227  -0.41598  -0.39684  -0.39211
  Beta  occ. eigenvalues --   -0.38530  -0.37661  -0.36703  -0.36127  -0.35680
  Beta  occ. eigenvalues --   -0.34702  -0.33958  -0.33777  -0.33373  -0.32767
  Beta  occ. eigenvalues --   -0.31044  -0.30663  -0.30256  -0.28599  -0.28429
  Beta  occ. eigenvalues --   -0.27750  -0.27318  -0.26548  -0.25413  -0.24960
  Beta  occ. eigenvalues --   -0.24592  -0.21427  -0.19560  -0.18857  -0.17061
  Beta  occ. eigenvalues --   -0.16160  -0.13691  -0.11653
  Beta virt. eigenvalues --    0.05656   0.05995   0.06391   0.06652   0.06884
  Beta virt. eigenvalues --    0.07282   0.07574   0.07938   0.08403   0.08917
  Beta virt. eigenvalues --    0.09321   0.09412   0.09815   0.10050   0.10121

 Mulliken charges and spin densities:
               1          2
     1  C    0.292186  -0.952607
     2  C   -0.248111   0.648452
     3  C    0.200694   0.830528
     4  C   -0.624411   0.415216
     5  C   -0.761580  -0.126208
     6  C    0.645993  -0.622964
     7  C   -0.024855  -0.286508
     8  O    0.011724   0.003544
     9  C    0.107625  -0.538774
    10  C    0.402231  -0.531564
    11  C   -0.360915   0.196012
    12  C    0.259943  -0.215200
    13  C    0.108016  -0.515039
    14  C   -0.164060   0.425711
    15  N   -0.181440  -0.104345
    16  C   -0.207593  -0.572353
    17  O   -0.135826   0.024123
    18  C    0.303624  -0.622406
    19  O   -0.003582  -0.011519
    20  C   -0.224697  -0.107708
    21  H   -0.130970   0.286018
    22  H    0.081746   0.108064
    23  H   -0.018705   0.160936
    24  H    0.211681  -0.015761
    25  H    0.185584   0.002581
    26  H    0.008396   0.138681
    27  H    0.200640  -0.075035
    28  H    0.028730   0.140911
    29  H   -0.342278   0.490307
    30  H   -0.152087   0.308223
    31  H   -0.267458   0.516525
    32  H   -0.400197   0.656018
    33  H    0.117956   0.114005
    34  H   -0.327057   0.465257
    35  H    0.003425   0.148392
    36  H    0.020421   0.128739
    37  H    0.164169   0.004810
    38  H    0.131126   0.030107
    39  H    0.089912   0.054830
 Sum of Mulliken charges =  -1.00000   1.00000

 Dipole moment (field-independent basis, Debye):
    X=             -7.6365    Y=              3.1025    Z=              2.6761  Tot=              8.6662
 Quadrupole moment (field-independent basis, Debye-Ang):
   XX=           -287.7661   YY=           -151.9322   ZZ=           -147.0422
   XY=             14.0011   XZ=             -4.1470   YZ=             -1.1590

 Summary of Natural Population Analysis:

                                       Natural Population
                Natural  -----------------------------------------------
    Atom  No    Charge         Core      Valence    Rydberg      Total
 -----------------------------------------------------------------------
      C    1   -0.29859      0.99964     2.29320    0.00575     3.29859
      C    2   -0.02220      0.99948     2.01256    0.01016     3.02220
      C    3   -0.03795      0.99945     2.02790    0.01060     3.03795
      C    4   -0.10163      0.99946     2.09528    0.00689     3.10163
      C    5    0.14816      0.99936     1.83895    0.01353     2.85184
      C    6   -0.11768      0.99951     2.11075    0.00742     3.11768
      C    7   -0.08825      0.99953     2.08010    0.00862     3.08825
      O    8   -0.27033      0.99984     3.25997    0.01052     4.27033
      C    9    0.16210      0.99936     1.82543    0.01310     2.83790
      C   10   -0.15605      0.99951     2.14900    0.00754     3.15605
      C   11   -0.08584      0.99958     2.07620    0.01006     3.08584
      C   12   -0.13769      0.99952     2.12779    0.01038     3.13769
      C   13    0.09687      0.99950     1.89218    0.01146     2.90313
      C   14   -0.14457      0.99947     2.13497    0.01013     3.14457
      N   15   -0.39203      0.99972     2.88164    0.01068     3.89203
      C   16    0.21929      0.99950     1.76013    0.02107     2.78071
      O   17   -0.30462      0.99988     3.29572    0.00902     4.30462
      C   18   -0.10225      0.99961     2.09336    0.00928     3.10225
      O   19   -0.29365      0.99988     3.28485    0.00892     4.29365
      C   20   -0.10504      0.99960     2.09742    0.00802     3.10504
      H   21    0.10468      0.00000     0.39419    0.00113     0.39532
      H   22    0.11055      0.00000     0.38823    0.00122     0.38945
      H   23    0.10073      0.00000     0.39848    0.00079     0.39927
      H   24    0.11152      0.00000     0.38627    0.00221     0.38848
      H   25    0.10935      0.00000     0.38959    0.00106     0.39065
      H   26    0.09824      0.00000     0.40090    0.00087     0.40176
      H   27    0.10700      0.00000     0.39159    0.00141     0.39300
      H   28    0.09854      0.00000     0.40073    0.00073     0.40146
      H   29    0.10233      0.00000     0.39661    0.00105     0.39767
      H   30    0.10642      0.00000     0.39198    0.00160     0.39358
      H   31    0.18844      0.00000     0.30663    0.00493     0.31156
      H   32    0.19042      0.00000     0.30039    0.00919     0.30958
      H   33    0.08499      0.00000     0.41221    0.00281     0.41501
      H   34    0.08220      0.00000     0.41614    0.00166     0.41780
      H   35    0.08531      0.00000     0.41348    0.00121     0.41469
      H   36    0.09078      0.00000     0.40837    0.00085     0.40922
      H   37    0.08736      0.00000     0.41146    0.00118     0.41264
      H   38    0.08540      0.00000     0.41353    0.00107     0.41460
      H   39    0.08770      0.00000     0.41145    0.00085     0.41230
 =======================================================================
   * Total *    0.00002     19.99138    52.76961    0.23899    72.99998

 Normal termination of Gaussian 16 at Mon Dec 14 15:05:15 2020.
