 Gaussian 16, Revision A.03,

 -----------------------------------------------------------
 # opt freq B3LYP/6-31G(d) empiricaldispersion=gd3bj scf=xqc
 -----------------------------------------------------------

 ------------------------------
 CID_12924254_JID_4750_neutraal
 ------------------------------
 Symbolic Z-matrix:
 Charge =  0 Multiplicity = 1

 SCF Done:  E(RB3LYP) =  -1020.61053203     A.U. after   15 cycles
 SCF Done:  E(RB3LYP) =  -1020.62029422     A.U. after   13 cycles
 SCF Done:  E(RB3LYP) =  -1020.62875912     A.U. after   15 cycles
 SCF Done:  E(RB3LYP) =  -1020.63173110     A.U. after   15 cycles
 SCF Done:  E(RB3LYP) =  -1020.63421236     A.U. after   13 cycles
 SCF Done:  E(RB3LYP) =  -1020.63435737     A.U. after   12 cycles
 SCF Done:  E(RB3LYP) =  -1020.63457854     A.U. after   11 cycles
 SCF Done:  E(RB3LYP) =  -1020.63464161     A.U. after   11 cycles
 SCF Done:  E(RB3LYP) =  -1020.63468686     A.U. after   10 cycles
 SCF Done:  E(RB3LYP) =  -1020.63471406     A.U. after   11 cycles
 SCF Done:  E(RB3LYP) =  -1020.63479884     A.U. after   10 cycles
 SCF Done:  E(RB3LYP) =  -1020.63480349     A.U. after   10 cycles
 SCF Done:  E(RB3LYP) =  -1020.63480393     A.U. after    8 cycles
 SCF Done:  E(RB3LYP) =  -1020.63480409     A.U. after    7 cycles
 SCF Done:  E(RB3LYP) =  -1020.63480412     A.U. after    7 cycles
 Optimization completed.
    -- Stationary point found.
 Normal termination of Gaussian 16 at Thu Dec 10 10:38:26 2020.

 --------------------------------------------------------------------
 #N Geom=AllCheck Guess=TCheck SCRF=Check GenChk RB3LYP/6-31G(d) Freq
 --------------------------------------------------------------------

 Structure from the checkpoint file:  "JID_4750.chk"
 ------------------------------
 CID_12924254_JID_4750_neutraal
 ------------------------------
 Charge =  0 Multiplicity = 1

 SCF Done:  E(RB3LYP) =  -1020.63480412     A.U. after    1 cycles

  Exact polarizability: 181.849   3.790 154.584   4.556   1.305  68.076
 Approx polarizability: 248.233  -2.895 242.675   9.587   4.944 102.795

                      1                      2                      3
                      A                      A                      A
 Frequencies --     40.8707                49.9203                64.1298
 Red. masses --      2.5541                 1.6002                 4.2940
 Frc consts  --      0.0025                 0.0023                 0.0104
 IR Inten    --      4.8797                 0.2252                 0.1291

                      4                      5                      6
                      A                      A                      A
 Frequencies --     87.2768               101.7121               115.0652
 Red. masses --      4.8325                 2.4225                 4.0582
 Frc consts  --      0.0217                 0.0148                 0.0317
 IR Inten    --      0.6455                 2.1764                 1.5388

                      7                      8                      9
                      A                      A                      A
 Frequencies --    147.8013               159.9624               189.2720
 Red. masses --      2.6610                 3.5238                 2.9304
 Frc consts  --      0.0342                 0.0531                 0.0619
 IR Inten    --      1.9992                 0.2623                 9.1228

                     10                     11                     12
                      A                      A                      A
 Frequencies --    204.4294               212.1577               230.4697
 Red. masses --      4.9706                 2.2687                 7.7176
 Frc consts  --      0.1224                 0.0602                 0.2415
 IR Inten    --      0.8276                 0.8427                 2.0540

                     13                     14                     15
                      A                      A                      A
 Frequencies --    260.8310               283.9733               363.4546
 Red. masses --      2.3843                 2.1040                 3.8296
 Frc consts  --      0.0956                 0.1000                 0.2981
 IR Inten    --      0.8791                 0.9577                 1.6312

                     16                     17                     18
                      A                      A                      A
 Frequencies --    379.8572               442.6828               466.8311
 Red. masses --      7.4287                 6.9061                 1.0944
 Frc consts  --      0.6315                 0.7974                 0.1405
 IR Inten    --      3.9762                21.6418                80.6845

                     19                     20                     21
                      A                      A                      A
 Frequencies --    497.6030               561.9551               652.6415
 Red. masses --      7.0514                 5.8464                 4.8531
 Frc consts  --      1.0287                 1.0878                 1.2179
 IR Inten    --     11.0246                11.3447                 0.6638

                     22                     23                     24
                      A                      A                      A
 Frequencies --    668.3982               678.5794               704.2897
 Red. masses --      8.0527                 4.9149                 1.2166
 Frc consts  --      2.1196                 1.3334                 0.3555
 IR Inten    --      0.9649                 1.9310                99.1287

                     25                     26                     27
                      A                      A                      A
 Frequencies --    735.0360               753.6795               774.1170
 Red. masses --     11.3722                 2.7658                 1.6654
 Frc consts  --      3.6200                 0.9256                 0.5880
 IR Inten    --      0.1921                38.4736                 0.7641

                     28                     29                     30
                      A                      A                      A
 Frequencies --    823.8144               921.3137               992.0822
 Red. masses --     12.4157                 6.8534                 1.9981
 Frc consts  --      4.9646                 3.4274                 1.1587
 IR Inten    --     41.8667                23.7570                 5.5285

                     31                     32                     33
                      A                      A                      A
 Frequencies --    995.8627              1050.6300              1058.4640
 Red. masses --     10.7003                 1.5639                 2.4054
 Frc consts  --      6.2524                 1.0171                 1.5878
 IR Inten    --      8.6339                 0.1059                23.7020

                     34                     35                     36
                      A                      A                      A
 Frequencies --   1080.8747              1091.3975              1168.1968
 Red. masses --      1.3692                 1.8825                 1.2663
 Frc consts  --      0.9425                 1.3211                 1.0182
 IR Inten    --      2.8648                10.9609                 0.2064

                     37                     38                     39
                      A                      A                      A
 Frequencies --   1178.3873              1199.3893              1221.9578
 Red. masses --      4.3517                 2.3571                 3.6817
 Frc consts  --      3.5603                 1.9978                 3.2390
 IR Inten    --     16.5136               142.8944               448.4501

                     40                     41                     42
                      A                      A                      A
 Frequencies --   1280.5225              1294.1475              1302.0177
 Red. masses --      5.5778                 2.2319                 1.2371
 Frc consts  --      5.3887                 2.2024                 1.2357
 IR Inten    --     10.4800               109.6533                10.9085

                     43                     44                     45
                      A                      A                      A
 Frequencies --   1332.7233              1375.7367              1402.5062
 Red. masses --      1.3647                 2.4695                 1.5039
 Frc consts  --      1.4281                 2.7537                 1.7430
 IR Inten    --      6.9672                28.2222               102.7318

                     46                     47                     48
                      A                      A                      A
 Frequencies --   1434.9261              1438.9725              1479.1551
 Red. masses --      1.2273                 1.9485                 1.3089
 Frc consts  --      1.4889                 2.3771                 1.6873
 IR Inten    --      6.8916               268.1450               106.3635

                     49                     50                     51
                      A                      A                      A
 Frequencies --   1486.5543              1507.2745              1519.4877
 Red. masses --      1.1194                 1.0411                 1.0453
 Frc consts  --      1.4575                 1.3936                 1.4220
 IR Inten    --     28.7708                 6.6107                 0.9313

                     52                     53                     54
                      A                      A                      A
 Frequencies --   1535.6885              1541.1500              1542.5713
 Red. masses --      1.0471                 1.4787                 1.8612
 Frc consts  --      1.4550                 2.0693                 2.6093
 IR Inten    --      1.9770               162.2234               436.2576

                     55                     56                     57
                      A                      A                      A
 Frequencies --   1587.4586              1613.8965              1655.8362
 Red. masses --      4.7925                 6.0987                 4.8610
 Frc consts  --      7.1157                 9.3592                 7.8526
 IR Inten    --    606.9566               162.5966               987.0826

                     58                     59                     60
                      A                      A                      A
 Frequencies --   1824.5673              3054.6276              3060.5886
 Red. masses --      7.3101                 1.0392                 1.0340
 Frc consts  --     14.3382                 5.7129                 5.7064
 IR Inten    --    441.0179                33.8067                44.8056

                     61                     62                     63
                      A                      A                      A
 Frequencies --   3081.9955              3085.0654              3116.9540
 Red. masses --      1.0903                 1.0630                 1.1055
 Frc consts  --      6.1019                 5.9608                 6.3278
 IR Inten    --     24.2510                14.1611                21.8520

                     64                     65                     66
                      A                      A                      A
 Frequencies --   3120.6777              3142.8806              3158.3668
 Red. masses --      1.0997                 1.0992                 1.1044
 Frc consts  --      6.3097                 6.3969                 6.4911
 IR Inten    --     19.9043                 5.7731                18.8089

                     67                     68                     69
                      A                      A                      A
 Frequencies --   3159.6723              3600.6399              3651.1327
 Red. masses --      1.1032                 1.0768                 1.0775
 Frc consts  --      6.4891                 8.2253                 8.4629
 IR Inten    --     19.9664                43.9716                72.2341

 - Thermochemistry -
 -------------------
 Temperature   298.150 Kelvin.  Pressure   1.00000 Atm.
 Atom     1 has atomic number  6 and mass  12.00000

 Molecular mass:   213.06843 amu.
 Principal axes and moments of inertia in atomic units:
                           1         2         3
     Eigenvalues --  2568.129984212.934006580.06364
           X            0.99449   0.10479  -0.00390
           Y           -0.10479   0.99449  -0.00111
           Z            0.00377   0.00151   0.99999
 This molecule is an asymmetric top.
 Rotational symmetry number  1.
 Warning -- assumption of classical behavior for rotation
           may cause significant error
 Rotational temperatures (Kelvin)      0.03373     0.02056     0.01316
 Rotational constants (GHZ):           0.70275     0.42838     0.27427
 Zero-point vibrational energy     514377.3 (Joules/Mol)
                                  122.93911 (Kcal/Mol)
 Warning -- explicit consideration of  20 degrees of freedom as
           vibrations may cause significant error
 Vibrational temperatures:     58.80    71.82    92.27   125.57   146.34
          (Kelvin)            165.55   212.65   230.15   272.32   294.13
                              305.25   331.59   375.28   408.57   522.93
                              546.53   636.92   671.67   715.94   808.53
                              939.01   961.68   976.32  1013.32  1057.55
                             1084.38  1113.78  1185.29  1325.56  1427.39
                             1432.82  1511.62  1522.89  1555.14  1570.28
                             1680.77  1695.44  1725.65  1758.12  1842.39
                             1861.99  1873.31  1917.49  1979.38  2017.89
                             2064.54  2070.36  2128.17  2138.82  2168.63
                             2186.20  2209.51  2217.37  2219.42  2284.00
                             2322.04  2382.38  2625.15  4394.93  4403.50
                             4434.30  4438.72  4484.60  4489.96  4521.90
                             4544.19  4546.06  5180.52  5253.17

 Zero-point correction=                           0.195916 (Hartree/Particle)
 Thermal correction to Energy=                    0.210682
 Thermal correction to Enthalpy=                  0.211626
 Thermal correction to Gibbs Free Energy=         0.152632
 Sum of electronic and zero-point Energies=          -1020.438888
 Sum of electronic and thermal Energies=             -1020.424122
 Sum of electronic and thermal Enthalpies=           -1020.423178
 Sum of electronic and thermal Free Energies=        -1020.482172

                     E (Thermal)             CV                S
                      KCal/Mol        Cal/Mol-Kelvin    Cal/Mol-Kelvin
 Total                  132.205             51.692            124.164
 Electronic               0.000              0.000              0.000
 Translational            0.889              2.981             41.973
 Rotational               0.889              2.981             32.632
 Vibrational            130.427             45.731             49.559
 Vibration     1          0.594              1.981              5.216
 Vibration     2          0.595              1.978              4.821
 Vibration     3          0.597              1.971              4.326
 Vibration     4          0.601              1.958              3.720
 Vibration     5          0.604              1.948              3.421
 Vibration     6          0.608              1.937              3.182
 Vibration     7          0.617              1.905              2.700
 Vibration     8          0.622              1.891              2.550
 Vibration     9          0.633              1.855              2.235
 Vibration    10          0.640              1.834              2.093
 Vibration    11          0.643              1.822              2.025
 Vibration    12          0.652              1.794              1.875
 Vibration    13          0.669              1.744              1.656
 Vibration    14          0.682              1.703              1.510
 Vibration    15          0.737              1.548              1.107
 Vibration    16          0.750              1.513              1.040
 Vibration    17          0.802              1.377              0.818
 Vibration    18          0.824              1.324              0.746
 Vibration    19          0.853              1.255              0.664
 Vibration    20          0.918              1.114              0.520

 Optimization completed.
    -- Stationary point found.
 Normal termination of Gaussian 16 at Thu Dec 10 10:45:01 2020.

 ----------------------------------------------------------------------
 # B3LYP/6-311++G(d,p) empiricaldispersion=gd3bj scf=xqc pop=npa geom=c
 heck
 ----------------------------------------------------------------------

 --------------------------------------
 CID_12924254_JID_4750_Energie_neutraal
 --------------------------------------
 Structure from the checkpoint file:  "JID_4750.chk"
 Charge =  0 Multiplicity = 1

 SCF Done:  E(RB3LYP) =  -1020.84092698     A.U. after   15 cycles
 Normal termination of Gaussian 16 at Thu Dec 10 10:48:19 2020.

 ----------------------------------------------------------------------
 # B3LYP/6-311++G(d,p) empiricaldispersion=gd3bj scf=xqc pop=npa geom=c
 heck
 ----------------------------------------------------------------------

 ------------------------------------
 CID_12924254_JID_4750_Energie_kation
 ------------------------------------
 Structure from the checkpoint file:  "JID_4750.chk"
 Charge =  1 Multiplicity = 2

 SCF Done:  E(UB3LYP) =  -1020.52711878     A.U. after   30 cycles
 Normal termination of Gaussian 16 at Thu Dec 10 10:56:53 2020.
 Gaussian 16:  ES64L-G16RevA.03 25-Dec-2016

 ----------------------------------------------------------------------
 # B3LYP/6-311++G(d,p) empiricaldispersion=gd3bj scf=xqc pop=npa geom=c
 heck
 ----------------------------------------------------------------------

 -----------------------------------
 CID_12924254_JID_4750_Energie_anion
 -----------------------------------
 Structure from the checkpoint file:  "JID_4750.chk"
 Charge = -1 Multiplicity = 2

                         Standard orientation:
 ---------------------------------------------------------------------
 Center     Atomic      Atomic             Coordinates (Angstroms)
 Number     Number       Type             X           Y           Z
 ---------------------------------------------------------------------
      1          6           0        3.549778    1.375111   -0.998809
      2          6           0        3.477743    0.684962    0.359333
      3         16           0        2.776066   -1.011331    0.290403
      4          6           0        1.045355   -0.685728    0.161170
      5          7           0        0.288669   -1.774396    0.046507
      6          6           0       -1.035835   -1.522193   -0.038204
      7          7           0       -1.603311   -0.297816   -0.018016
      8          6           0       -0.722999    0.695049    0.101069
      9          7           0        0.609914    0.583649    0.196371
     10          7           0       -1.203829    1.991336    0.131510
     11          6           0       -2.529506    2.381655    0.051338
     12          8           0       -2.872171    3.545170    0.085270
     13          7           0       -1.850431   -2.588127   -0.153339
     14          6           0       -3.294258   -2.493481   -0.259589
     15          1           0        4.141596    0.790492   -1.709881
     16          1           0        4.015930    2.362323   -0.892283
     17          1           0        2.546279    1.512535   -1.409042
     18          1           0        4.474294    0.540828    0.788872
     19          1           0        2.878596    1.260984    1.067216
     20          1           0       -0.508368    2.723279    0.222708
     21          1           0       -3.215266    1.528112   -0.044551
     22          1           0       -1.390229   -3.485995   -0.168733
     23          1           0       -3.588794   -1.923570   -1.147109
     24          1           0       -3.700179   -3.504154   -0.333783
     25          1           0       -3.722306   -1.999660    0.618913
 ---------------------------------------------------------------------

 SCF Done:  E(UB3LYP) =  -1020.84049077     A.U. after   33 cycles
 SCF Done:  E(UB3LYP) =  -1020.84130302     a.u. after    9 cycles

 The electronic state is 2-A.
 Alpha  occ. eigenvalues --  -88.73520 -18.96378 -14.22593 -14.22279 -14.17785
 Alpha  occ. eigenvalues --  -14.16551 -14.16523 -10.15358 -10.13408 -10.12974
 Alpha  occ. eigenvalues --  -10.12689 -10.09785 -10.09544 -10.06759  -7.82174
 Alpha  occ. eigenvalues --   -5.78551  -5.78146  -5.77613  -0.91808  -0.89893
 Alpha  occ. eigenvalues --   -0.84284  -0.80888  -0.75453  -0.73877  -0.69584
 Alpha  occ. eigenvalues --   -0.62289  -0.59913  -0.55250  -0.52917  -0.51145
 Alpha  occ. eigenvalues --   -0.46852  -0.44382  -0.42127  -0.37500  -0.36189
 Alpha  occ. eigenvalues --   -0.35522  -0.35217  -0.34091  -0.33065  -0.32302
 Alpha  occ. eigenvalues --   -0.30095  -0.29419  -0.29002  -0.28738  -0.27955
 Alpha  occ. eigenvalues --   -0.26035  -0.24321  -0.23244  -0.22362  -0.21058
 Alpha  occ. eigenvalues --   -0.15126  -0.14643  -0.14154  -0.12659  -0.12234
 Alpha  occ. eigenvalues --   -0.12050   0.04672
 Alpha virt. eigenvalues --    0.06348   0.07115   0.09201   0.09484   0.09775
 Alpha virt. eigenvalues --    0.10587   0.10997   0.11447   0.12113   0.12999
 Alpha virt. eigenvalues --    0.13301   0.13611   0.14102   0.14220   0.14626

  Beta  occ. eigenvalues --  -88.73519 -18.96085 -14.22702 -14.22279 -14.17923
  Beta  occ. eigenvalues --  -14.16392 -14.16313 -10.15385 -10.13004 -10.12747
  Beta  occ. eigenvalues --  -10.12342 -10.09785 -10.09515 -10.06753  -7.82174
  Beta  occ. eigenvalues --   -5.78558  -5.78154  -5.77594  -0.91358  -0.89558
  Beta  occ. eigenvalues --   -0.84135  -0.80652  -0.75203  -0.73690  -0.69545
  Beta  occ. eigenvalues --   -0.62147  -0.59843  -0.54717  -0.52807  -0.50949
  Beta  occ. eigenvalues --   -0.46682  -0.44259  -0.41851  -0.37361  -0.36103
  Beta  occ. eigenvalues --   -0.35451  -0.34821  -0.33965  -0.32973  -0.31695
  Beta  occ. eigenvalues --   -0.29916  -0.29212  -0.28903  -0.28023  -0.27656
  Beta  occ. eigenvalues --   -0.25963  -0.24141  -0.22534  -0.21064  -0.20850
  Beta  occ. eigenvalues --   -0.14879  -0.14604  -0.13717  -0.12414  -0.12064
  Beta  occ. eigenvalues --   -0.11421
  Beta virt. eigenvalues --    0.07011   0.07319   0.09097   0.09645   0.09752
  Beta virt. eigenvalues --    0.10170   0.10740   0.11509   0.11639   0.12158
  Beta virt. eigenvalues --    0.12955   0.13310   0.13541   0.14178   0.14609

 Mulliken charges and spin densities:
               1          2
     1  C   -0.423609  -0.120620
     2  C   -0.388667   0.022605
     3  S   -0.065614   0.023987
     4  C   -0.414361   0.109950
     5  N   -0.125383   0.121502
     6  C    0.240867  -0.006018
     7  N   -0.341646   0.088156
     8  C    0.219212   0.194919
     9  N   -0.059454  -0.085869
    10  N   -0.235219  -0.064794
    11  C    0.015582   0.170205
    12  O   -0.383355   0.090314
    13  N   -0.342988   0.080430
    14  C    0.438441  -0.752781
    15  H    0.060564   0.055223
    16  H    0.065124   0.028877
    17  H    0.161168   0.022282
    18  H    0.174948  -0.004604
    19  H    0.165058   0.017041
    20  H    0.296065   0.000090
    21  H    0.182562  -0.030863
    22  H    0.198186   0.122020
    23  H    0.155550   0.013564
    24  H   -0.561802   0.699354
    25  H   -0.031228   0.205032
 Sum of Mulliken charges =  -1.00000   1.00000

 Dipole moment (field-independent basis, Debye):
    X=              5.7844    Y=              0.2573    Z=             -0.0230  Tot=              5.7901
 Quadrupole moment (field-independent basis, Debye-Ang):
   XX=           -137.0034   YY=           -144.1189   ZZ=           -100.9244
   XY=             10.6680   XZ=              1.6580   YZ=             -0.8258

 Summary of Natural Population Analysis:

                                       Natural Population
                Natural  -----------------------------------------------
    Atom  No    Charge         Core      Valence    Rydberg      Total
 -----------------------------------------------------------------------
      C    1   -0.29229      0.99966     2.28651    0.00612     3.29229
      C    2   -0.25451      0.99961     2.24456    0.01035     3.25451
      S    3    0.11987      4.99952     2.86004    0.02057     7.88013
      C    4    0.21041      0.99960     1.76920    0.02079     2.78959
      N    5   -0.28372      0.99962     2.77394    0.01016     3.78372
      C    6    0.31129      0.99961     1.66992    0.01918     2.68871
      N    7   -0.29657      0.99964     2.78866    0.00828     3.79657
      C    8    0.37275      0.99962     1.61054    0.01709     2.62725
      N    9   -0.34250      0.99963     2.83210    0.01076     3.84250
      N   10   -0.32252      0.99966     2.81484    0.00802     3.82252
      C   11    0.30231      0.99976     1.67594    0.02199     2.69769
      O   12   -0.28957      0.99988     3.28307    0.00661     4.28957
      N   13   -0.30485      0.99965     2.79457    0.01063     3.80485
      C   14   -0.17673      0.99965     2.16879    0.00829     3.17673
      H   15    0.09468      0.00000     0.40339    0.00193     0.40532
      H   16    0.09208      0.00000     0.40646    0.00146     0.40792
      H   17    0.11015      0.00000     0.38844    0.00141     0.38985
      H   18    0.09642      0.00000     0.40208    0.00151     0.40358
      H   19    0.11231      0.00000     0.38619    0.00150     0.38769
      H   20    0.19615      0.00000     0.30065    0.00320     0.30385
      H   21    0.06133      0.00000     0.43697    0.00169     0.43867
      H   22    0.19577      0.00000     0.30168    0.00255     0.30423
      H   23    0.09519      0.00000     0.40366    0.00115     0.40481
      H   24    0.09522      0.00000     0.40321    0.00157     0.40478
      H   25    0.09732      0.00000     0.40150    0.00119     0.40268
 =======================================================================
   * Total *   -0.00000     17.99510    37.80690    0.19800    56.00000

 Normal termination of Gaussian 16 at Thu Dec 10 12:10:09 2020.
