 Gaussian 16, Revision A.03,

 -----------------------------------------------------------
 # opt freq B3LYP/6-31G(d) empiricaldispersion=gd3bj scf=xqc
 -----------------------------------------------------------

 -------------------------------
 CID_130973239_JID_2881_neutraal
 -------------------------------
 Symbolic Z-matrix:
 Charge =  0 Multiplicity = 1

 SCF Done:  E(RB3LYP) =  -1199.55293120     A.U. after   15 cycles
 SCF Done:  E(RB3LYP) =  -1199.55846059     A.U. after   12 cycles
 SCF Done:  E(RB3LYP) =  -1199.55881618     A.U. after   11 cycles
 SCF Done:  E(RB3LYP) =  -1199.55884560     A.U. after   10 cycles
 SCF Done:  E(RB3LYP) =  -1199.55885002     A.U. after    9 cycles
 SCF Done:  E(RB3LYP) =  -1199.55885148     A.U. after    8 cycles
 SCF Done:  E(RB3LYP) =  -1199.55885232     A.U. after    8 cycles
 SCF Done:  E(RB3LYP) =  -1199.55885517     A.U. after   10 cycles
 SCF Done:  E(RB3LYP) =  -1199.52182953     A.U. after   13 cycles
 SCF Done:  E(RB3LYP) =  -1199.55879021     A.U. after   13 cycles
 SCF Done:  E(RB3LYP) =  -1199.56125885     A.U. after   12 cycles
 SCF Done:  E(RB3LYP) =  -1199.56138162     A.U. after   11 cycles
 SCF Done:  E(RB3LYP) =  -1199.56140742     A.U. after   10 cycles
 SCF Done:  E(RB3LYP) =  -1199.56141164     A.U. after    9 cycles
 SCF Done:  E(RB3LYP) =  -1199.56141302     A.U. after    8 cycles
 SCF Done:  E(RB3LYP) =  -1199.56141307     A.U. after    7 cycles
 Optimization completed.
    -- Stationary point found.
 Normal termination of Gaussian 16 at Wed Dec  9 18:19:52 2020.

 --------------------------------------------------------------------
 #N Geom=AllCheck Guess=TCheck SCRF=Check GenChk RB3LYP/6-31G(d) Freq
 --------------------------------------------------------------------

 Structure from the checkpoint file:  "JID_2881.chk"
 -------------------------------
 CID_130973239_JID_2881_neutraal
 -------------------------------
 Charge =  0 Multiplicity = 1

 SCF Done:  E(RB3LYP) =  -1199.56141307     A.U. after    1 cycles

  Exact polarizability: 193.128   7.303 152.820   2.002   2.020  60.158
 Approx polarizability: 299.527  22.285 269.964   3.073   2.694  97.154

                      1                      2                      3
                      A                      A                      A
 Frequencies --     90.1989               101.3603               125.1132
 Red. masses --      3.0460                 1.1286                 3.8341
 Frc consts  --      0.0146                 0.0068                 0.0354
 IR Inten    --      2.5375                 2.2858                 0.6506

                      4                      5                      6
                      A                      A                      A
 Frequencies --    165.6363               170.7876               194.8449
 Red. masses --      6.3534                 3.9187                 1.2183
 Frc consts  --      0.1027                 0.0673                 0.0273
 IR Inten    --      1.3075                 5.4775                19.0162

                      7                      8                      9
                      A                      A                      A
 Frequencies --    256.5176               279.8570               300.2781
 Red. masses --      3.2672                 1.0459                 4.5960
 Frc consts  --      0.1267                 0.0483                 0.2442
 IR Inten    --      2.1741                21.9394                 1.4040

                     10                     11                     12
                      A                      A                      A
 Frequencies --    324.0840               348.9867               393.1847
 Red. masses --      5.5448                 4.2783                 7.8143
 Frc consts  --      0.3431                 0.3070                 0.7118
 IR Inten    --      3.9097                 0.6001                 0.0591

                     13                     14                     15
                      A                      A                      A
 Frequencies --    422.5519               432.5363               472.8093
 Red. masses --     11.7841                 3.0921                 5.3777
 Frc consts  --      1.2397                 0.3408                 0.7083
 IR Inten    --      1.2763                 5.1513                 0.6109

                     16                     17                     18
                      A                      A                      A
 Frequencies --    512.9000               530.6330               612.0124
 Red. masses --      4.8212                 4.0333                 1.8267
 Frc consts  --      0.7473                 0.6691                 0.4031
 IR Inten    --      3.5399                25.5123               272.8850

                     19                     20                     21
                      A                      A                      A
 Frequencies --    653.8380               675.7652               697.9463
 Red. masses --      4.5927                 2.7848                 5.2521
 Frc consts  --      1.1568                 0.7493                 1.5074
 IR Inten    --     33.3759                86.4753                 2.4957

                     22                     23                     24
                      A                      A                      A
 Frequencies --    727.6041               751.1456               807.9875
 Red. masses --      4.0453                 4.7244                 1.4810
 Frc consts  --      1.2618                 1.5705                 0.5697
 IR Inten    --      0.1244                12.5050                36.0183

                     25                     26                     27
                      A                      A                      A
 Frequencies --    857.9100               865.7615               929.1962
 Red. masses --      1.7882                 3.6504                 1.2720
 Frc consts  --      0.7754                 1.6121                 0.6471
 IR Inten    --     15.5707                17.5455                 0.2206

                     28                     29                     30
                      A                      A                      A
 Frequencies --    941.2744              1005.2901              1057.8204
 Red. masses --      1.2280                 2.9369                 1.7612
 Frc consts  --      0.6410                 1.7487                 1.1611
 IR Inten    --     15.1926                 3.6823                 6.1090

                     31                     32                     33
                      A                      A                      A
 Frequencies --   1072.5264              1084.0166              1130.8765
 Red. masses --      1.5323                 3.8191                 1.4443
 Frc consts  --      1.0385                 2.6442                 1.0882
 IR Inten    --      7.4846                 1.8025                 0.4552

                     34                     35                     36
                      A                      A                      A
 Frequencies --   1180.9488              1188.9975              1251.7444
 Red. masses --      3.1504                 1.3531                 2.5713
 Frc consts  --      2.5887                 1.1270                 2.3738
 IR Inten    --     26.4398                13.5434                28.2989

                     37                     38                     39
                      A                      A                      A
 Frequencies --   1292.5682              1362.0995              1382.4603
 Red. masses --      1.7480                 3.2627                 5.7987
 Frc consts  --      1.7206                 3.5665                 6.5296
 IR Inten    --      4.3520                28.2193                13.1382

                     40                     41                     42
                      A                      A                      A
 Frequencies --   1439.5519              1497.6420              1501.5119
 Red. masses --      1.2466                 3.1638                 1.8395
 Frc consts  --      1.5220                 4.1809                 2.4435
 IR Inten    --      0.5290                 3.6281                55.7126

                     43                     44                     45
                      A                      A                      A
 Frequencies --   1512.4403              1517.6751              1592.4045
 Red. masses --      1.2268                 1.2984                 5.2310
 Frc consts  --      1.6534                 1.7621                 7.8153
 IR Inten    --     27.9768                12.8238                 1.2738

                     46                     47                     48
                      A                      A                      A
 Frequencies --   1620.5091              1667.1913              1695.4094
 Red. masses --      6.5434                 4.1358                 1.2460
 Frc consts  --     10.1240                 6.7731                 2.1102
 IR Inten    --     15.6089                61.4153               119.5448

                     49                     50                     51
                      A                      A                      A
 Frequencies --   2635.4256              3048.4343              3102.3375
 Red. masses --      1.0389                 1.0386                 1.0995
 Frc consts  --      4.2511                 5.6868                 6.2349
 IR Inten    --     27.5952                30.2524                13.5294

                     52                     53                     54
                      A                      A                      A
 Frequencies --   3145.9786              3181.8835              3190.2947
 Red. masses --      1.1003                 1.0877                 1.0896
 Frc consts  --      6.4160                 6.4881                 6.5340
 IR Inten    --      3.9123                12.0199                 9.5756

                     55                     56                     57
                      A                      A                      A
 Frequencies --   3204.9573              3549.1822              3647.6067
 Red. masses --      1.0941                 1.0480                 1.0979
 Frc consts  --      6.6215                 7.7778                 8.6064
 IR Inten    --     16.6152                12.0442                 7.4573

 - Thermochemistry -
 -------------------
 Temperature   298.150 Kelvin.  Pressure   1.00000 Atm.
 Atom     1 has atomic number  6 and mass  12.00000

 Molecular mass:   195.01764 amu.
 Principal axes and moments of inertia in atomic units:
                           1         2         3
     Eigenvalues --  1578.530013184.581604740.61012
           X            0.99994   0.01103   0.00134
           Y           -0.01104   0.99991   0.00807
           Z           -0.00125  -0.00808   0.99997
 This molecule is an asymmetric top.
 Rotational symmetry number  1.
 Warning -- assumption of classical behavior for rotation
           may cause significant error
 Rotational temperatures (Kelvin)      0.05487     0.02720     0.01827
 Rotational constants (GHZ):           1.14330     0.56671     0.38070
 Zero-point vibrational energy     415119.2 (Joules/Mol)
                                   99.21586 (Kcal/Mol)
 Warning -- explicit consideration of  18 degrees of freedom as
           vibrations may cause significant error
 Vibrational temperatures:    129.78   145.83   180.01   238.31   245.73
          (Kelvin)            280.34   369.07   402.65   432.03   466.28
                              502.11   565.71   607.96   622.32   680.27
                              737.95   763.46   880.55   940.73   972.28
                             1004.19  1046.86  1080.73  1162.51  1234.34
                             1245.64  1336.91  1354.28  1446.39  1521.97
                             1543.13  1559.66  1627.08  1699.12  1710.70
                             1800.98  1859.72  1959.76  1989.05  2071.19
                             2154.77  2160.34  2176.06  2183.60  2291.11
                             2331.55  2398.72  2439.32  3791.79  4386.02
                             4463.57  4526.36  4578.02  4590.12  4611.22
                             5106.48  5248.09

 Zero-point correction=                           0.158111 (Hartree/Particle)
 Thermal correction to Energy=                    0.169821
 Thermal correction to Enthalpy=                  0.170765
 Thermal correction to Gibbs Free Energy=         0.120602
 Sum of electronic and zero-point Energies=          -1199.403303
 Sum of electronic and thermal Energies=             -1199.391592
 Sum of electronic and thermal Enthalpies=           -1199.390648
 Sum of electronic and thermal Free Energies=        -1199.440811

                     E (Thermal)             CV                S
                      KCal/Mol        Cal/Mol-Kelvin    Cal/Mol-Kelvin
 Total                  106.564             44.663            105.577
 Electronic               0.000              0.000              0.000
 Translational            0.889              2.981             41.709
 Rotational               0.889              2.981             31.544
 Vibrational            104.787             38.701             32.323
 Vibration     1          0.602              1.956              3.656
 Vibration     2          0.604              1.948              3.428
 Vibration     3          0.610              1.928              3.020
 Vibration     4          0.624              1.885              2.484
 Vibration     5          0.626              1.878              2.427
 Vibration     6          0.636              1.847              2.181
 Vibration     7          0.666              1.752              1.685
 Vibration     8          0.680              1.711              1.535
 Vibration     9          0.693              1.673              1.415
 Vibration    10          0.709              1.627              1.289
 Vibration    11          0.726              1.577              1.171
 Vibration    12          0.760              1.485              0.988
 Vibration    13          0.785              1.421              0.883
 Vibration    14          0.793              1.399              0.850
 Vibration    15          0.830              1.310              0.730
 Vibration    16          0.868              1.221              0.627
 Vibration    17          0.886              1.182              0.586
 Vibration    18          0.971              1.006              0.429

 Optimization completed.
    -- Stationary point found.
 Normal termination of Gaussian 16 at Wed Dec  9 18:24:28 2020.

 ----------------------------------------------------------------------
 # B3LYP/6-311++G(d,p) empiricaldispersion=gd3bj scf=xqc pop=npa geom=c
 heck
 ----------------------------------------------------------------------

 ---------------------------------------
 CID_130973239_JID_2881_Energie_neutraal
 ---------------------------------------
 Structure from the checkpoint file:  "JID_2881.chk"
 Charge =  0 Multiplicity = 1

 SCF Done:  E(RB3LYP) =  -1199.72706773     A.U. after   17 cycles
 Normal termination of Gaussian 16 at Wed Dec  9 18:26:48 2020.

 ----------------------------------------------------------------------
 # B3LYP/6-311++G(d,p) empiricaldispersion=gd3bj scf=xqc pop=npa geom=c
 heck
 ----------------------------------------------------------------------

 -------------------------------------
 CID_130973239_JID_2881_Energie_kation
 -------------------------------------
 Structure from the checkpoint file:  "JID_2881.chk"
 Charge =  1 Multiplicity = 2

 SCF Done:  E(UB3LYP) =  -1199.45744624     A.U. after   24 cycles
 Normal termination of Gaussian 16 at Wed Dec  9 18:30:37 2020.
 Gaussian 16:  ES64L-G16RevA.03 25-Dec-2016

 ----------------------------------------------------------------------
 # B3LYP/6-311++G(d,p) empiricaldispersion=gd3bj scf=xqc pop=npa geom=c
 heck
 ----------------------------------------------------------------------

 ------------------------------------
 CID_130973239_JID_2881_Energie_anion
 ------------------------------------
 Structure from the checkpoint file:  "JID_2881.chk"
 Charge = -1 Multiplicity = 2

                         Standard orientation:
 ---------------------------------------------------------------------
 Center     Atomic      Atomic             Coordinates (Angstroms)
 Number     Number       Type             X           Y           Z
 ---------------------------------------------------------------------
      1          6           0       -3.499076   -0.381946    0.009567
      2          6           0       -2.004059   -0.422927    0.009999
      3          6           0       -1.116183    0.617528    0.004428
      4          6           0        0.272222    0.202721   -0.007718
      5          6           0        0.392185   -1.204528    0.004731
      6         16           0       -1.185962   -1.982307   -0.001224
      7          6           0        1.646649   -1.814918    0.011970
      8          6           0        2.782288   -1.017130    0.006023
      9          6           0        2.686447    0.393106   -0.012436
     10          6           0        1.426109    0.995911   -0.016662
     11          7           0        3.850607    1.166539   -0.089083
     12         16           0       -1.627558    2.323449   -0.066235
     13          1           0       -3.905756   -0.635111   -0.977502
     14          1           0       -3.842782    0.622270    0.270197
     15          1           0       -3.915392   -1.094848    0.729846
     16          1           0        1.740331   -2.896725    0.022722
     17          1           0        3.765484   -1.480746    0.003503
     18          1           0        1.335365    2.078225   -0.048586
     19          1           0        3.743219    2.119144    0.236908
     20          1           0        4.671119    0.733144    0.316130
     21          1           0       -1.049008    2.723706    1.090303
 ---------------------------------------------------------------------

 SCF Done:  E(UB3LYP) =  -1199.71715405     A.U. after   32 cycles

 The electronic state is 2-A.
 Alpha  occ. eigenvalues --  -88.75775 -88.73897 -14.20165 -10.09938 -10.09434
 Alpha  occ. eigenvalues --  -10.08798 -10.08638 -10.07437 -10.07035 -10.06834
 Alpha  occ. eigenvalues --  -10.05632 -10.04930  -7.84415  -7.82581  -5.80730
 Alpha  occ. eigenvalues --   -5.80388  -5.79936  -5.78952  -5.78597  -5.77976
 Alpha  occ. eigenvalues --   -0.80606  -0.77748  -0.71168  -0.67319  -0.64533
 Alpha  occ. eigenvalues --   -0.62728  -0.58052  -0.56554  -0.49683  -0.47538
 Alpha  occ. eigenvalues --   -0.43222  -0.40157  -0.38352  -0.36501  -0.34532
 Alpha  occ. eigenvalues --   -0.33102  -0.32713  -0.31390  -0.30834  -0.28821
 Alpha  occ. eigenvalues --   -0.28298  -0.26846  -0.25258  -0.24031  -0.22762
 Alpha  occ. eigenvalues --   -0.22588  -0.18388  -0.16772  -0.14202  -0.10788
 Alpha  occ. eigenvalues --   -0.08959   0.04624
 Alpha virt. eigenvalues --    0.06550   0.07307   0.07871   0.08705   0.09728
 Alpha virt. eigenvalues --    0.10071   0.10756   0.11081   0.11276   0.12206
 Alpha virt. eigenvalues --    0.13098   0.13517   0.14252   0.14471   0.14907

  Beta  occ. eigenvalues --  -88.75770 -88.73878 -14.20110 -10.09945 -10.09226
  Beta  occ. eigenvalues --  -10.08794 -10.08663 -10.07439 -10.07003 -10.06776
  Beta  occ. eigenvalues --  -10.05573 -10.04855  -7.84411  -7.82558  -5.80731
  Beta  occ. eigenvalues --   -5.80388  -5.79915  -5.78926  -5.78578  -5.77959
  Beta  occ. eigenvalues --   -0.80529  -0.77627  -0.71013  -0.67219  -0.64403
  Beta  occ. eigenvalues --   -0.62597  -0.57960  -0.56435  -0.49518  -0.47471
  Beta  occ. eigenvalues --   -0.43073  -0.40089  -0.38219  -0.36392  -0.34432
  Beta  occ. eigenvalues --   -0.32881  -0.32597  -0.31294  -0.30758  -0.28688
  Beta  occ. eigenvalues --   -0.28188  -0.26748  -0.25207  -0.23884  -0.22712
  Beta  occ. eigenvalues --   -0.22510  -0.18067  -0.16579  -0.14034  -0.10275
  Beta  occ. eigenvalues --   -0.08739
  Beta virt. eigenvalues --    0.07110   0.07577   0.08087   0.08440   0.09339
  Beta virt. eigenvalues --    0.10176   0.10300   0.10853   0.11196   0.11573
  Beta virt. eigenvalues --    0.12529   0.13193   0.13740   0.14322   0.14712

 Mulliken charges and spin densities:
               1          2
     1  C    0.754643  -0.995426
     2  C    0.214695  -0.110099
     3  C    1.296779  -0.256432
     4  C    1.422662  -0.109888
     5  C   -0.761732   0.205410
     6  S   -0.588890  -0.163211
     7  C   -0.770317   0.424229
     8  C   -0.052440   0.332082
     9  C   -0.874759   0.155469
    10  C   -0.359260  -0.152450
    11  N   -0.219858  -0.079661
    12  S    0.526505  -1.192434
    13  H   -0.130975   0.312526
    14  H   -0.015610   0.140684
    15  H    0.108365   0.025110
    16  H    0.107399   0.026778
    17  H   -0.276266   0.416153
    18  H   -0.236114   0.325984
    19  H   -0.314476   0.562018
    20  H   -0.259447   0.497487
    21  H   -0.570903   0.635668
 Sum of Mulliken charges =  -1.00000   1.00000

 Dipole moment (field-independent basis, Debye):
    X=             -4.9461    Y=             -4.9332    Z=             -0.6907  Tot=              7.0198
 Quadrupole moment (field-independent basis, Debye-Ang):
   XX=           -151.0293   YY=           -120.6858   ZZ=           -108.3688
   XY=             -8.5768   XZ=             -3.8717   YZ=             -5.3763

 Summary of Natural Population Analysis:

                                       Natural Population
                Natural  -----------------------------------------------
    Atom  No    Charge         Core      Valence    Rydberg      Total
 -----------------------------------------------------------------------
      C    1   -0.30347      0.99961     2.29833    0.00553     3.30347
      C    2   -0.04430      0.99939     2.03272    0.01220     3.04430
      C    3   -0.11739      0.99923     2.10507    0.01310     3.11739
      C    4   -0.03323      0.99942     2.02255    0.01126     3.03323
      C    5   -0.10478      0.99938     2.09518    0.01022     3.10478
      S    6    0.17357      4.99942     2.80662    0.02039     7.82643
      C    7   -0.09352      0.99950     2.08428    0.00973     3.09352
      C    8   -0.11669      0.99953     2.10656    0.01060     3.11669
      C    9    0.08358      0.99950     1.90538    0.01154     2.91642
      C   10   -0.10831      0.99948     2.09902    0.00982     3.10831
      N   11   -0.39830      0.99972     2.88777    0.01081     3.89830
      S   12   -0.00419      4.99958     2.98797    0.01664     8.00419
      H   13    0.10667      0.00000     0.39109    0.00224     0.39333
      H   14    0.11460      0.00000     0.38411    0.00129     0.38540
      H   15    0.10145      0.00000     0.39731    0.00124     0.39855
      H   16    0.09804      0.00000     0.40107    0.00089     0.40196
      H   17    0.09684      0.00000     0.40225    0.00091     0.40316
      H   18    0.10649      0.00000     0.39222    0.00129     0.39351
      H   19    0.18804      0.00000     0.30659    0.00537     0.31196
      H   20    0.18456      0.00000     0.31149    0.00394     0.31544
      H   21    0.07033      0.00000     0.42370    0.00597     0.42967
 =======================================================================
   * Total *    0.00000     19.99375    30.84127    0.16498    51.00000

 Normal termination of Gaussian 16 at Wed Dec  9 18:35:03 2020.
