 Gaussian 16, Revision A.03,

 -----------------------------------------------------------
 # opt freq B3LYP/6-31G(d) empiricaldispersion=gd3bj scf=xqc
 -----------------------------------------------------------

 -------------------------------
 CID_120332186_JID_7985_neutraal
 -------------------------------
 Symbolic Z-matrix:
 Charge =  0 Multiplicity = 1

 SCF Done:  E(RB3LYP) =  -1450.49289429     A.U. after   14 cycles
 SCF Done:  E(RB3LYP) =  -1450.49774012     A.U. after   13 cycles
 SCF Done:  E(RB3LYP) =  -1450.49704451     A.U. after   13 cycles
 SCF Done:  E(RB3LYP) =  -1450.50108539     A.U. after   12 cycles
 SCF Done:  E(RB3LYP) =  -1450.50269694     A.U. after   12 cycles
 SCF Done:  E(RB3LYP) =  -1450.50329903     A.U. after   12 cycles
 SCF Done:  E(RB3LYP) =  -1450.50449598     A.U. after   12 cycles
 SCF Done:  E(RB3LYP) =  -1450.50476937     A.U. after   11 cycles
 SCF Done:  E(RB3LYP) =  -1450.50503240     A.U. after   11 cycles
 SCF Done:  E(RB3LYP) =  -1450.50520729     A.U. after   11 cycles
 SCF Done:  E(RB3LYP) =  -1450.50540079     A.U. after    7 cycles
 SCF Done:  E(RB3LYP) =  -1450.50540088     A.U. after    7 cycles
 SCF Done:  E(RB3LYP) =  -1450.50540095     A.U. after    7 cycles
 SCF Done:  E(RB3LYP) =  -1450.50540101     A.U. after    7 cycles
 SCF Done:  E(RB3LYP) =  -1450.50540107     A.U. after    7 cycles
 SCF Done:  E(RB3LYP) =  -1450.50540112     A.U. after    7 cycles
 Optimization completed.
    -- Stationary point found.
 Normal termination of Gaussian 16 at Thu Dec 17 20:20:29 2020.

 --------------------------------------------------------------------
 #N Geom=AllCheck Guess=TCheck SCRF=Check GenChk RB3LYP/6-31G(d) Freq
 --------------------------------------------------------------------

 Structure from the checkpoint file:  "JID_7985.chk"
 -------------------------------
 CID_120332186_JID_7985_neutraal
 -------------------------------
 Charge =  0 Multiplicity = 1

 SCF Done:  E(RB3LYP) =  -1450.50540112     A.U. after    1 cycles

  Exact polarizability: 184.748   2.844 159.164  -2.682  -7.930 148.228
 Approx polarizability: 236.171   2.729 255.358  -6.245 -26.974 244.160

                      1                      2                      3
                      A                      A                      A
 Frequencies --     17.8205                32.8049                50.5289
 Red. masses --      4.2036                 3.9748                 7.6083
 Frc consts  --      0.0008                 0.0025                 0.0114
 IR Inten    --      0.2775                 0.6937                 3.2697

                      4                      5                      6
                      A                      A                      A
 Frequencies --     67.0018               107.1503               115.7172
 Red. masses --      3.6259                 3.8625                 6.2793
 Frc consts  --      0.0096                 0.0261                 0.0495
 IR Inten    --      0.2575                 0.4696                 0.0459

                      7                      8                      9
                      A                      A                      A
 Frequencies --    159.4438               173.0438               191.3154
 Red. masses --      5.0404                 3.5677                 3.2976
 Frc consts  --      0.0755                 0.0629                 0.0711
 IR Inten    --      4.5265                 0.4444                 3.1226

                     10                     11                     12
                      A                      A                      A
 Frequencies --    221.4553               249.5801               263.5025
 Red. masses --      3.6546                 1.1856                 2.2854
 Frc consts  --      0.1056                 0.0435                 0.0935
 IR Inten    --      2.9770                39.8484                 9.3330

                     13                     14                     15
                      A                      A                      A
 Frequencies --    272.8528               286.1152               315.1971
 Red. masses --      2.4507                 8.9548                 3.8585
 Frc consts  --      0.1075                 0.4319                 0.2259
 IR Inten    --      3.3589                 8.5882                 2.5829

                     16                     17                     18
                      A                      A                      A
 Frequencies --    341.2166               370.4270               408.0222
 Red. masses --      2.5281                 2.2319                 3.0406
 Frc consts  --      0.1734                 0.1804                 0.2982
 IR Inten    --      3.1722                 0.3024                 1.5265

                     19                     20                     21
                      A                      A                      A
 Frequencies --    421.6691               449.3725               505.9668
 Red. masses --      3.8384                 2.9961                 3.6421
 Frc consts  --      0.4021                 0.3565                 0.5493
 IR Inten    --      1.7718                13.4428                 4.5133

                     22                     23                     24
                      A                      A                      A
 Frequencies --    534.3572               580.8183               615.1699
 Red. masses --      4.5568                 3.1364                 6.1334
 Frc consts  --      0.7666                 0.6234                 1.3676
 IR Inten    --      0.7040                 1.8256                12.7263

                     25                     26                     27
                      A                      A                      A
 Frequencies --    637.1927               672.7506               693.4923
 Red. masses --      5.1591                 3.6546                 4.6111
 Frc consts  --      1.2341                 0.9745                 1.3066
 IR Inten    --      0.4713                 5.2178                 7.4710

                     28                     29                     30
                      A                      A                      A
 Frequencies --    698.7269               745.1370               766.3114
 Red. masses --      2.5517                 3.5927                 2.8883
 Frc consts  --      0.7340                 1.1753                 0.9993
 IR Inten    --      8.0549                 4.8705                 0.1079

                     31                     32                     33
                      A                      A                      A
 Frequencies --    785.1654               798.0552               809.8312
 Red. masses --      2.8569                 4.0855                 3.6691
 Frc consts  --      1.0377                 1.5331                 1.4177
 IR Inten    --      2.4284                 8.4046                 7.5238

                     34                     35                     36
                      A                      A                      A
 Frequencies --    822.2965               869.6212               877.9258
 Red. masses --      2.4650                 1.8996                 2.4336
 Frc consts  --      0.9820                 0.8464                 1.1051
 IR Inten    --     36.7653                 8.9804                11.4117

                     37                     38                     39
                      A                      A                      A
 Frequencies --    893.6689               918.9290               937.0942
 Red. masses --      2.0117                 1.7015                 2.0040
 Frc consts  --      0.9466                 0.8465                 1.0368
 IR Inten    --      3.2651               158.9479                29.2972

                     40                     41                     42
                      A                      A                      A
 Frequencies --    966.5443               976.4962               986.8853
 Red. masses --      1.8998                 1.8173                 2.2622
 Frc consts  --      1.0457                 1.0210                 1.2981
 IR Inten    --      1.7207                 0.7884                 0.9501

                     43                     44                     45
                      A                      A                      A
 Frequencies --   1005.4931              1014.9362              1028.6602
 Red. masses --      1.6471                 2.4496                 2.6297
 Frc consts  --      0.9812                 1.4867                 1.6394
 IR Inten    --      3.8857                 3.3302                 4.2239

                     46                     47                     48
                      A                      A                      A
 Frequencies --   1041.2433              1050.1322              1066.6897
 Red. masses --      2.7492                 1.8941                 2.3357
 Frc consts  --      1.7561                 1.2307                 1.5658
 IR Inten    --      3.5424                 7.4381                 5.4014

                     49                     50                     51
                      A                      A                      A
 Frequencies --   1091.6669              1103.4870              1136.7553
 Red. masses --      1.5402                 1.8986                 1.5193
 Frc consts  --      1.0814                 1.3621                 1.1567
 IR Inten    --     18.5556                12.2731                 6.2678

                     52                     53                     54
                      A                      A                      A
 Frequencies --   1169.9666              1171.3058              1198.5925
 Red. masses --      1.2155                 1.2697                 1.2987
 Frc consts  --      0.9803                 1.0263                 1.0992
 IR Inten    --      2.4251                19.5217                 4.1799

                     55                     56                     57
                      A                      A                      A
 Frequencies --   1198.7659              1223.0974              1237.6587
 Red. masses --      1.3452                 1.3772                 2.1311
 Frc consts  --      1.1390                 1.2139                 1.9233
 IR Inten    --      2.8034                 4.1398                20.2536

                     58                     59                     60
                      A                      A                      A
 Frequencies --   1243.5625              1250.3322              1252.1952
 Red. masses --      1.3271                 1.4087                 1.3415
 Frc consts  --      1.2092                 1.2976                 1.2393
 IR Inten    --     14.5205                 7.6589                 6.1232

                     61                     62                     63
                      A                      A                      A
 Frequencies --   1264.6919              1274.2370              1298.5007
 Red. masses --      1.1912                 1.6950                 1.2483
 Frc consts  --      1.1226                 1.6216                 1.2401
 IR Inten    --      4.8921                27.7587                 2.6674

                     64                     65                     66
                      A                      A                      A
 Frequencies --   1319.3720              1325.9016              1327.1020
 Red. masses --      1.4476                 1.2509                 1.2704
 Frc consts  --      1.4847                 1.2957                 1.3183
 IR Inten    --      5.7605                12.3588                 8.2279

                     67                     68                     69
                      A                      A                      A
 Frequencies --   1338.8236              1348.8041              1349.9460
 Red. masses --      1.3360                 1.2820                 1.3618
 Frc consts  --      1.4109                 1.3742                 1.4621
 IR Inten    --      1.2867                14.9248                 2.3644

                     70                     71                     72
                      A                      A                      A
 Frequencies --   1354.7335              1357.0573              1373.0001
 Red. masses --      1.2498                 1.3776                 1.3985
 Frc consts  --      1.3514                 1.4948                 1.5533
 IR Inten    --      5.6636                 9.6361                 6.8429

                     73                     74                     75
                      A                      A                      A
 Frequencies --   1377.3706              1404.2068              1438.7402
 Red. masses --      1.5595                 1.4835                 1.3837
 Frc consts  --      1.7431                 1.7234                 1.6876
 IR Inten    --      0.9622                 9.3876                11.5354

                     76                     77                     78
                      A                      A                      A
 Frequencies --   1471.8083              1482.1230              1491.0205
 Red. masses --      4.3491                 1.1614                 1.0983
 Frc consts  --      5.5507                 1.5032                 1.4387
 IR Inten    --    190.3288                23.6327                37.3660

                     79                     80                     81
                      A                      A                      A
 Frequencies --   1502.3011              1516.3727              1535.1433
 Red. masses --      1.0917                 1.0850                 1.0991
 Frc consts  --      1.4517                 1.4699                 1.5261
 IR Inten    --      3.9755                 3.9109                 5.5190

                     82                     83                     84
                      A                      A                      A
 Frequencies --   1542.7758              1551.9505              1697.4148
 Red. masses --      1.0768                 1.0850                 1.0904
 Frc consts  --      1.5101                 1.5397                 1.8511
 IR Inten    --      0.2400                12.2198                27.5144

                     85                     86                     87
                      A                      A                      A
 Frequencies --   1725.8867              3036.5173              3054.9902
 Red. masses --     10.0990                 1.0733                 1.0721
 Frc consts  --     17.7237                 5.8305                 5.8954
 IR Inten    --    276.7222                30.6735                19.3923

                     88                     89                     90
                      A                      A                      A
 Frequencies --   3057.0321              3062.2431              3064.8979
 Red. masses --      1.0694                 1.0798                 1.0595
 Frc consts  --      5.8883                 5.9661                 5.8640
 IR Inten    --     17.6560                 7.2668                19.4694

                     91                     92                     93
                      A                      A                      A
 Frequencies --   3071.6988              3071.7607              3074.0584
 Red. masses --      1.0765                 1.0615                 1.0626
 Frc consts  --      5.9842                 5.9014                 5.9164
 IR Inten    --     38.8486                20.3250                14.3173

                     94                     95                     96
                      A                      A                      A
 Frequencies --   3076.1477              3090.6772              3091.2103
 Red. masses --      1.0753                 1.0853                 1.0822
 Frc consts  --      5.9950                 6.1079                 6.0928
 IR Inten    --     57.1092                42.5844                 0.9206

                     97                     98                     99
                      A                      A                      A
 Frequencies --   3109.6228              3110.1940              3115.2948
 Red. masses --      1.0987                 1.0969                 1.1051
 Frc consts  --      6.2597                 6.2516                 6.3188
 IR Inten    --      9.5857                29.7184                 2.2868

                    100                    101                    102
                      A                      A                      A
 Frequencies --   3128.5394              3129.9243              3137.5679
 Red. masses --      1.1032                 1.1042                 1.1046
 Frc consts  --      6.3620                 6.3736                 6.4066
 IR Inten    --     33.5306                23.5866                 2.0827

                    103                    104                    105
                      A                      A                      A
 Frequencies --   3193.0945              3455.6551              3540.0066
 Red. masses --      1.0899                 1.0492                 1.0919
 Frc consts  --      6.5471                 7.3817                 8.0623
 IR Inten    --      4.2573                 1.6381                 0.9162

 - Thermochemistry -
 -------------------
 Temperature   298.150 Kelvin.  Pressure   1.00000 Atm.
 Atom     1 has atomic number  6 and mass  12.00000

 Molecular mass:   272.10171 amu.
 Principal axes and moments of inertia in atomic units:
                           1         2         3
     Eigenvalues --  2608.516127243.634917841.88462
           X            0.99999   0.00335   0.00238
           Y           -0.00324   0.99886  -0.04761
           Z           -0.00254   0.04761   0.99886
 This molecule is an asymmetric top.
 Rotational symmetry number  1.
 Warning -- assumption of classical behavior for rotation
           may cause significant error
 Rotational temperatures (Kelvin)      0.03320     0.01196     0.01105
 Rotational constants (GHZ):           0.69187     0.24915     0.23014
 Zero-point vibrational energy     839967.7 (Joules/Mol)
                                  200.75710 (Kcal/Mol)
 Warning -- explicit consideration of  24 degrees of freedom as
           vibrations may cause significant error
 Vibrational temperatures:     25.64    47.20    72.70    96.40   154.17
          (Kelvin)            166.49   229.40   248.97   275.26   318.62
                              359.09   379.12   392.57   411.66   453.50
                              490.93   532.96   587.05   606.69   646.55
                              727.97   768.82   835.67   885.09   916.78
                              967.94   997.78  1005.31  1072.09  1102.55
                             1129.68  1148.22  1165.17  1183.10  1251.19
                             1263.14  1285.79  1322.13  1348.27  1390.64
                             1404.96  1419.91  1446.68  1460.27  1480.01
                             1498.12  1510.91  1534.73  1570.67  1587.67
                             1635.54  1683.32  1685.25  1724.51  1724.76
                             1759.76  1780.71  1789.21  1798.95  1801.63
                             1819.61  1833.34  1868.25  1898.28  1907.68
                             1909.40  1926.27  1940.63  1942.27  1949.16
                             1952.50  1975.44  1981.73  2020.34  2070.03
                             2117.60  2132.44  2145.25  2161.48  2181.72
                             2208.73  2219.71  2232.91  2442.20  2483.17
                             4368.87  4395.45  4398.39  4405.88  4409.70
                             4419.49  4419.58  4422.88  4425.89  4446.80
                             4447.56  4474.05  4474.88  4482.21  4501.27
                             4503.26  4514.26  4594.15  4971.92  5093.28

 Zero-point correction=                           0.319927 (Hartree/Particle)
 Thermal correction to Energy=                    0.336458
 Thermal correction to Enthalpy=                  0.337402
 Thermal correction to Gibbs Free Energy=         0.274124
 Sum of electronic and zero-point Energies=          -1450.185474
 Sum of electronic and thermal Energies=             -1450.168943
 Sum of electronic and thermal Enthalpies=           -1450.167999
 Sum of electronic and thermal Free Energies=        -1450.231277

                     E (Thermal)             CV                S
                      KCal/Mol        Cal/Mol-Kelvin    Cal/Mol-Kelvin
 Total                  211.130             64.078            133.180
 Electronic               0.000              0.000              0.000
 Translational            0.889              2.981             42.702
 Rotational               0.889              2.981             33.360
 Vibrational            209.353             58.116             57.118
 Vibration     1          0.593              1.986              6.863
 Vibration     2          0.594              1.983              5.652
 Vibration     3          0.595              1.977              4.797
 Vibration     4          0.598              1.970              4.240
 Vibration     5          0.606              1.944              3.320
 Vibration     6          0.608              1.936              3.171
 Vibration     7          0.621              1.892              2.556
 Vibration     8          0.627              1.876              2.402
 Vibration     9          0.634              1.852              2.215
 Vibration    10          0.648              1.808              1.947
 Vibration    11          0.662              1.763              1.734
 Vibration    12          0.670              1.740              1.638
 Vibration    13          0.676              1.723              1.578
 Vibration    14          0.684              1.699              1.497
 Vibration    15          0.703              1.645              1.335
 Vibration    16          0.721              1.593              1.206
 Vibration    17          0.742              1.533              1.078
 Vibration    18          0.773              1.453              0.934
 Vibration    19          0.784              1.423              0.886
 Vibration    20          0.808              1.362              0.798
 Vibration    21          0.861              1.237              0.643
 Vibration    22          0.889              1.174              0.578
 Vibration    23          0.938              1.073              0.484
 Vibration    24          0.975              1.000              0.424

 Optimization completed.
    -- Stationary point found.
 Normal termination of Gaussian 16 at Thu Dec 17 20:37:45 2020.

 ----------------------------------------------------------------------
 # B3LYP/6-311++G(d,p) empiricaldispersion=gd3bj scf=xqc pop=npa geom=c
 heck
 ----------------------------------------------------------------------

 ---------------------------------------
 CID_120332186_JID_7985_Energie_neutraal
 ---------------------------------------
 Structure from the checkpoint file:  "JID_7985.chk"
 Charge =  0 Multiplicity = 1

 SCF Done:  E(RB3LYP) =  -1450.74565092     A.U. after   15 cycles
 Normal termination of Gaussian 16 at Thu Dec 17 20:44:56 2020.

 ----------------------------------------------------------------------
 # B3LYP/6-311++G(d,p) empiricaldispersion=gd3bj scf=xqc pop=npa geom=c
 heck
 ----------------------------------------------------------------------

 -------------------------------------
 CID_120332186_JID_7985_Energie_kation
 -------------------------------------
 Structure from the checkpoint file:  "JID_7985.chk"
 Charge =  1 Multiplicity = 2

 SCF Done:  E(UB3LYP) =  -1450.45392835     A.U. after   31 cycles
 Normal termination of Gaussian 16 at Thu Dec 17 21:04:26 2020.
 Gaussian 16:  ES64L-G16RevA.03 25-Dec-2016

 ----------------------------------------------------------------------
 # B3LYP/6-311++G(d,p) empiricaldispersion=gd3bj scf=xqc pop=npa geom=c
 heck
 ----------------------------------------------------------------------

 ------------------------------------
 CID_120332186_JID_7985_Energie_anion
 ------------------------------------
 Structure from the checkpoint file:  "JID_7985.chk"
 Charge = -1 Multiplicity = 2

                         Standard orientation:
 ---------------------------------------------------------------------
 Center     Atomic      Atomic             Coordinates (Angstroms)
 Number     Number       Type             X           Y           Z
 ---------------------------------------------------------------------
      1          6           0        2.022472   -1.653878   -0.137661
      2          6           0        2.934121   -0.954179   -1.167970
      3          6           0        3.802440   -0.002066   -0.330141
      4          6           0        2.788018    0.551329    0.698573
      5          6           0        1.864470   -0.654458    1.048548
      6          6           0        0.460293   -0.053020    1.177748
      7          7           0        0.484023    1.087689    0.267512
      8          6           0        1.844512    1.615083    0.096933
      9          6           0       -0.514797    1.644006   -0.456186
     10          8           0       -0.286835    2.532220   -1.280505
     11          6           0       -1.998496    1.229549   -0.330873
     12          6           0       -2.416690    0.319155   -1.492516
     13         16           0       -2.041356   -1.457550   -1.274212
     14          6           0       -3.209649   -1.758131    0.106158
     15          6           0       -2.813034   -1.049498    1.395540
     16         16           0       -2.738328    0.786065    1.304660
     17          7           0        4.932978   -0.735280    0.250837
     18          1           0        1.053720   -1.923937   -0.568702
     19          1           0        2.481447   -2.584466    0.215411
     20          1           0        3.547719   -1.647231   -1.749865
     21          1           0        2.325593   -0.374445   -1.870685
     22          1           0        4.223966    0.805248   -0.940706
     23          1           0        3.298363    0.951587    1.581040
     24          1           0        2.152017   -1.128713    1.991547
     25          1           0       -0.301561   -0.763225    0.869389
     26          1           0        0.250260    0.271939    2.205413
     27          1           0        2.023404    1.790745   -0.967380
     28          1           0        1.938045    2.585330    0.598909
     29          1           0       -2.495525    2.185693   -0.519097
     30          1           0       -3.492452    0.416795   -1.669274
     31          1           0       -1.890854    0.647813   -2.392936
     32          1           0       -3.215638   -2.840689    0.269297
     33          1           0       -4.212715   -1.456910   -0.214094
     34          1           0       -1.870833   -1.455126    1.771576
     35          1           0       -3.577159   -1.226878    2.160914
     36          1           0        5.442380   -0.127556    0.891666
     37          1           0        4.588489   -1.510176    0.817085
 ---------------------------------------------------------------------

 SCF Done:  E(UB3LYP) =  -1450.73880191     A.U. after   31 cycles

 The electronic state is 2-A.
 Alpha  occ. eigenvalues --  -88.75997 -88.75899 -18.99616 -14.25355 -14.20012
 Alpha  occ. eigenvalues --  -10.18313 -10.13523 -10.12859 -10.12152 -10.11849
 Alpha  occ. eigenvalues --  -10.11005 -10.10824 -10.10683 -10.08192 -10.08105
 Alpha  occ. eigenvalues --  -10.07229 -10.07053  -7.84631  -7.84497  -5.81008
 Alpha  occ. eigenvalues --   -5.80912  -5.80679  -5.80511  -5.79992  -5.79854
 Alpha  occ. eigenvalues --   -0.95118  -0.85585  -0.80267  -0.76397  -0.72508
 Alpha  occ. eigenvalues --   -0.69861  -0.68063  -0.65861  -0.64936  -0.58164
 Alpha  occ. eigenvalues --   -0.57522  -0.55600  -0.54790  -0.49221  -0.47571
 Alpha  occ. eigenvalues --   -0.46676  -0.45310  -0.41996  -0.40926  -0.40568
 Alpha  occ. eigenvalues --   -0.38664  -0.38080  -0.36365  -0.36085  -0.35472
 Alpha  occ. eigenvalues --   -0.34419  -0.33944  -0.33332  -0.33072  -0.31762
 Alpha  occ. eigenvalues --   -0.31590  -0.30736  -0.28744  -0.27946  -0.26668
 Alpha  occ. eigenvalues --   -0.25076  -0.24769  -0.24510  -0.24197  -0.24022
 Alpha  occ. eigenvalues --   -0.23513  -0.23228  -0.22008  -0.17579  -0.15689
 Alpha  occ. eigenvalues --   -0.15314  -0.14955  -0.14108   0.03758
 Alpha virt. eigenvalues --    0.05454   0.06787   0.07625   0.07759   0.07956
 Alpha virt. eigenvalues --    0.08157   0.08921   0.09442   0.09741   0.10085
 Alpha virt. eigenvalues --    0.10481   0.10530   0.11030   0.11691   0.12092

  Beta  occ. eigenvalues --  -88.75995 -88.75896 -18.99603 -14.25361 -14.19978
  Beta  occ. eigenvalues --  -10.18301 -10.13524 -10.12856 -10.12119 -10.11816
  Beta  occ. eigenvalues --  -10.11000 -10.10810 -10.10681 -10.08171 -10.08089
  Beta  occ. eigenvalues --  -10.07226 -10.07037  -7.84629  -7.84494  -5.81003
  Beta  occ. eigenvalues --   -5.80907  -5.80676  -5.80508  -5.79989  -5.79852
  Beta  occ. eigenvalues --   -0.95096  -0.85573  -0.80224  -0.76375  -0.72463
  Beta  occ. eigenvalues --   -0.69829  -0.68038  -0.65832  -0.64910  -0.58125
  Beta  occ. eigenvalues --   -0.57482  -0.55569  -0.54749  -0.49174  -0.47539
  Beta  occ. eigenvalues --   -0.46636  -0.45272  -0.41947  -0.40899  -0.40543
  Beta  occ. eigenvalues --   -0.38624  -0.38042  -0.36337  -0.36050  -0.35445
  Beta  occ. eigenvalues --   -0.34378  -0.33909  -0.33299  -0.33045  -0.31734
  Beta  occ. eigenvalues --   -0.31558  -0.30712  -0.28715  -0.27903  -0.26639
  Beta  occ. eigenvalues --   -0.25050  -0.24738  -0.24484  -0.24172  -0.24000
  Beta  occ. eigenvalues --   -0.23474  -0.23197  -0.21977  -0.17565  -0.15661
  Beta  occ. eigenvalues --   -0.15292  -0.14929  -0.14093
  Beta virt. eigenvalues --    0.06199   0.06386   0.07123   0.08057   0.08183
  Beta virt. eigenvalues --    0.08263   0.08494   0.09264   0.09516   0.10043
  Beta virt. eigenvalues --    0.10311   0.10726   0.10888   0.11281   0.11904

 Mulliken charges and spin densities:
               1          2
     1  C    0.400170  -0.867207
     2  C   -0.578705   0.140002
     3  C    0.597366  -1.178393
     4  C   -0.173050   0.618243
     5  C    0.450326  -0.503260
     6  C   -0.644168   0.204782
     7  N    0.120035  -0.031708
     8  C   -0.256804  -0.371506
     9  C   -0.812135  -0.021834
    10  O   -0.300024   0.006115
    11  C    0.780903   0.141368
    12  C   -0.840387  -0.153222
    13  S    0.157552   0.305836
    14  C    0.187329  -1.173851
    15  C    0.054567  -0.260296
    16  S    0.344020  -0.265265
    17  N   -0.317796   0.041926
    18  H    0.011498   0.115875
    19  H   -0.157779   0.333881
    20  H    0.229195  -0.030861
    21  H    0.112422   0.037531
    22  H    0.169766   0.022453
    23  H   -0.217278   0.491394
    24  H   -0.740992   1.006743
    25  H    0.898743  -0.824529
    26  H   -0.118839   0.349655
    27  H    0.213625   0.002657
    28  H    0.023968   0.170565
    29  H    0.289373   0.006229
    30  H    0.164785   0.055058
    31  H    0.265745  -0.013036
    32  H   -0.482772   0.731690
    33  H    0.144101   0.024931
    34  H   -0.288261   0.479149
    35  H   -0.701183   0.963378
    36  H   -0.055779   0.277297
    37  H    0.070465   0.168208
 Sum of Mulliken charges =  -1.00000   1.00000

 Dipole moment (field-independent basis, Debye):
    X=             -2.5607    Y=              3.7872    Z=             -5.5952  Tot=              7.2254
 Quadrupole moment (field-independent basis, Debye-Ang):
   XX=           -200.5687   YY=           -170.9436   ZZ=           -164.5309
   XY=             -4.4841   XZ=              0.0635   YZ=             10.7324

 Summary of Natural Population Analysis:

                                       Natural Population
                Natural  -----------------------------------------------
    Atom  No    Charge         Core      Valence    Rydberg      Total
 -----------------------------------------------------------------------
      C    1   -0.19931      0.99963     2.19013    0.00955     3.19931
      C    2   -0.19600      0.99961     2.18850    0.00789     3.19600
      C    3   -0.00867      0.99958     1.99600    0.01309     3.00867
      C    4   -0.12086      0.99957     2.10844    0.01284     3.12086
      C    5   -0.11395      0.99959     2.10063    0.01373     3.11395
      C    6   -0.08544      0.99958     2.07393    0.01193     3.08544
      N    7   -0.24604      0.99962     2.73680    0.00962     3.74604
      C    8   -0.08271      0.99961     2.07165    0.01146     3.08271
      C    9    0.34231      0.99957     1.63440    0.02371     2.65769
      O   10   -0.33511      0.99988     3.32975    0.00548     4.33511
      C   11   -0.20822      0.99947     2.19580    0.01295     3.20822
      C   12   -0.25269      0.99954     2.24327    0.00988     3.25269
      S   13    0.09390      4.99962     2.88762    0.01886     7.90610
      C   14   -0.25698      0.99958     2.24366    0.01375     3.25698
      C   15   -0.25619      0.99956     2.24370    0.01292     3.25619
      S   16    0.09569      4.99961     2.88688    0.01781     7.90431
      N   17   -0.42146      0.99977     2.91177    0.00992     3.92146
      H   18    0.10637      0.00000     0.39225    0.00138     0.39363
      H   19    0.10003      0.00000     0.39877    0.00121     0.39997
      H   20    0.10456      0.00000     0.39450    0.00094     0.39544
      H   21    0.09827      0.00000     0.40066    0.00107     0.40173
      H   22    0.09047      0.00000     0.40819    0.00134     0.40953
      H   23    0.10655      0.00000     0.39125    0.00220     0.39345
      H   24    0.11084      0.00000     0.38525    0.00391     0.38916
      H   25    0.10519      0.00000     0.39181    0.00299     0.39481
      H   26    0.09885      0.00000     0.39962    0.00153     0.40115
      H   27    0.10473      0.00000     0.39409    0.00118     0.39527
      H   28    0.09926      0.00000     0.39979    0.00095     0.40074
      H   29    0.12180      0.00000     0.37667    0.00153     0.37820
      H   30    0.10364      0.00000     0.39503    0.00134     0.39636
      H   31    0.11680      0.00000     0.38211    0.00109     0.38320
      H   32    0.11562      0.00000     0.38217    0.00220     0.38438
      H   33    0.10117      0.00000     0.39728    0.00156     0.39883
      H   34    0.10416      0.00000     0.39342    0.00242     0.39584
      H   35    0.11366      0.00000     0.38403    0.00230     0.38634
      H   36    0.17539      0.00000     0.32284    0.00178     0.32461
      H   37    0.17434      0.00000     0.32338    0.00228     0.32566
 =======================================================================
   * Total *    0.00000     24.99340    47.75604    0.25056    73.00000

 Normal termination of Gaussian 16 at Thu Dec 17 21:23:27 2020.
