 Gaussian 16, Revision A.03,

 -----------------------------------------------------------
 # opt freq B3LYP/6-31G(d) empiricaldispersion=gd3bj scf=xqc
 -----------------------------------------------------------

 -------------------------------
 CID_151049848_JID_7150_neutraal
 -------------------------------
 Symbolic Z-matrix:
 Charge =  0 Multiplicity = 1

 SCF Done:  E(RB3LYP) =  -872.515597322     A.U. after   16 cycles
 SCF Done:  E(RB3LYP) =  -872.519207017     A.U. after   15 cycles
 SCF Done:  E(RB3LYP) =  -872.512140131     A.U. after   17 cycles
 SCF Done:  E(RB3LYP) =  -872.521807257     A.U. after   14 cycles
 SCF Done:  E(RB3LYP) =  -872.522017109     A.U. after   15 cycles
 SCF Done:  E(RB3LYP) =  -872.522175153     A.U. after   17 cycles
 SCF Done:  E(RB3LYP) =  -872.523204111     A.U. after   13 cycles
 SCF Done:  E(RB3LYP) =  -872.523490031     A.U. after   15 cycles
 SCF Done:  E(RB3LYP) =  -872.523642980     A.U. after   14 cycles
 SCF Done:  E(RB3LYP) =  -872.523767390     A.U. after   14 cycles
 SCF Done:  E(RB3LYP) =  -872.524311360     A.U. after   12 cycles
 SCF Done:  E(RB3LYP) =  -872.524320884     A.U. after   12 cycles
 SCF Done:  E(RB3LYP) =  -872.524330212     A.U. after   11 cycles
 SCF Done:  E(RB3LYP) =  -872.524332240     A.U. after   12 cycles
 SCF Done:  E(RB3LYP) =  -872.524332503     A.U. after   10 cycles
 SCF Done:  E(RB3LYP) =  -872.524332561     A.U. after    8 cycles
 Optimization completed.
    -- Stationary point found.
 Normal termination of Gaussian 16 at Mon Dec 14 13:26:21 2020.

 --------------------------------------------------------------------
 #N Geom=AllCheck Guess=TCheck SCRF=Check GenChk RB3LYP/6-31G(d) Freq
 --------------------------------------------------------------------

 Structure from the checkpoint file:  "JID_7150.chk"
 -------------------------------
 CID_151049848_JID_7150_neutraal
 -------------------------------
 Charge =  0 Multiplicity = 1

 SCF Done:  E(RB3LYP) =  -872.524332561     A.U. after    1 cycles

  Exact polarizability: 206.386   5.861 129.394   1.385 -15.541  93.012
 Approx polarizability: 304.415  21.792 217.088   3.306 -37.602 181.977

                      1                      2                      3
                      A                      A                      A
 Frequencies --     27.6867                46.3742                56.3800
 Red. masses --      6.5440                 4.8603                 5.2783
 Frc consts  --      0.0030                 0.0062                 0.0099
 IR Inten    --      0.8327                 1.0366                 1.1786

                      4                      5                      6
                      A                      A                      A
 Frequencies --     61.0856                80.4125               107.0844
 Red. masses --     11.2232                 3.1868                 3.9706
 Frc consts  --      0.0247                 0.0121                 0.0268
 IR Inten    --      0.7865                 4.6647                 1.1733

                      7                      8                      9
                      A                      A                      A
 Frequencies --    115.5996               129.5996               171.6090
 Red. masses --      3.0239                 2.1753                 4.7283
 Frc consts  --      0.0238                 0.0215                 0.0820
 IR Inten    --      3.1607                 1.2136                 5.1449

                     10                     11                     12
                      A                      A                      A
 Frequencies --    197.6262               229.1098               253.9495
 Red. masses --      3.6920                 3.5435                 1.5481
 Frc consts  --      0.0850                 0.1096                 0.0588
 IR Inten    --      3.7263                 0.3172                 1.5885

                     13                     14                     15
                      A                      A                      A
 Frequencies --    280.8125               290.4668               341.8577
 Red. masses --      3.5432                 4.9033                 3.3579
 Frc consts  --      0.1646                 0.2437                 0.2312
 IR Inten    --      4.1482                 0.3056                 6.5922

                     16                     17                     18
                      A                      A                      A
 Frequencies --    354.5605               383.7922               421.7191
 Red. masses --      4.9516                 6.6911                 5.1434
 Frc consts  --      0.3668                 0.5807                 0.5390
 IR Inten    --      3.0356                 0.8414                 1.0426

                     19                     20                     21
                      A                      A                      A
 Frequencies --    427.4813               495.5577               524.2372
 Red. masses --      3.7471                 4.6651                 4.9812
 Frc consts  --      0.4034                 0.6750                 0.8066
 IR Inten    --      2.7710                 4.1272                 4.7743

                     22                     23                     24
                      A                      A                      A
 Frequencies --    548.9795               609.8499               626.2003
 Red. masses --      3.0359                 6.4984                 5.9997
 Frc consts  --      0.5391                 1.4240                 1.3861
 IR Inten    --      6.2838                20.0099                10.0893

                     25                     26                     27
                      A                      A                      A
 Frequencies --    653.8088               683.3990               738.1552
 Red. masses --      7.0263                 5.3967                 5.0732
 Frc consts  --      1.7696                 1.4850                 1.6286
 IR Inten    --      1.0788                27.9414                10.7516

                     28                     29                     30
                      A                      A                      A
 Frequencies --    757.0519               774.6896               810.2691
 Red. masses --      6.1402                 8.9605                 6.7182
 Frc consts  --      2.0734                 3.1684                 2.5987
 IR Inten    --      4.7526                 5.4937                 3.6352

                     31                     32                     33
                      A                      A                      A
 Frequencies --    826.1719               840.8591               850.1061
 Red. masses --      1.2606                 4.8155                 2.0692
 Frc consts  --      0.5070                 2.0060                 0.8810
 IR Inten    --      4.3375                19.3768                27.2728

                     34                     35                     36
                      A                      A                      A
 Frequencies --    911.8942               960.6028               962.4248
 Red. masses --      4.7753                 1.3209                 1.3898
 Frc consts  --      2.3396                 0.7181                 0.7585
 IR Inten    --     34.2159                 1.9095                 2.5224

                     37                     38                     39
                      A                      A                      A
 Frequencies --    974.1735              1036.1366              1063.8282
 Red. masses --      5.6594                 2.6542                 2.1868
 Frc consts  --      3.1644                 1.6789                 1.4582
 IR Inten    --     23.9408                 0.5836                 7.3320

                     40                     41                     42
                      A                      A                      A
 Frequencies --   1077.5548              1079.7129              1156.2828
 Red. masses --      3.5606                 1.9084                 1.3364
 Frc consts  --      2.4359                 1.3108                 1.0527
 IR Inten    --     43.4875                13.2969                 8.0374

                     43                     44                     45
                      A                      A                      A
 Frequencies --   1182.4939              1185.5249              1218.7749
 Red. masses --      3.4341                 1.2709                 1.2465
 Frc consts  --      2.8292                 1.0524                 1.0909
 IR Inten    --      1.1786                 0.7752                43.6647

                     46                     47                     48
                      A                      A                      A
 Frequencies --   1220.8459              1289.8082              1315.5811
 Red. masses --      1.2956                 4.3459                 4.0470
 Frc consts  --      1.1378                 4.2597                 4.1268
 IR Inten    --     48.0738                97.5822               260.1246

                     49                     50                     51
                      A                      A                      A
 Frequencies --   1354.5561              1365.7189              1386.8715
 Red. masses --      1.3224                 7.9942                11.5921
 Frc consts  --      1.4296                 8.7851                13.1366
 IR Inten    --      1.8041                89.7085               203.6513

                     52                     53                     54
                      A                      A                      A
 Frequencies --   1410.8596              1439.8890              1473.3845
 Red. masses --      5.3408                 1.4364                 3.1096
 Frc consts  --      6.2636                 1.7546                 3.9773
 IR Inten    --     99.5827                 7.3031                 5.0787

                     55                     56                     57
                      A                      A                      A
 Frequencies --   1495.8006              1500.4157              1510.4347
 Red. masses --      1.0583                 1.2030                 1.0747
 Frc consts  --      1.3951                 1.5956                 1.4445
 IR Inten    --     12.3568                16.9887                14.8606

                     58                     59                     60
                      A                      A                      A
 Frequencies --   1522.5460              1533.7287              1569.0376
 Red. masses --      1.0472                 1.0607                 2.4672
 Frc consts  --      1.4302                 1.4701                 3.5786
 IR Inten    --      6.6543                42.3408                74.1245

                     61                     62                     63
                      A                      A                      A
 Frequencies --   1624.9924              1642.2603              1653.1871
 Red. masses --      6.5158                12.0600                13.5911
 Frc consts  --     10.1373                19.1638                21.8851
 IR Inten    --     28.5535               206.7392               228.3104

                     64                     65                     66
                      A                      A                      A
 Frequencies --   1674.2740              1728.6187              3034.9911
 Red. masses --      5.6064                 9.9354                 1.0343
 Frc consts  --      9.2595                17.4919                 5.6134
 IR Inten    --    191.9044                12.1971                52.0953

                     67                     68                     69
                      A                      A                      A
 Frequencies --   3064.1283              3097.8975              3130.3049
 Red. masses --      1.0439                 1.1071                 1.0956
 Frc consts  --      5.7748                 6.2601                 6.3253
 IR Inten    --      4.6179                35.1949                 1.9720

                     70                     71                     72
                      A                      A                      A
 Frequencies --   3168.9565              3202.7707              3205.2163
 Red. masses --      1.1006                 1.0990                 1.0891
 Frc consts  --      6.5117                 6.6418                 6.5920
 IR Inten    --     23.2517                 0.6085                 5.3174

                     73                     74                     75
                      A                      A                      A
 Frequencies --   3212.1523              3226.8369              3238.5593
 Red. masses --      1.0896                 1.0943                 1.0922
 Frc consts  --      6.6241                 6.7136                 6.7490
 IR Inten    --      2.4489                 4.6384                 7.3598

 - Thermochemistry -
 -------------------
 Temperature   298.150 Kelvin.  Pressure   1.00000 Atm.
 Atom     1 has atomic number  6 and mass  12.00000

 Molecular mass:   238.05897 amu.
 Principal axes and moments of inertia in atomic units:
                           1         2         3
     Eigenvalues --  2319.558645894.574437498.42516
           X            0.99999  -0.00326   0.00393
           Y            0.00335   0.99970  -0.02419
           Z           -0.00385   0.02420   0.99970
 This molecule is an asymmetric top.
 Rotational symmetry number  1.
 Warning -- assumption of classical behavior for rotation
           may cause significant error
 Rotational temperatures (Kelvin)      0.03734     0.01469     0.01155
 Rotational constants (GHZ):           0.77805     0.30617     0.24068
 Zero-point vibrational energy     525283.7 (Joules/Mol)
                                  125.54581 (Kcal/Mol)
 Warning -- explicit consideration of  23 degrees of freedom as
           vibrations may cause significant error
 Vibrational temperatures:     39.84    66.72    81.12    87.89   115.70
          (Kelvin)            154.07   166.32   186.46   246.91   284.34
                              329.64   365.38   404.03   417.92   491.86
                              510.13   552.19   606.76   615.05   713.00
                              754.26   789.86   877.44   900.96   940.68
                              983.26  1062.04  1089.23  1114.61  1165.80
                             1188.68  1209.81  1223.11  1312.01  1382.09
                             1384.71  1401.62  1490.77  1530.61  1550.36
                             1553.47  1663.63  1701.34  1705.71  1753.55
                             1756.52  1855.75  1892.83  1948.90  1964.96
                             1995.40  2029.91  2071.68  2119.87  2152.12
                             2158.76  2173.18  2190.60  2206.69  2257.50
                             2338.00  2362.85  2378.57  2408.91  2487.10
                             4366.68  4408.60  4457.18  4503.81  4559.42
                             4608.07  4611.59  4621.57  4642.70  4659.56

 Zero-point correction=                           0.200070 (Hartree/Particle)
 Thermal correction to Energy=                    0.216027
 Thermal correction to Enthalpy=                  0.216972
 Thermal correction to Gibbs Free Energy=         0.154776
 Sum of electronic and zero-point Energies=           -872.324263
 Sum of electronic and thermal Energies=              -872.308305
 Sum of electronic and thermal Enthalpies=            -872.307361
 Sum of electronic and thermal Free Energies=         -872.369556

                     E (Thermal)             CV                S
                      KCal/Mol        Cal/Mol-Kelvin    Cal/Mol-Kelvin
 Total                  135.559             57.336            130.902
 Electronic               0.000              0.000              0.000
 Translational            0.889              2.981             42.303
 Rotational               0.889              2.981             32.994
 Vibrational            133.782             51.374             55.604
 Vibration     1          0.593              1.984              5.989
 Vibration     2          0.595              1.979              4.966
 Vibration     3          0.596              1.975              4.580
 Vibration     4          0.597              1.973              4.422
 Vibration     5          0.600              1.962              3.881
 Vibration     6          0.606              1.944              3.321
 Vibration     7          0.608              1.936              3.173
 Vibration     8          0.612              1.924              2.952
 Vibration     9          0.626              1.877              2.418
 Vibration    10          0.637              1.843              2.155
 Vibration    11          0.652              1.797              1.886
 Vibration    12          0.665              1.756              1.703
 Vibration    13          0.680              1.709              1.529
 Vibration    14          0.686              1.691              1.471
 Vibration    15          0.721              1.592              1.203
 Vibration    16          0.730              1.566              1.146
 Vibration    17          0.753              1.505              1.024
 Vibration    18          0.784              1.423              0.886
 Vibration    19          0.789              1.410              0.867
 Vibration    20          0.851              1.260              0.669
 Vibration    21          0.879              1.196              0.600
 Vibration    22          0.904              1.142              0.546
 Vibration    23          0.969              1.011              0.433

 Optimization completed.
    -- Stationary point found.
 Normal termination of Gaussian 16 at Mon Dec 14 13:35:35 2020.

 ----------------------------------------------------------------------
 # B3LYP/6-311++G(d,p) empiricaldispersion=gd3bj scf=xqc pop=npa geom=c
 heck
 ----------------------------------------------------------------------

 ---------------------------------------
 CID_151049848_JID_7150_Energie_neutraal
 ---------------------------------------
 Structure from the checkpoint file:  "JID_7150.chk"
 Charge =  0 Multiplicity = 1

 SCF Done:  E(RB3LYP) =  -872.776636351     A.U. after   17 cycles
 Normal termination of Gaussian 16 at Mon Dec 14 13:39:48 2020.

 ----------------------------------------------------------------------
 # B3LYP/6-311++G(d,p) empiricaldispersion=gd3bj scf=xqc pop=npa geom=c
 heck
 ----------------------------------------------------------------------

 -------------------------------------
 CID_151049848_JID_7150_Energie_kation
 -------------------------------------
 Structure from the checkpoint file:  "JID_7150.chk"
 Charge =  1 Multiplicity = 2

 SCF Done:  E(UB3LYP) =  -872.466037708     A.U. after   27 cycles
 Normal termination of Gaussian 16 at Mon Dec 14 13:49:34 2020.
 Gaussian 16:  ES64L-G16RevA.03 25-Dec-2016

 ----------------------------------------------------------------------
 # B3LYP/6-311++G(d,p) empiricaldispersion=gd3bj scf=xqc pop=npa geom=c
 heck
 ----------------------------------------------------------------------

 ------------------------------------
 CID_151049848_JID_7150_Energie_anion
 ------------------------------------
 Structure from the checkpoint file:  "JID_7150.chk"
 Charge = -1 Multiplicity = 2

                         Standard orientation:
 ---------------------------------------------------------------------
 Center     Atomic      Atomic             Coordinates (Angstroms)
 Number     Number       Type             X           Y           Z
 ---------------------------------------------------------------------
      1          6           0        3.713268    0.660011   -0.211591
      2          6           0        2.236602    0.581648    0.009752
      3          6           0        1.379201   -0.450047   -0.048935
      4          6           0       -0.087622   -0.397025    0.005493
      5          6           0       -0.805463   -1.293018    0.819415
      6          6           0       -2.184204   -1.229178    0.893147
      7          6           0       -2.887972   -0.269641    0.145736
      8          6           0       -2.187739    0.617568   -0.680159
      9          6           0       -0.798536    0.543911   -0.746406
     10          8           0       -4.236749   -0.288885    0.287776
     11          6           0       -5.002465    0.661593   -0.440554
     12          7           0        1.956630   -1.805867   -0.251824
     13          8           0        3.034537   -2.064791    0.283782
     14          8           0        1.301376   -2.586943   -0.933983
     15          7           0        1.644311    1.916066    0.296790
     16          8           0        1.753995    2.764486   -0.586451
     17          8           0        1.138301    2.084864    1.397649
     18          1           0        4.100220   -0.253870   -0.656845
     19          1           0        4.228600    0.813783    0.744412
     20          1           0        3.927480    1.515061   -0.858925
     21          1           0       -0.274492   -2.039016    1.402325
     22          1           0       -2.747130   -1.909504    1.522886
     23          1           0       -2.707352    1.356403   -1.277389
     24          1           0       -0.265896    1.227690   -1.399162
     25          1           0       -4.733922    1.687965   -0.161169
     26          1           0       -4.873266    0.533098   -1.522503
     27          1           0       -6.042920    0.472231   -0.173961
 ---------------------------------------------------------------------

 SCF Done:  E(UB3LYP) =  -872.837159433     A.U. after   23 cycles

 The electronic state is 2-A.
 Alpha  occ. eigenvalues --  -19.06727 -18.99535 -18.99404 -18.98179 -18.98174
 Alpha  occ. eigenvalues --  -14.37082 -14.36464 -10.14865 -10.13409 -10.08909
 Alpha  occ. eigenvalues --  -10.08601 -10.07151 -10.07141 -10.06926 -10.06783
 Alpha  occ. eigenvalues --  -10.06724 -10.05113  -1.07180  -1.06122  -0.98500
 Alpha  occ. eigenvalues --   -0.90172  -0.89034  -0.75797  -0.72046  -0.66776
 Alpha  occ. eigenvalues --   -0.65015  -0.63019  -0.59505  -0.57228  -0.51357
 Alpha  occ. eigenvalues --   -0.50257  -0.47932  -0.44542  -0.41991  -0.40864
 Alpha  occ. eigenvalues --   -0.40166  -0.39133  -0.38758  -0.37336  -0.36986
 Alpha  occ. eigenvalues --   -0.36171  -0.34843  -0.34523  -0.32612  -0.31919
 Alpha  occ. eigenvalues --   -0.31181  -0.30295  -0.28767  -0.28387  -0.27286
 Alpha  occ. eigenvalues --   -0.26059  -0.23591  -0.23267  -0.18034  -0.17261
 Alpha  occ. eigenvalues --   -0.16520  -0.16473  -0.15203  -0.14806  -0.14380
 Alpha  occ. eigenvalues --   -0.12448  -0.11088   0.00408
 Alpha virt. eigenvalues --    0.06017   0.06361   0.08733   0.08806   0.09350
 Alpha virt. eigenvalues --    0.09544   0.10155   0.10351   0.11520   0.12153
 Alpha virt. eigenvalues --    0.13028   0.13522   0.14080   0.15192   0.15625

  Beta  occ. eigenvalues --  -19.06720 -18.99205 -18.99120 -18.97849 -18.97814
  Beta  occ. eigenvalues --  -14.36686 -14.36068 -10.14865 -10.13383 -10.08634
  Beta  occ. eigenvalues --  -10.08529 -10.07152 -10.07149 -10.06911 -10.06791
  Beta  occ. eigenvalues --  -10.06705 -10.05115  -1.06498  -1.05421  -0.98482
  Beta  occ. eigenvalues --   -0.89592  -0.88393  -0.75709  -0.71598  -0.66618
  Beta  occ. eigenvalues --   -0.64926  -0.62715  -0.59164  -0.56806  -0.51278
  Beta  occ. eigenvalues --   -0.50047  -0.47305  -0.44515  -0.41533  -0.40299
  Beta  occ. eigenvalues --   -0.39809  -0.39110  -0.38167  -0.36333  -0.35815
  Beta  occ. eigenvalues --   -0.35328  -0.34610  -0.34007  -0.32417  -0.31843
  Beta  occ. eigenvalues --   -0.30879  -0.29979  -0.28706  -0.28097  -0.27266
  Beta  occ. eigenvalues --   -0.25924  -0.23526  -0.23194  -0.17364  -0.16260
  Beta  occ. eigenvalues --   -0.15531  -0.15127  -0.14459  -0.13986  -0.13953
  Beta  occ. eigenvalues --   -0.12032  -0.10350
  Beta virt. eigenvalues --    0.06026   0.06940   0.08708   0.08914   0.09425
  Beta virt. eigenvalues --    0.09610   0.10095   0.10199   0.10352   0.11553
  Beta virt. eigenvalues --    0.12193   0.13094   0.13535   0.14140   0.15253

 Mulliken charges and spin densities:
               1          2
     1  C   -0.497310   0.008568
     2  C   -0.842327   0.158187
     3  C   -0.046657   0.057179
     4  C    1.773525  -0.032906
     5  C   -0.026949   0.050102
     6  C   -0.778841  -0.027016
     7  C   -0.365345   0.010370
     8  C    0.273304   0.032187
     9  C   -0.858328  -0.026982
    10  O   -0.155175   0.001297
    11  C   -0.310527   0.000173
    12  N   -0.247913   0.135216
    13  O   -0.111795   0.117205
    14  O   -0.098724   0.129235
    15  N   -0.200681   0.138801
    16  O   -0.087302   0.100690
    17  O   -0.062977   0.116050
    18  H    0.174952   0.001223
    19  H    0.157566   0.012649
    20  H    0.153468   0.002779
    21  H    0.181742   0.006923
    22  H    0.154898  -0.000465
    23  H    0.147549   0.002426
    24  H    0.222299   0.005479
    25  H    0.149587   0.000186
    26  H    0.146255   0.000439
    27  H    0.155704   0.000001
 Sum of Mulliken charges =  -1.00000   1.00000

 Dipole moment (field-independent basis, Debye):
    X=             -7.3173    Y=              1.2705    Z=             -0.9023  Tot=              7.4814
 Quadrupole moment (field-independent basis, Debye-Ang):
   XX=           -117.2660   YY=           -138.0247   ZZ=           -108.1337
   XY=              1.0242   XZ=              3.1992   YZ=             -8.2359

 Summary of Natural Population Analysis:

                                       Natural Population
                Natural  -----------------------------------------------
    Atom  No    Charge         Core      Valence    Rydberg      Total
 -----------------------------------------------------------------------
      C    1   -0.30464      0.99962     2.29998    0.00503     3.30464
      C    2    0.13810      0.99937     1.85184    0.01069     2.86190
      C    3    0.03748      0.99928     1.94681    0.01642     2.96252
      C    4   -0.04229      0.99949     2.03059    0.01222     3.04229
      C    5   -0.06570      0.99953     2.05838    0.00779     3.06570
      C    6   -0.12629      0.99953     2.11833    0.00842     3.12629
      C    7    0.16105      0.99940     1.82807    0.01148     2.83895
      C    8   -0.15028      0.99953     2.14349    0.00727     3.15028
      C    9   -0.07158      0.99954     2.06383    0.00822     3.07158
      O   10   -0.27509      0.99985     3.26548    0.00976     4.27509
      C   11   -0.10131      0.99961     2.09368    0.00802     3.10131
      N   12    0.28065      0.99973     2.19113    0.02849     3.21935
      O   13   -0.19656      0.99990     3.18888    0.00778     4.19656
      O   14   -0.18548      0.99990     3.17724    0.00834     4.18548
      N   15    0.27706      0.99972     2.19359    0.02964     3.22294
      O   16   -0.20090      0.99989     3.19320    0.00780     4.20090
      O   17   -0.17621      0.99989     3.16767    0.00864     4.17621
      H   18    0.11573      0.00000     0.38305    0.00122     0.38427
      H   19    0.10694      0.00000     0.39191    0.00116     0.39306
      H   20    0.10868      0.00000     0.39002    0.00131     0.39132
      H   21    0.10451      0.00000     0.39433    0.00116     0.39549
      H   22    0.10180      0.00000     0.39722    0.00098     0.39820
      H   23    0.09990      0.00000     0.39912    0.00098     0.40010
      H   24    0.10884      0.00000     0.38952    0.00164     0.39116
      H   25    0.08393      0.00000     0.41460    0.00147     0.41607
      H   26    0.08245      0.00000     0.41608    0.00147     0.41755
      H   27    0.08921      0.00000     0.41002    0.00076     0.41079
 =======================================================================
   * Total *    0.00000     16.99378    44.79806    0.20815    62.00000

 Normal termination of Gaussian 16 at Mon Dec 14 13:58:11 2020.
