 Gaussian 16, Revision A.03,

 -----------------------------------------------------------
 # opt freq B3LYP/6-31G(d) empiricaldispersion=gd3bj scf=xqc
 -----------------------------------------------------------

 -------------------------------
 CID_117100774_JID_9785_neutraal
 -------------------------------
 Symbolic Z-matrix:
 Charge =  0 Multiplicity = 1

 SCF Done:  E(RB3LYP) =  -816.355066978     A.U. after   14 cycles
 SCF Done:  E(RB3LYP) =  -816.365185556     A.U. after   12 cycles
 SCF Done:  E(RB3LYP) =  -816.367028886     A.U. after   12 cycles
 SCF Done:  E(RB3LYP) =  -816.368029351     A.U. after   11 cycles
 SCF Done:  E(RB3LYP) =  -816.368395097     A.U. after   11 cycles
 SCF Done:  E(RB3LYP) =  -816.368499446     A.U. after   11 cycles
 SCF Done:  E(RB3LYP) =  -816.368528835     A.U. after   10 cycles
 SCF Done:  E(RB3LYP) =  -816.368542372     A.U. after    9 cycles
 SCF Done:  E(RB3LYP) =  -816.368546002     A.U. after    9 cycles
 SCF Done:  E(RB3LYP) =  -816.368547780     A.U. after    8 cycles
 SCF Done:  E(RB3LYP) =  -816.368550274     A.U. after    9 cycles
 SCF Done:  E(RB3LYP) =  -816.368551247     A.U. after    9 cycles
 SCF Done:  E(RB3LYP) =  -816.368551670     A.U. after    8 cycles
 SCF Done:  E(RB3LYP) =  -816.368551822     A.U. after    7 cycles
 SCF Done:  E(RB3LYP) =  -816.368551896     A.U. after    7 cycles
 Optimization completed.
    -- Stationary point found.
 Normal termination of Gaussian 16 at Sun Dec 13 20:45:14 2020.

 --------------------------------------------------------------------
 #N Geom=AllCheck Guess=TCheck SCRF=Check GenChk RB3LYP/6-31G(d) Freq
 --------------------------------------------------------------------

 Structure from the checkpoint file:  "JID_9785.chk"
 -------------------------------
 CID_117100774_JID_9785_neutraal
 -------------------------------
 Charge =  0 Multiplicity = 1

 SCF Done:  E(RB3LYP) =  -816.368551896     A.U. after    1 cycles

  Exact polarizability: 276.938   0.717 194.949   0.349   0.468  82.665
 Approx polarizability: 370.090  -3.173 332.101   0.639  -0.953 131.446

                      1                      2                      3
                      A                      A                      A
 Frequencies --     24.9414                42.0448                94.3732
 Red. masses --      3.9862                 4.0196                 2.0523
 Frc consts  --      0.0015                 0.0042                 0.0108
 IR Inten    --      0.2830                 0.5428                 1.7044

                      4                      5                      6
                      A                      A                      A
 Frequencies --    104.1583               111.2472               131.5153
 Red. masses --      4.5157                 4.0821                 2.8348
 Frc consts  --      0.0289                 0.0298                 0.0289
 IR Inten    --      0.3398                 1.2457                 4.5946

                      7                      8                      9
                      A                      A                      A
 Frequencies --    177.6258               214.6509               237.8021
 Red. masses --      2.8279                 2.6939                 4.9957
 Frc consts  --      0.0526                 0.0731                 0.1664
 IR Inten    --     13.8326                 0.3669                 0.4219

                     10                     11                     12
                      A                      A                      A
 Frequencies --    245.2859               263.8490               282.5880
 Red. masses --      4.7011                 3.9261                 3.5449
 Frc consts  --      0.1666                 0.1610                 0.1668
 IR Inten    --      0.7768                 0.5207                 3.7200

                     13                     14                     15
                      A                      A                      A
 Frequencies --    312.0012               322.0379               413.1763
 Red. masses --      4.5845                 5.5239                 1.1963
 Frc consts  --      0.2629                 0.3375                 0.1203
 IR Inten    --      3.1340                 0.6063               141.9300

                     16                     17                     18
                      A                      A                      A
 Frequencies --    434.6991               450.8775               504.0798
 Red. masses --      3.0695                 3.7980                 1.3126
 Frc consts  --      0.3417                 0.4549                 0.1965
 IR Inten    --      1.0632                12.3493               174.6517

                     19                     20                     21
                      A                      A                      A
 Frequencies --    530.9720               549.2186               549.8311
 Red. masses --      4.8529                 3.7007                 5.3776
 Frc consts  --      0.8061                 0.6577                 0.9578
 IR Inten    --     12.4072                 0.0672                13.4859

                     22                     23                     24
                      A                      A                      A
 Frequencies --    576.7544               582.9594               618.3672
 Red. masses --      4.7295                 4.2501                 5.9735
 Frc consts  --      0.9269                 0.8510                 1.3458
 IR Inten    --      5.3511                11.3675                 3.2869

                     25                     26                     27
                      A                      A                      A
 Frequencies --    637.3293               705.3370               716.7469
 Red. masses --      4.8027                 4.8562                 8.1765
 Frc consts  --      1.1494                 1.4235                 2.4749
 IR Inten    --     15.6064                 0.5304                 6.9512

                     28                     29                     30
                      A                      A                      A
 Frequencies --    725.1596               740.0778               766.5952
 Red. masses --      3.2653                 4.9295                 1.3660
 Frc consts  --      1.0117                 1.5908                 0.4730
 IR Inten    --      4.2202                 4.8382                41.1943

                     31                     32                     33
                      A                      A                      A
 Frequencies --    789.4823               793.3936               822.1242
 Red. masses --      5.2238                 2.4186                 2.2047
 Frc consts  --      1.9183                 0.8970                 0.8780
 IR Inten    --     26.0531                37.2914                59.4946

                     34                     35                     36
                      A                      A                      A
 Frequencies --    828.4514               863.2271               880.7196
 Red. masses --      2.5043                 1.8756                 6.0523
 Frc consts  --      1.0127                 0.8235                 2.7660
 IR Inten    --     81.4036                 5.0685                 5.9963

                     37                     38                     39
                      A                      A                      A
 Frequencies --    884.2157               925.5024               932.0811
 Red. masses --      1.4376                 2.2942                 1.3384
 Frc consts  --      0.6622                 1.1578                 0.6851
 IR Inten    --      1.4816                 0.9648                 2.1736

                     40                     41                     42
                      A                      A                      A
 Frequencies --    977.8612              1001.2495              1005.4529
 Red. masses --      1.2375                 2.7946                 1.7382
 Frc consts  --      0.6972                 1.6506                 1.0353
 IR Inten    --      0.4014                 1.2689                 1.9808

                     43                     44                     45
                      A                      A                      A
 Frequencies --   1022.3844              1057.4793              1060.5672
 Red. masses --      3.9334                 3.8838                 2.2246
 Frc consts  --      2.4224                 2.5589                 1.4743
 IR Inten    --      6.1788                12.8367                 2.4622

                     46                     47                     48
                      A                      A                      A
 Frequencies --   1069.5962              1080.3608              1087.0207
 Red. masses --      1.7989                 1.7204                 3.9118
 Frc consts  --      1.2125                 1.1831                 2.7233
 IR Inten    --      4.0434                 1.1826                15.0571

                     49                     50                     51
                      A                      A                      A
 Frequencies --   1109.2745              1122.5179              1187.0763
 Red. masses --      4.4581                 2.0892                 1.1689
 Frc consts  --      3.2320                 1.5510                 0.9705
 IR Inten    --      4.1111                 2.9829                 3.6944

                     52                     53                     54
                      A                      A                      A
 Frequencies --   1190.8010              1194.3064              1203.2326
 Red. masses --      1.1269                 1.8955                 2.2727
 Frc consts  --      0.9415                 1.5930                 1.9386
 IR Inten    --      0.9730                11.2271                 2.4652

                     55                     56                     57
                      A                      A                      A
 Frequencies --   1219.8016              1243.7125              1253.1376
 Red. masses --      1.2934                 2.4177                 1.3359
 Frc consts  --      1.1339                 2.2034                 1.2360
 IR Inten    --      4.3622                12.3133                 7.8194

                     58                     59                     60
                      A                      A                      A
 Frequencies --   1277.1728              1283.6420              1297.7144
 Red. masses --      1.2246                 1.8127                 1.9444
 Frc consts  --      1.1769                 1.7598                 1.9293
 IR Inten    --     12.4874                15.6618                 9.8785

                     61                     62                     63
                      A                      A                      A
 Frequencies --   1314.2835              1327.8461              1340.4122
 Red. masses --      2.8159                 1.9863                 1.6847
 Frc consts  --      2.8658                 2.0634                 1.7834
 IR Inten    --     65.2487                 3.3791                 4.4747

                     64                     65                     66
                      A                      A                      A
 Frequencies --   1373.7169              1376.5092              1409.4595
 Red. masses --      1.7580                 2.8531                 2.4110
 Frc consts  --      1.9546                 3.1852                 2.8219
 IR Inten    --     23.2834                 1.7159                 4.4203

                     67                     68                     69
                      A                      A                      A
 Frequencies --   1447.1805              1475.7304              1488.4993
 Red. masses --      5.3548                 5.6243                 1.1224
 Frc consts  --      6.6075                 7.2166                 1.4652
 IR Inten    --    273.8746               299.0126                10.2139

                     70                     71                     72
                      A                      A                      A
 Frequencies --   1506.4431              1511.4489              1518.2918
 Red. masses --      2.6542                 2.0651                 1.0841
 Frc consts  --      3.5489                 2.7795                 1.4724
 IR Inten    --    153.5905               113.4497                 4.4776

                     73                     74                     75
                      A                      A                      A
 Frequencies --   1522.9618              1538.7075              1548.3167
 Red. masses --      1.3666                 1.1135                 1.1572
 Frc consts  --      1.8675                 1.5533                 1.6344
 IR Inten    --      2.2348                57.2657                18.9373

                     76                     77                     78
                      A                      A                      A
 Frequencies --   1557.2098              1616.5414              1650.8321
 Red. masses --      3.6215                 5.0474                 6.7244
 Frc consts  --      5.1740                 7.7713                10.7972
 IR Inten    --    813.1252               218.8903                26.8338

                     79                     80                     81
                      A                      A                      A
 Frequencies --   1654.4394              1669.9125              1677.2270
 Red. masses --      7.7888                 6.3060                 1.4643
 Frc consts  --     12.5610                10.3607                 2.4270
 IR Inten    --    392.4318                22.0651               313.4799

                     82                     83                     84
                      A                      A                      A
 Frequencies --   2999.2120              3031.2972              3049.0176
 Red. masses --      1.0715                 1.0703                 1.0661
 Frc consts  --      5.6786                 5.7947                 5.8393
 IR Inten    --     76.6054                37.1843                34.9170

                     85                     86                     87
                      A                      A                      A
 Frequencies --   3066.8508              3069.4302              3093.0690
 Red. masses --      1.0926                 1.0739                 1.0938
 Frc consts  --      6.0550                 5.9614                 6.1654
 IR Inten    --     38.3678                18.0930                30.6443

                     88                     89                     90
                      A                      A                      A
 Frequencies --   3108.9044              3138.3289              3179.3329
 Red. masses --      1.0945                 1.0985                 1.0862
 Frc consts  --      6.2327                 6.3747                 6.4689
 IR Inten    --     18.3442                18.8238                 4.6913

                     91                     92                     93
                      A                      A                      A
 Frequencies --   3187.5360              3207.0609              3285.8681
 Red. masses --      1.0903                 1.0960                 1.0911
 Frc consts  --      6.5268                 6.6419                 6.9408
 IR Inten    --     24.0922                39.3834                 2.5979

                     94                     95                     96
                      A                      A                      A
 Frequencies --   3500.9900              3578.3056              3693.3458
 Red. masses --      1.0751                 1.0466                 1.1012
 Frc consts  --      7.7638                 7.8955                 8.8501
 IR Inten    --      0.1354                32.9241                22.4775

 - Thermochemistry -
 -------------------
 Temperature   298.150 Kelvin.  Pressure   1.00000 Atm.
 Atom     1 has atomic number  6 and mass  12.00000

 Molecular mass:   253.13275 amu.
 Principal axes and moments of inertia in atomic units:
                           1         2         3
     Eigenvalues --  1921.027798286.21734**********
           X            0.99999  -0.00421   0.00017
           Y            0.00421   0.99998   0.00350
           Z           -0.00018  -0.00350   0.99999
 This molecule is an asymmetric top.
 Rotational symmetry number  1.
 Warning -- assumption of classical behavior for rotation
           may cause significant error
 Rotational temperatures (Kelvin)      0.04509     0.01045     0.00854
 Rotational constants (GHZ):           0.93947     0.21780     0.17796
 Zero-point vibrational energy     738361.4 (Joules/Mol)
                                  176.47260 (Kcal/Mol)
 Warning -- explicit consideration of  24 degrees of freedom as
           vibrations may cause significant error
 Vibrational temperatures:     35.89    60.49   135.78   149.86   160.06
          (Kelvin)            189.22   255.56   308.83   342.14   352.91
                              379.62   406.58   448.90   463.34   594.47
                              625.43   648.71   725.26   763.95   790.20
                              791.08   829.82   838.75   889.69   916.97
                             1014.82  1031.24  1043.34  1064.81  1102.96
                             1135.89  1141.52  1182.85  1191.96  1241.99
                             1267.16  1272.19  1331.59  1341.06  1406.92
                             1440.57  1446.62  1470.98  1521.48  1525.92
                             1538.91  1554.40  1563.98  1596.00  1615.05
                             1707.94  1713.30  1718.34  1731.18  1755.02
                             1789.42  1802.99  1837.57  1846.87  1867.12
                             1890.96  1910.47  1928.55  1976.47  1980.49
                             2027.90  2082.17  2123.25  2141.62  2167.44
                             2174.64  2184.48  2191.20  2213.86  2227.68
                             2240.48  2325.84  2375.18  2380.37  2402.63
                             2413.16  4315.20  4361.36  4386.86  4412.51
                             4416.23  4450.24  4473.02  4515.36  4574.35
                             4586.15  4614.25  4727.63  5037.14  5148.38
                             5313.90

 Zero-point correction=                           0.281227 (Hartree/Particle)
 Thermal correction to Energy=                    0.296454
 Thermal correction to Enthalpy=                  0.297398
 Thermal correction to Gibbs Free Energy=         0.237933
 Sum of electronic and zero-point Energies=           -816.087325
 Sum of electronic and thermal Energies=              -816.072098
 Sum of electronic and thermal Enthalpies=            -816.071154
 Sum of electronic and thermal Free Energies=         -816.130619

                     E (Thermal)             CV                S
                      KCal/Mol        Cal/Mol-Kelvin    Cal/Mol-Kelvin
 Total                  186.028             60.678            125.156
 Electronic               0.000              0.000              0.000
 Translational            0.889              2.981             42.486
 Rotational               0.889              2.981             33.445
 Vibrational            184.250             54.716             49.224
 Vibration     1          0.593              1.985              6.196
 Vibration     2          0.595              1.980              5.160
 Vibration     3          0.603              1.953              3.567
 Vibration     4          0.605              1.946              3.375
 Vibration     5          0.607              1.940              3.247
 Vibration     6          0.612              1.922              2.924
 Vibration     7          0.628              1.870              2.353
 Vibration     8          0.645              1.819              2.004
 Vibration     9          0.656              1.783              1.819
 Vibration    10          0.660              1.771              1.764
 Vibration    11          0.670              1.739              1.636
 Vibration    12          0.682              1.706              1.518
 Vibration    13          0.700              1.651              1.352
 Vibration    14          0.707              1.631              1.300
 Vibration    15          0.777              1.442              0.915
 Vibration    16          0.795              1.395              0.843
 Vibration    17          0.810              1.359              0.793
 Vibration    18          0.859              1.241              0.648
 Vibration    19          0.886              1.181              0.585
 Vibration    20          0.904              1.141              0.546
 Vibration    21          0.905              1.140              0.545
 Vibration    22          0.933              1.082              0.491
 Vibration    23          0.940              1.068              0.480
 Vibration    24          0.978              0.993              0.419

 Optimization completed.
    -- Stationary point found.
 Normal termination of Gaussian 16 at Sun Dec 13 21:01:31 2020.

 ----------------------------------------------------------------------
 # B3LYP/6-311++G(d,p) empiricaldispersion=gd3bj scf=xqc pop=npa geom=c
 heck
 ----------------------------------------------------------------------

 ---------------------------------------
 CID_117100774_JID_9785_Energie_neutraal
 ---------------------------------------
 Structure from the checkpoint file:  "JID_9785.chk"
 Charge =  0 Multiplicity = 1

 SCF Done:  E(RB3LYP) =  -816.585015399     A.U. after   15 cycles
 Normal termination of Gaussian 16 at Sun Dec 13 21:08:36 2020.

 ----------------------------------------------------------------------
 # B3LYP/6-311++G(d,p) empiricaldispersion=gd3bj scf=xqc pop=npa geom=c
 heck
 ----------------------------------------------------------------------

 -------------------------------------
 CID_117100774_JID_9785_Energie_kation
 -------------------------------------
 Structure from the checkpoint file:  "JID_9785.chk"
 Charge =  1 Multiplicity = 2

 SCF Done:  E(UB3LYP) =  -816.333778234     A.U. after   23 cycles
 Normal termination of Gaussian 16 at Sun Dec 13 21:23:54 2020.
 Gaussian 16:  ES64L-G16RevA.03 25-Dec-2016

 ----------------------------------------------------------------------
 # B3LYP/6-311++G(d,p) empiricaldispersion=gd3bj scf=xqc pop=npa geom=c
 heck
 ----------------------------------------------------------------------

 ------------------------------------
 CID_117100774_JID_9785_Energie_anion
 ------------------------------------
 Structure from the checkpoint file:  "JID_9785.chk"
 Charge = -1 Multiplicity = 2

                         Standard orientation:
 ---------------------------------------------------------------------
 Center     Atomic      Atomic             Coordinates (Angstroms)
 Number     Number       Type             X           Y           Z
 ---------------------------------------------------------------------
      1          6           0        2.808156   -2.254284   -0.120931
      2          6           0        1.277997   -2.146729    0.067465
      3          7           0        0.985947   -0.699971   -0.022348
      4          6           0        2.177934    0.048478   -0.011067
      5          6           0        2.366685    1.432637    0.025158
      6          6           0        3.677921    1.918836    0.043429
      7          6           0        4.777125    1.060173    0.024667
      8          6           0        4.573961   -0.324334   -0.019511
      9          6           0        3.280456   -0.822585   -0.037900
     10          6           0       -0.313829   -0.262591    0.006529
     11          7           0       -1.247087   -1.242982    0.076678
     12          6           0       -2.499902   -0.793273    0.068578
     13          6           0       -2.873922    0.540274    0.008911
     14          6           0       -4.378719    0.654316    0.050863
     15          7           0       -4.867703   -0.734075   -0.171478
     16          6           0       -3.748289   -1.645535    0.164382
     17          6           0       -1.824197    1.468723   -0.022634
     18          7           0       -0.545675    1.061875   -0.033878
     19          7           0       -2.043273    2.823419   -0.092997
     20          1           0        3.056667   -2.692788   -1.095610
     21          1           0        3.264165   -2.893760    0.642123
     22          1           0        0.950708   -2.522075    1.042962
     23          1           0        0.707906   -2.684488   -0.691376
     24          1           0        1.514998    2.095003    0.037461
     25          1           0        3.836140    2.993626    0.074511
     26          1           0        5.785833    1.462123    0.041924
     27          1           0        5.421051   -1.005623   -0.040011
     28          1           0       -4.731263    1.016102    1.029642
     29          1           0       -4.798663    1.326812   -0.706954
     30          1           0       -5.044507   -0.830616   -1.168816
     31          1           0       -3.858768   -2.026484    1.189888
     32          1           0       -3.727807   -2.513576   -0.501356
     33          1           0       -2.923294    3.173591    0.257481
     34          1           0       -1.236878    3.399645    0.108658
 ---------------------------------------------------------------------

 SCF Done:  E(UB3LYP) =  -816.575395561     A.U. after   33 cycles
 SCF Done:  E(UB3LYP) =  -816.575395562     a.u. after    1 cycles

 The electronic state is 2-A.
 Alpha  occ. eigenvalues --  -14.26100 -14.22735 -14.21157 -14.20464 -14.20420
 Alpha  occ. eigenvalues --  -10.17888 -10.15982 -10.12680 -10.12115 -10.11857
 Alpha  occ. eigenvalues --  -10.10858 -10.10621 -10.09859 -10.09284 -10.08937
 Alpha  occ. eigenvalues --  -10.08586 -10.08365 -10.07777 -10.07302  -0.91850
 Alpha  occ. eigenvalues --   -0.86908  -0.83657  -0.82179  -0.76889  -0.76273
 Alpha  occ. eigenvalues --   -0.71000  -0.67798  -0.65682  -0.64103  -0.63008
 Alpha  occ. eigenvalues --   -0.57874  -0.55120  -0.54019  -0.51306  -0.50460
 Alpha  occ. eigenvalues --   -0.49204  -0.46468  -0.44455  -0.41179  -0.40340
 Alpha  occ. eigenvalues --   -0.40179  -0.39283  -0.38644  -0.37753  -0.35230
 Alpha  occ. eigenvalues --   -0.34681  -0.34136  -0.33868  -0.32456  -0.31366
 Alpha  occ. eigenvalues --   -0.31061  -0.30553  -0.29790  -0.29329  -0.28728
 Alpha  occ. eigenvalues --   -0.28356  -0.27318  -0.25591  -0.25297  -0.22227
 Alpha  occ. eigenvalues --   -0.21318  -0.17928  -0.16417  -0.16019  -0.14738
 Alpha  occ. eigenvalues --   -0.14381  -0.10712   0.03970
 Alpha virt. eigenvalues --    0.05365   0.06210   0.06579   0.06885   0.06933
 Alpha virt. eigenvalues --    0.07449   0.07542   0.08556   0.08949   0.09270
 Alpha virt. eigenvalues --    0.09821   0.10401   0.11007   0.11359   0.11439

  Beta  occ. eigenvalues --  -14.26101 -14.22654 -14.21144 -14.20460 -14.20411
  Beta  occ. eigenvalues --  -10.17885 -10.15970 -10.12677 -10.12109 -10.11854
  Beta  occ. eigenvalues --  -10.10848 -10.10581 -10.09846 -10.09284 -10.08929
  Beta  occ. eigenvalues --  -10.08580 -10.08362 -10.07773 -10.07302  -0.91840
  Beta  occ. eigenvalues --   -0.86885  -0.83615  -0.82142  -0.76849  -0.76255
  Beta  occ. eigenvalues --   -0.70980  -0.67775  -0.65661  -0.64086  -0.62972
  Beta  occ. eigenvalues --   -0.57837  -0.55088  -0.53980  -0.51255  -0.50411
  Beta  occ. eigenvalues --   -0.49184  -0.46432  -0.44425  -0.41108  -0.40320
  Beta  occ. eigenvalues --   -0.40138  -0.39252  -0.38611  -0.37711  -0.35211
  Beta  occ. eigenvalues --   -0.34655  -0.34115  -0.33848  -0.32415  -0.31342
  Beta  occ. eigenvalues --   -0.31031  -0.30524  -0.29773  -0.29313  -0.28688
  Beta  occ. eigenvalues --   -0.28325  -0.27301  -0.25574  -0.25253  -0.22213
  Beta  occ. eigenvalues --   -0.21290  -0.17903  -0.16408  -0.15998  -0.14717
  Beta  occ. eigenvalues --   -0.14329  -0.10701
  Beta virt. eigenvalues --    0.05601   0.06419   0.06604   0.06746   0.06921
  Beta virt. eigenvalues --    0.07551   0.07696   0.07989   0.08833   0.09351
  Beta virt. eigenvalues --    0.09482   0.10105   0.10553   0.11158   0.11689

 Mulliken charges and spin densities:
               1          2
     1  C    0.264941  -1.242085
     2  C   -0.139276   0.081716
     3  N    0.136469  -0.029273
     4  C    0.184050  -0.102927
     5  C    0.086608   0.000464
     6  C   -0.767602   0.163379
     7  C    0.360039  -0.635916
     8  C   -0.079830  -0.133530
     9  C   -0.635218   0.794683
    10  C   -0.422456  -0.002425
    11  N   -0.128294   0.088171
    12  C    0.129039  -0.003250
    13  C   -0.369676   1.053151
    14  C    1.934736  -2.616477
    15  N   -0.248711   0.162422
    16  C    0.817363  -1.100830
    17  C   -0.492188   0.281701
    18  N   -0.015552  -0.103089
    19  N   -0.394859   0.109864
    20  H    0.049349   0.120885
    21  H   -0.010447   0.176916
    22  H    0.121568   0.095348
    23  H    0.100703   0.091627
    24  H    0.194476   0.071455
    25  H   -0.139361   0.308764
    26  H    0.042891   0.092194
    27  H   -0.237767   0.393370
    28  H   -0.232074   0.444585
    29  H   -0.390834   0.574703
    30  H    0.058108   0.180980
    31  H    0.127227   0.069922
    32  H   -0.047172   0.213890
    33  H   -0.559349   0.836407
    34  H   -0.296904   0.563204
 Sum of Mulliken charges =  -1.00000   1.00000

 Dipole moment (field-independent basis, Debye):
    X=              5.7021    Y=             -6.2869    Z=             -0.5578  Tot=              8.5059
 Quadrupole moment (field-independent basis, Debye-Ang):
   XX=           -208.8954   YY=           -168.6185   ZZ=           -136.0197
   XY=             16.7896   XZ=              1.3911   YZ=             -1.8063

 Summary of Natural Population Analysis:

                                       Natural Population
                Natural  -----------------------------------------------
    Atom  No    Charge         Core      Valence    Rydberg      Total
 -----------------------------------------------------------------------
      C    1   -0.20017      0.99961     2.19350    0.00706     3.20017
      C    2   -0.07397      0.99964     2.06587    0.00845     3.07397
      N    3   -0.22838      0.99960     2.72048    0.00830     3.72838
      C    4    0.09363      0.99943     1.89704    0.00990     2.90637
      C    5   -0.11676      0.99953     2.10784    0.00939     3.11676
      C    6   -0.09658      0.99957     2.08785    0.00916     3.09658
      C    7   -0.11733      0.99957     2.10741    0.01035     3.11733
      C    8   -0.10096      0.99951     2.09190    0.00955     3.10096
      C    9   -0.02673      0.99948     2.01873    0.00853     3.02673
      C   10    0.31311      0.99959     1.67078    0.01653     2.68689
      N   11   -0.29003      0.99964     2.78047    0.00991     3.79003
      C   12    0.12993      0.99947     1.85703    0.01358     2.87007
      C   13   -0.10117      0.99939     2.09103    0.01075     3.10117
      C   14   -0.08983      0.99962     2.07884    0.01137     3.08983
      N   15   -0.33334      0.99977     2.82201    0.01156     3.83334
      C   16   -0.09976      0.99960     2.09011    0.01005     3.09976
      C   17    0.22549      0.99949     1.75991    0.01511     2.77451
      N   18   -0.29287      0.99964     2.78320    0.01004     3.79287
      N   19   -0.38093      0.99970     2.87154    0.00968     3.88093
      H   20    0.10260      0.00000     0.39585    0.00156     0.39740
      H   21    0.10469      0.00000     0.39372    0.00159     0.39531
      H   22    0.09688      0.00000     0.40152    0.00161     0.40312
      H   23    0.10481      0.00000     0.39346    0.00173     0.39519
      H   24    0.12308      0.00000     0.37522    0.00169     0.37692
      H   25    0.10027      0.00000     0.39890    0.00083     0.39973
      H   26    0.09848      0.00000     0.40073    0.00079     0.40152
      H   27    0.09966      0.00000     0.39938    0.00096     0.40034
      H   28    0.09428      0.00000     0.40401    0.00170     0.40572
      H   29    0.10172      0.00000     0.39616    0.00212     0.39828
      H   30    0.17115      0.00000     0.32599    0.00286     0.32885
      H   31    0.09548      0.00000     0.40289    0.00163     0.40452
      H   32    0.10020      0.00000     0.39794    0.00186     0.39980
      H   33    0.19777      0.00000     0.28810    0.01413     0.30223
      H   34    0.19557      0.00000     0.29975    0.00468     0.30443
 =======================================================================
   * Total *   -0.00000     18.99184    47.76916    0.23900    67.00000

 Normal termination of Gaussian 16 at Sun Dec 13 21:46:11 2020.
