 Gaussian 16, Revision A.03,

 -----------------------------------------------------------
 # opt freq B3LYP/6-31G(d) empiricaldispersion=gd3bj scf=xqc
 -----------------------------------------------------------

 ------------------------------
 CID_84082861_JID_3472_neutraal
 ------------------------------
 Symbolic Z-matrix:
 Charge =  0 Multiplicity = 1

 SCF Done:  E(RB3LYP) =  -972.564777047     A.U. after   14 cycles
 SCF Done:  E(RB3LYP) =  -972.575339108     A.U. after   13 cycles
 SCF Done:  E(RB3LYP) =  -972.576831925     A.U. after   12 cycles
 SCF Done:  E(RB3LYP) =  -972.577011080     A.U. after   11 cycles
 SCF Done:  E(RB3LYP) =  -972.577034122     A.U. after   10 cycles
 SCF Done:  E(RB3LYP) =  -972.577040529     A.U. after   10 cycles
 SCF Done:  E(RB3LYP) =  -972.577042121     A.U. after    8 cycles
 SCF Done:  E(RB3LYP) =  -972.577042537     A.U. after    8 cycles
 SCF Done:  E(RB3LYP) =  -972.577042659     A.U. after    7 cycles
 Optimization completed.
    -- Stationary point found.
 Normal termination of Gaussian 16 at Wed Dec  9 23:22:31 2020.

 --------------------------------------------------------------------
 #N Geom=AllCheck Guess=TCheck SCRF=Check GenChk RB3LYP/6-31G(d) Freq
 --------------------------------------------------------------------

 Structure from the checkpoint file:  "JID_3472.chk"
 ------------------------------
 CID_84082861_JID_3472_neutraal
 ------------------------------
 Charge =  0 Multiplicity = 1

 SCF Done:  E(RB3LYP) =  -972.577042659     A.U. after    1 cycles

  Exact polarizability: 132.474   0.383 106.339   0.001   0.005 106.892
 Approx polarizability: 177.118  -0.435 169.176  -0.000  -0.016 158.929

                      1                      2                      3
                      A                      A                      A
 Frequencies --     38.7637                45.2783                54.0553
 Red. masses --      6.9596                 3.1094                 4.1443
 Frc consts  --      0.0062                 0.0038                 0.0071
 IR Inten    --      1.9475                 0.0909                 0.4692

                      4                      5                      6
                      A                      A                      A
 Frequencies --     95.0294               182.0056               216.9008
 Red. masses --      4.4484                 4.2435                 4.1174
 Frc consts  --      0.0237                 0.0828                 0.1141
 IR Inten    --      3.0604                 1.5512                 2.6989

                      7                      8                      9
                      A                      A                      A
 Frequencies --    255.8204               263.4252               298.0422
 Red. masses --      2.3481                 2.1612                 2.8913
 Frc consts  --      0.0905                 0.0884                 0.1513
 IR Inten    --      0.2466                 0.2648                 4.5308

                     10                     11                     12
                      A                      A                      A
 Frequencies --    343.8653               380.8904               387.3695
 Red. masses --      2.6279                 2.2810                 4.9022
 Frc consts  --      0.1831                 0.1950                 0.4334
 IR Inten    --      4.4292                 1.0376                28.9558

                     13                     14                     15
                      A                      A                      A
 Frequencies --    405.8324               431.5112               433.3687
 Red. masses --      2.6994                 2.3532                 3.4177
 Frc consts  --      0.2619                 0.2582                 0.3782
 IR Inten    --      3.3679                 4.2618                15.0240

                     16                     17                     18
                      A                      A                      A
 Frequencies --    493.1974               550.3226               587.8532
 Red. masses --      2.5942                 2.9234                 6.4230
 Frc consts  --      0.3718                 0.5216                 1.3078
 IR Inten    --      1.7533                 5.8063                15.5763

                     19                     20                     21
                      A                      A                      A
 Frequencies --    610.5492               707.2232               749.1357
 Red. masses --      1.6240                 3.1510                 4.3997
 Frc consts  --      0.3567                 0.9286                 1.4548
 IR Inten    --     10.5809                14.8387                38.8953

                     22                     23                     24
                      A                      A                      A
 Frequencies --    789.6023               806.1836               819.4219
 Red. masses --      2.5858                 1.5879                 2.3915
 Frc consts  --      0.9499                 0.6080                 0.9461
 IR Inten    --     59.3985                18.2765                97.0088

                     25                     26                     27
                      A                      A                      A
 Frequencies --    850.9978               879.3707               890.7514
 Red. masses --      1.5914                 3.2410                 2.0602
 Frc consts  --      0.6790                 1.4767                 0.9631
 IR Inten    --      0.2498                10.7974                 0.1229

                     28                     29                     30
                      A                      A                      A
 Frequencies --    918.5156               938.3374               993.8840
 Red. masses --      1.7570                 2.3396                 1.7835
 Frc consts  --      0.8734                 1.2137                 1.0380
 IR Inten    --     14.2959                 2.0612                 1.8830

                     31                     32                     33
                      A                      A                      A
 Frequencies --   1007.5811              1017.3485              1046.9569
 Red. masses --      2.3516                 1.0981                 1.5637
 Frc consts  --      1.4066                 0.6696                 1.0098
 IR Inten    --     19.6485                 2.6980                 6.7226

                     34                     35                     36
                      A                      A                      A
 Frequencies --   1048.6336              1063.2263              1074.3939
 Red. masses --      2.2154                 2.1812                 2.0678
 Frc consts  --      1.4353                 1.4528                 1.4063
 IR Inten    --     16.7273                 1.2455                 3.6824

                     37                     38                     39
                      A                      A                      A
 Frequencies --   1127.5438              1148.6398              1153.5590
 Red. masses --      5.2241                 2.4941                 3.5844
 Frc consts  --      3.9132                 1.9388                 2.8103
 IR Inten    --    155.4486                50.9492                29.1682

                     40                     41                     42
                      A                      A                      A
 Frequencies --   1175.6816              1176.8879              1193.8337
 Red. masses --      1.5865                 1.6102                 2.1891
 Frc consts  --      1.2921                 1.3140                 1.8383
 IR Inten    --     10.9832                 0.0318                63.0994

                     43                     44                     45
                      A                      A                      A
 Frequencies --   1205.9642              1221.8564              1243.7577
 Red. masses --      1.4964                 1.2856                 1.5612
 Frc consts  --      1.2822                 1.1308                 1.4229
 IR Inten    --     10.3082                 5.9801                46.7594

                     46                     47                     48
                      A                      A                      A
 Frequencies --   1274.0637              1324.4751              1329.2420
 Red. masses --      1.1386                 1.3743                 6.6782
 Frc consts  --      1.0890                 1.4204                 6.9522
 IR Inten    --      3.6770                 6.5309               145.2349

                     49                     50                     51
                      A                      A                      A
 Frequencies --   1337.8237              1358.8734              1364.2629
 Red. masses --      1.3937                 1.6113                 1.3858
 Frc consts  --      1.4696                 1.7530                 1.5197
 IR Inten    --     19.2434                17.0481                12.1223

                     52                     53                     54
                      A                      A                      A
 Frequencies --   1369.0844              1376.3853              1405.4381
 Red. masses --      1.2944                 1.2612                 1.3696
 Frc consts  --      1.4295                 1.4077                 1.5939
 IR Inten    --      0.2232                 9.3435                 0.7500

                     55                     56                     57
                      A                      A                      A
 Frequencies --   1412.5824              1419.9469              1439.8696
 Red. masses --      1.3991                 1.3280                 1.3930
 Frc consts  --      1.6449                 1.5775                 1.7016
 IR Inten    --     53.2942                 8.9531                 2.8406

                     58                     59                     60
                      A                      A                      A
 Frequencies --   1459.4245              1482.6981              1498.8513
 Red. masses --      1.1042                 1.1351                 1.0753
 Frc consts  --      1.3857                 1.4702                 1.4233
 IR Inten    --      8.5267                 3.6321                 0.0742

                     61                     62                     63
                      A                      A                      A
 Frequencies --   1505.6993              1510.7275              1519.9233
 Red. masses --      1.1704                 1.0996                 1.0846
 Frc consts  --      1.5633                 1.4787                 1.4763
 IR Inten    --     10.0570                 5.3159                 4.9543

                     64                     65                     66
                      A                      A                      A
 Frequencies --   1523.4978              1534.6238              2907.5042
 Red. masses --      1.1085                 1.1114                 1.0733
 Frc consts  --      1.5159                 1.5422                 5.3460
 IR Inten    --      1.4653                 5.3969                27.4552

                     67                     68                     69
                      A                      A                      A
 Frequencies --   2916.1553              3021.7707              3050.1296
 Red. masses --      1.0721                 1.0592                 1.0624
 Frc consts  --      5.3717                 5.6983                 5.8232
 IR Inten    --    142.2084                46.5878                22.2254

                     70                     71                     72
                      A                      A                      A
 Frequencies --   3053.5986              3061.3532              3077.1806
 Red. masses --      1.0635                 1.1031                 1.0884
 Frc consts  --      5.8428                 6.0912                 6.0723
 IR Inten    --     35.2713                 1.6046                73.5962

                     73                     74                     75
                      A                      A                      A
 Frequencies --   3078.3069              3095.4180              3103.4935
 Red. masses --      1.0870                 1.0860                 1.1047
 Frc consts  --      6.0689                 6.1308                 6.2692
 IR Inten    --     26.9737                20.2546                28.4571

                     76                     77                     78
                      A                      A                      A
 Frequencies --   3104.1584              3113.9586              3116.0895
 Red. masses --      1.1050                 1.0553                 1.0562
 Frc consts  --      6.2734                 6.0290                 6.0424
 IR Inten    --     45.6969                 7.9134                 0.9272

                     79                     80                     81
                      A                      A                      A
 Frequencies --   3191.3998              3191.5743              3464.3021
 Red. masses --      1.1121                 1.1115                 1.0735
 Frc consts  --      6.6733                 6.6705                 7.5910
 IR Inten    --      2.3965                 1.3087                 2.3585

 - Thermochemistry -
 -------------------
 Temperature   298.150 Kelvin.  Pressure   1.00000 Atm.
 Atom     1 has atomic number  6 and mass  12.00000

 Molecular mass:   204.09325 amu.
 Principal axes and moments of inertia in atomic units:
                           1         2         3
     Eigenvalues --  1237.754434867.682145103.17994
           X            0.99996  -0.00867   0.00001
           Y            0.00867   0.99996   0.00031
           Z           -0.00001  -0.00031   1.00000
 This molecule is an asymmetric top.
 Rotational symmetry number  1.
 Warning -- assumption of classical behavior for rotation
           may cause significant error
 Rotational temperatures (Kelvin)      0.06998     0.01779     0.01697
 Rotational constants (GHZ):           1.45808     0.37076     0.35365
 Zero-point vibrational energy     659843.7 (Joules/Mol)
                                  157.70643 (Kcal/Mol)
 Warning -- explicit consideration of  19 degrees of freedom as
           vibrations may cause significant error
 Vibrational temperatures:     55.77    65.15    77.77   136.73   261.87
          (Kelvin)            312.07   368.07   379.01   428.82   494.75
                              548.02   557.34   583.90   620.85   623.52
                              709.60   791.79   845.79   878.44  1017.54
                             1077.84  1136.06  1159.92  1178.97  1224.40
                             1265.22  1281.59  1321.54  1350.06  1429.98
                             1449.68  1463.74  1506.34  1508.75  1529.75
                             1545.81  1622.28  1652.64  1659.71  1691.54
                             1693.28  1717.66  1735.11  1757.98  1789.49
                             1833.09  1905.62  1912.48  1924.83  1955.12
                             1962.87  1969.81  1980.31  2022.11  2032.39
                             2042.99  2071.65  2099.79  2133.27  2156.51
                             2166.37  2173.60  2186.83  2191.97  2207.98
                             4183.25  4195.70  4347.65  4388.46  4393.45
                             4404.60  4427.38  4429.00  4453.62  4465.23
                             4466.19  4480.29  4483.36  4591.71  4591.96
                             4984.36

 Zero-point correction=                           0.251321 (Hartree/Particle)
 Thermal correction to Energy=                    0.263783
 Thermal correction to Enthalpy=                  0.264727
 Thermal correction to Gibbs Free Energy=         0.211303
 Sum of electronic and zero-point Energies=           -972.325721
 Sum of electronic and thermal Energies=              -972.313260
 Sum of electronic and thermal Enthalpies=            -972.312315
 Sum of electronic and thermal Free Energies=         -972.365740

                     E (Thermal)             CV                S
                      KCal/Mol        Cal/Mol-Kelvin    Cal/Mol-Kelvin
 Total                  165.526             48.408            112.442
 Electronic               0.000              0.000              0.000
 Translational            0.889              2.981             41.845
 Rotational               0.889              2.981             31.797
 Vibrational            163.749             42.447             38.800
 Vibration     1          0.594              1.981              5.321
 Vibration     2          0.595              1.979              5.014
 Vibration     3          0.596              1.976              4.663
 Vibration     4          0.603              1.953              3.554
 Vibration     5          0.630              1.864              2.308
 Vibration     6          0.646              1.815              1.985
 Vibration     7          0.666              1.753              1.690
 Vibration     8          0.670              1.740              1.639
 Vibration     9          0.691              1.677              1.428
 Vibration    10          0.723              1.588              1.194
 Vibration    11          0.751              1.511              1.036
 Vibration    12          0.756              1.497              1.010
 Vibration    13          0.771              1.458              0.941
 Vibration    14          0.793              1.402              0.854
 Vibration    15          0.794              1.398              0.848
 Vibration    16          0.849              1.265              0.675
 Vibration    17          0.906              1.139              0.544
 Vibration    18          0.945              1.058              0.471
 Vibration    19          0.970              1.009              0.432

                           ! Non-Optimized Parameters !
 Normal termination of Gaussian 16 at Wed Dec  9 23:31:04 2020.

 ----------------------------------------------------------------------
 # B3LYP/6-311++G(d,p) empiricaldispersion=gd3bj scf=xqc pop=npa geom=c
 heck
 ----------------------------------------------------------------------

 --------------------------------------
 CID_84082861_JID_3472_Energie_neutraal
 --------------------------------------
 Structure from the checkpoint file:  "JID_3472.chk"
 Charge =  0 Multiplicity = 1

 SCF Done:  E(RB3LYP) =  -972.770673722     A.U. after   14 cycles
 Normal termination of Gaussian 16 at Wed Dec  9 23:35:01 2020.

 ----------------------------------------------------------------------
 # B3LYP/6-311++G(d,p) empiricaldispersion=gd3bj scf=xqc pop=npa geom=c
 heck
 ----------------------------------------------------------------------

 ------------------------------------
 CID_84082861_JID_3472_Energie_kation
 ------------------------------------
 Structure from the checkpoint file:  "JID_3472.chk"
 Charge =  1 Multiplicity = 2

 SCF Done:  E(UB3LYP) =  -972.465715364     A.U. after   20 cycles
 Normal termination of Gaussian 16 at Wed Dec  9 23:42:55 2020.
 Gaussian 16:  ES64L-G16RevA.03 25-Dec-2016

 ----------------------------------------------------------------------
 # B3LYP/6-311++G(d,p) empiricaldispersion=gd3bj scf=xqc pop=npa geom=c
 heck
 ----------------------------------------------------------------------

 -----------------------------------
 CID_84082861_JID_3472_Energie_anion
 -----------------------------------
 Structure from the checkpoint file:  "JID_3472.chk"
 Charge = -1 Multiplicity = 2

                         Standard orientation:
 ---------------------------------------------------------------------
 Center     Atomic      Atomic             Coordinates (Angstroms)
 Number     Number       Type             X           Y           Z
 ---------------------------------------------------------------------
      1          6           0        2.876316   -0.820224   -1.203553
      2          6           0        2.122744    0.514446   -1.206861
      3          7           0        1.302535    0.626321   -0.000295
      4          6           0        2.124468    0.518181    1.205428
      5          6           0        2.878035   -0.816505    1.205106
      6          7           0        3.681927   -1.029366    0.000528
      7          6           0        0.394696    1.771733   -0.001546
      8          6           0       -1.077470    1.342245   -0.001653
      9          6           0       -1.492549    0.398652   -1.163515
     10         16           0       -2.567608   -0.519571    0.000676
     11          8           0       -2.365808   -1.973275    0.002750
     12          8           0       -3.924237    0.050241   -0.000313
     13          6           0       -1.493025    0.401919    1.162689
     14          1           0        2.145851   -1.636861   -1.263810
     15          1           0        3.526462   -0.888263   -2.082547
     16          1           0        1.470833    0.577279   -2.085896
     17          1           0        2.851161    1.348649   -1.278295
     18          1           0        2.852983    1.352589    1.273329
     19          1           0        1.473751    0.583605    2.085167
     20          1           0        2.147640   -1.632935    1.268902
     21          1           0        3.529433   -0.881866    2.083377
     22          1           0        4.456815   -0.365522   -0.001055
     23          1           0        0.578738    2.406464    0.875911
     24          1           0        0.579506    2.405465   -0.879599
     25          1           0       -1.718740    2.228795   -0.003058
     26          1           0       -2.013270    0.834010   -2.017336
     27          1           0       -0.677519   -0.259643   -1.471019
     28          1           0       -0.677994   -0.255389    1.472346
     29          1           0       -2.014089    0.839674    2.015075
 ---------------------------------------------------------------------

 SCF Done:  E(UB3LYP) =  -972.763990913     A.U. after   25 cycles

 The electronic state is 2-A.
 Alpha  occ. eigenvalues --  -88.94568 -19.02612 -19.02323 -14.21529 -14.20678
 Alpha  occ. eigenvalues --  -10.11375 -10.11373 -10.11072 -10.10672 -10.09989
 Alpha  occ. eigenvalues --  -10.09988 -10.09903 -10.09902  -8.01117  -5.97388
 Alpha  occ. eigenvalues --   -5.97275  -5.97173  -1.01335  -0.91181  -0.85248
 Alpha  occ. eigenvalues --   -0.80459  -0.76782  -0.67092  -0.64596  -0.61881
 Alpha  occ. eigenvalues --   -0.57243  -0.55035  -0.51711  -0.48691  -0.47454
 Alpha  occ. eigenvalues --   -0.42446  -0.40510  -0.40058  -0.39935  -0.37207
 Alpha  occ. eigenvalues --   -0.36897  -0.35970  -0.35491  -0.35294  -0.34278
 Alpha  occ. eigenvalues --   -0.31650  -0.31568  -0.30087  -0.29573  -0.26921
 Alpha  occ. eigenvalues --   -0.26354  -0.25960  -0.25561  -0.24347  -0.23058
 Alpha  occ. eigenvalues --   -0.22892  -0.21318  -0.19382  -0.14374  -0.12717
 Alpha  occ. eigenvalues --    0.03926
 Alpha virt. eigenvalues --    0.06428   0.06680   0.07738   0.08539   0.09110
 Alpha virt. eigenvalues --    0.09743   0.10077   0.10374   0.11457   0.11725
 Alpha virt. eigenvalues --    0.12440   0.12555   0.12589   0.13282   0.13320

  Beta  occ. eigenvalues --  -88.94560 -19.02603 -19.02320 -14.21508 -14.20662
  Beta  occ. eigenvalues --  -10.11352 -10.11350 -10.11060 -10.10633 -10.09979
  Beta  occ. eigenvalues --  -10.09978 -10.09875 -10.09873  -8.01108  -5.97382
  Beta  occ. eigenvalues --   -5.97265  -5.97167  -1.01314  -0.91162  -0.85209
  Beta  occ. eigenvalues --   -0.80419  -0.76742  -0.67053  -0.64536  -0.61828
  Beta  occ. eigenvalues --   -0.57199  -0.54979  -0.51655  -0.48624  -0.47386
  Beta  occ. eigenvalues --   -0.42378  -0.40475  -0.40010  -0.39912  -0.37169
  Beta  occ. eigenvalues --   -0.36840  -0.35947  -0.35455  -0.35249  -0.34248
  Beta  occ. eigenvalues --   -0.31608  -0.31531  -0.30052  -0.29522  -0.26879
  Beta  occ. eigenvalues --   -0.26308  -0.25923  -0.25520  -0.24304  -0.23054
  Beta  occ. eigenvalues --   -0.22863  -0.21309  -0.19358  -0.14296  -0.12606
  Beta virt. eigenvalues --    0.06507   0.07318   0.07641   0.08173   0.09132
  Beta virt. eigenvalues --    0.09743   0.09996   0.10648   0.10829   0.11755
  Beta virt. eigenvalues --    0.12057   0.12646   0.12872   0.13061   0.13422

 Mulliken charges and spin densities:
               1          2
     1  C    0.535557  -1.027183
     2  C    0.357236  -0.568798
     3  N    0.119847   0.140012
     4  C    0.356055  -0.567614
     5  C    0.536613  -1.028049
     6  N   -0.217663   0.129080
     7  C   -0.298428  -0.737202
     8  C    0.408145   0.528743
     9  C   -0.498586  -0.466487
    10  S    0.848315  -0.150541
    11  O   -0.177030   0.001314
    12  O   -0.247041   0.007882
    13  C   -0.496694  -0.468200
    14  H    0.143046   0.016587
    15  H   -0.091724   0.269239
    16  H   -0.260160   0.403858
    17  H   -0.324409   0.472557
    18  H   -0.324363   0.472449
    19  H   -0.259801   0.403599
    20  H    0.143089   0.016493
    21  H   -0.092018   0.269567
    22  H   -0.011641   0.236629
    23  H   -0.640207   0.818350
    24  H   -0.638932   0.817006
    25  H   -0.155649   0.427238
    26  H   -0.136013   0.382707
    27  H    0.279154  -0.090928
    28  H    0.278712  -0.090356
    29  H   -0.135413   0.382050
 Sum of Mulliken charges =  -1.00000   1.00000

 Dipole moment (field-independent basis, Debye):
    X=             -1.1411    Y=             -3.7520    Z=              0.0041  Tot=              3.9217
 Quadrupole moment (field-independent basis, Debye-Ang):
   XX=           -164.4900   YY=           -138.7767   ZZ=           -122.5049
   XY=             -6.9079   XZ=              0.0059   YZ=              0.0146

 Summary of Natural Population Analysis:

                                       Natural Population
                Natural  -----------------------------------------------
    Atom  No    Charge         Core      Valence    Rydberg      Total
 -----------------------------------------------------------------------
      C    1   -0.09313      0.99962     2.08157    0.01194     3.09313
      C    2   -0.09035      0.99961     2.07914    0.01161     3.09035
      N    3   -0.29810      0.99971     2.78287    0.01553     3.79810
      C    4   -0.09034      0.99961     2.07913    0.01161     3.09034
      C    5   -0.09313      0.99962     2.08156    0.01194     3.09313
      N    6   -0.33496      0.99976     2.82291    0.01229     3.83496
      C    7   -0.08055      0.99957     2.06726    0.01371     3.08055
      C    8   -0.13075      0.99960     2.11717    0.01398     3.13075
      C    9   -0.27888      0.99960     2.26634    0.01294     3.27888
      S   10    1.00922      4.99930     1.89710    0.09438     6.99078
      O   11   -0.45972      0.99991     3.45445    0.00537     4.45972
      O   12   -0.46580      0.99991     3.46043    0.00546     4.46580
      C   13   -0.27888      0.99960     2.26635    0.01294     3.27888
      H   14    0.09101      0.00000     0.40755    0.00144     0.40899
      H   15    0.09601      0.00000     0.40318    0.00082     0.40399
      H   16    0.09794      0.00000     0.40048    0.00158     0.40206
      H   17    0.08302      0.00000     0.41458    0.00240     0.41698
      H   18    0.08301      0.00000     0.41459    0.00240     0.41699
      H   19    0.09795      0.00000     0.40047    0.00157     0.40205
      H   20    0.09101      0.00000     0.40755    0.00144     0.40899
      H   21    0.09601      0.00000     0.40318    0.00082     0.40399
      H   22    0.17055      0.00000     0.32689    0.00256     0.32945
      H   23    0.10214      0.00000     0.39468    0.00318     0.39786
      H   24    0.10211      0.00000     0.39471    0.00318     0.39789
      H   25    0.10978      0.00000     0.38834    0.00187     0.39022
      H   26    0.11572      0.00000     0.38310    0.00118     0.38428
      H   27    0.11670      0.00000     0.38163    0.00166     0.38330
      H   28    0.11671      0.00000     0.38163    0.00166     0.38329
      H   29    0.11572      0.00000     0.38310    0.00118     0.38428
 =======================================================================
   * Total *    0.00000     16.99540    37.74195    0.26265    55.00000

 Normal termination of Gaussian 16 at Wed Dec  9 23:52:52 2020.
