 Gaussian 16, Revision A.03,

 -----------------------------------------------------------
 # opt freq B3LYP/6-31G(d) empiricaldispersion=gd3bj scf=xqc
 -----------------------------------------------------------

 -------------------------------
 CID_130507519_JID_4163_neutraal
 -------------------------------
 Symbolic Z-matrix:
 Charge =  0 Multiplicity = 1

 SCF Done:  E(RB3LYP) =  -607.301039884     A.U. after   15 cycles
 SCF Done:  E(RB3LYP) =  -607.302748658     A.U. after   13 cycles
 SCF Done:  E(RB3LYP) =  -607.303457856     A.U. after   13 cycles
 SCF Done:  E(RB3LYP) =  -607.303831525     A.U. after   13 cycles
 SCF Done:  E(RB3LYP) =  -607.304402365     A.U. after   12 cycles
 SCF Done:  E(RB3LYP) =  -607.304730314     A.U. after   12 cycles
 SCF Done:  E(RB3LYP) =  -607.299844513     A.U. after   15 cycles
 SCF Done:  E(RB3LYP) =  -607.303795097     A.U. after   13 cycles
 SCF Done:  E(RB3LYP) =  -607.304893224     A.U. after   11 cycles
 SCF Done:  E(RB3LYP) =  -607.304729804     A.U. after   14 cycles
 SCF Done:  E(RB3LYP) =  -607.305306286     A.U. after   12 cycles
 SCF Done:  E(RB3LYP) =  -607.305338357     A.U. after   11 cycles
 SCF Done:  E(RB3LYP) =  -607.305340528     A.U. after   10 cycles
 SCF Done:  E(RB3LYP) =  -607.305342033     A.U. after    9 cycles
 SCF Done:  E(RB3LYP) =  -607.305342069     A.U. after    8 cycles
 Optimization completed.
    -- Stationary point found.
 Normal termination of Gaussian 16 at Thu Dec 10 09:21:20 2020.

 --------------------------------------------------------------------
 #N Geom=AllCheck Guess=TCheck SCRF=Check GenChk RB3LYP/6-31G(d) Freq
 --------------------------------------------------------------------

 Structure from the checkpoint file:  "JID_4163.chk"
 -------------------------------
 CID_130507519_JID_4163_neutraal
 -------------------------------
 Charge =  0 Multiplicity = 1

 SCF Done:  E(RB3LYP) =  -607.305342069     A.U. after    1 cycles

  Exact polarizability: 143.616  19.656 112.911  11.889  -8.445  96.286
 Approx polarizability: 199.097  45.030 192.841  23.606 -25.429 154.295

                      1                      2                      3
                      A                      A                      A
 Frequencies --     42.5561                51.5733                75.7399
 Red. masses --      7.1376                 5.3793                 3.9402
 Frc consts  --      0.0076                 0.0084                 0.0133
 IR Inten    --      0.9713                 2.2844                 3.4979

                      4                      5                      6
                      A                      A                      A
 Frequencies --    121.2901               149.5681               169.9776
 Red. masses --      9.1107                 4.3063                 5.3076
 Frc consts  --      0.0790                 0.0568                 0.0904
 IR Inten    --      6.6753                 4.7814                 1.2503

                      7                      8                      9
                      A                      A                      A
 Frequencies --    179.3465               190.6331               234.0420
 Red. masses --      3.8456                 2.9059                 1.1903
 Frc consts  --      0.0729                 0.0622                 0.0384
 IR Inten    --      2.4355                 4.8834                 0.6279

                     10                     11                     12
                      A                      A                      A
 Frequencies --    252.5960               270.4270               307.8681
 Red. masses --      1.7902                 2.4925                 2.1888
 Frc consts  --      0.0673                 0.1074                 0.1222
 IR Inten    --      2.4976                 5.0088                 0.3582

                     13                     14                     15
                      A                      A                      A
 Frequencies --    371.7614               374.2731               391.7298
 Red. masses --      2.3373                 2.4303                 2.2247
 Frc consts  --      0.1903                 0.2006                 0.2011
 IR Inten    --      3.7673                 1.1029                 0.6347

                     16                     17                     18
                      A                      A                      A
 Frequencies --    482.8142               516.2590               549.9932
 Red. masses --      3.6087                 7.8136                 5.8804
 Frc consts  --      0.4956                 1.2270                 1.0480
 IR Inten    --      2.3244                 0.0913                 0.5950

                     19                     20                     21
                      A                      A                      A
 Frequencies --    563.4279               580.8979               622.0354
 Red. masses --      6.5097                 5.6798                 4.8773
 Frc consts  --      1.2175                 1.1292                 1.1119
 IR Inten    --      0.3248                 0.3203                 0.1952

                     22                     23                     24
                      A                      A                      A
 Frequencies --    652.4357               670.7812               680.4238
 Red. masses --      3.3878                 4.2340                 5.2363
 Frc consts  --      0.8496                 1.1224                 1.4284
 IR Inten    --     17.3714                 3.7600                 4.5128

                     25                     26                     27
                      A                      A                      A
 Frequencies --    714.2091               826.7980               865.1732
 Red. masses --      3.4277                 1.3467                 1.9271
 Frc consts  --      1.0302                 0.5424                 0.8499
 IR Inten    --      3.3591                17.2803                 0.1848

                     28                     29                     30
                      A                      A                      A
 Frequencies --    878.3589               906.2965               950.2416
 Red. masses --      1.3559                 2.3369                 2.4437
 Frc consts  --      0.6163                 1.1309                 1.3001
 IR Inten    --     16.0123                 6.8874                 5.3719

                     31                     32                     33
                      A                      A                      A
 Frequencies --    967.3531              1005.8954              1013.0584
 Red. masses --      1.5149                 2.7914                 1.9883
 Frc consts  --      0.8352                 1.6641                 1.2023
 IR Inten    --      0.1701                14.2344                10.7090

                     34                     35                     36
                      A                      A                      A
 Frequencies --   1041.6623              1056.9777              1078.1449
 Red. masses --      4.7528                 1.3352                 2.0952
 Frc consts  --      3.0384                 0.8789                 1.4349
 IR Inten    --     14.4744                 0.2709                 7.1993

                     37                     38                     39
                      A                      A                      A
 Frequencies --   1152.9831              1192.6770              1195.3072
 Red. masses --      2.0352                 1.5059                 2.4125
 Frc consts  --      1.5940                 1.2621                 2.0308
 IR Inten    --      6.8389                18.8322                15.6269

                     40                     41                     42
                      A                      A                      A
 Frequencies --   1227.5910              1235.3480              1274.4695
 Red. masses --      1.8851                 1.8710                 2.5460
 Frc consts  --      1.6738                 1.6823                 2.4365
 IR Inten    --      4.8708                 1.4631                 3.7346

                     43                     44                     45
                      A                      A                      A
 Frequencies --   1323.2174              1353.3423              1388.3851
 Red. masses --      1.3194                 2.1994                 3.9989
 Frc consts  --      1.3611                 2.3734                 4.5417
 IR Inten    --      3.9579                 2.6817                 5.3539

                     46                     47                     48
                      A                      A                      A
 Frequencies --   1400.8972              1418.9304              1430.6022
 Red. masses --      1.6573                 1.6567                 1.1996
 Frc consts  --      1.9163                 1.9652                 1.4465
 IR Inten    --     14.2144                 4.2113                 0.6177

                     49                     50                     51
                      A                      A                      A
 Frequencies --   1436.1094              1455.2058              1496.6755
 Red. masses --      3.0954                 1.2079                 1.4444
 Frc consts  --      3.7614                 1.5071                 1.9064
 IR Inten    --     22.9807                 4.7379                20.4144

                     52                     53                     54
                      A                      A                      A
 Frequencies --   1509.0339              1513.7974              1515.3327
 Red. masses --      1.8595                 1.1450                 1.0909
 Frc consts  --      2.4948                 1.5459                 1.4759
 IR Inten    --     22.1929                 9.7129                 3.9271

                     55                     56                     57
                      A                      A                      A
 Frequencies --   1521.0148              1528.6719              1542.6661
 Red. masses --      1.0541                 1.0514                 1.0591
 Frc consts  --      1.4368                 1.4476                 1.4850
 IR Inten    --      2.0847                 5.1147                 7.2447

                     58                     59                     60
                      A                      A                      A
 Frequencies --   1597.3715              2353.3318              2358.0378
 Red. masses --      4.7551                12.6826                12.6566
 Frc consts  --      7.1486                41.3834                41.4639
 IR Inten    --     36.4087                 8.3610                63.1364

                     61                     62                     63
                      A                      A                      A
 Frequencies --   3060.3688              3065.6069              3073.4553
 Red. masses --      1.0380                 1.0576                 1.0395
 Frc consts  --      5.7278                 5.8559                 5.7853
 IR Inten    --      6.4597                23.6063                16.0644

                     64                     65                     66
                      A                      A                      A
 Frequencies --   3096.2319              3116.9944              3134.3439
 Red. masses --      1.0614                 1.1022                 1.1034
 Frc consts  --      5.9951                 6.3095                 6.3864
 IR Inten    --     18.1713                10.6929                 7.4996

                     67                     68                     69
                      A                      A                      A
 Frequencies --   3139.0111              3143.7909              3151.0170
 Red. masses --      1.1035                 1.1038                 1.1055
 Frc consts  --      6.4062                 6.4273                 6.4673
 IR Inten    --     16.2335                23.3028                 6.3368

                     70                     71                     72
                      A                      A                      A
 Frequencies --   3183.6082              3276.2348              3296.5451
 Red. masses --      1.0988                 1.0972                 1.0995
 Frc consts  --      6.5614                 6.9391                 7.0396
 IR Inten    --      4.9709                 0.6807                 4.3399

 - Thermochemistry -
 -------------------
 Temperature   298.150 Kelvin.  Pressure   1.00000 Atm.
 Atom     1 has atomic number  6 and mass  12.00000

 Molecular mass:   188.10620 amu.
 Principal axes and moments of inertia in atomic units:
                           1         2         3
     Eigenvalues --  1458.705214147.207844571.48091
           X            0.99991   0.00143  -0.01316
           Y           -0.00093   0.99929   0.03776
           Z            0.01321  -0.03774   0.99920
 This molecule is an asymmetric top.
 Rotational symmetry number  1.
 Warning -- assumption of classical behavior for rotation
           may cause significant error
 Rotational temperatures (Kelvin)      0.05938     0.02088     0.01895
 Rotational constants (GHZ):           1.23722     0.43517     0.39478
 Zero-point vibrational energy     556053.1 (Joules/Mol)
                                  132.89989 (Kcal/Mol)
 Warning -- explicit consideration of  20 degrees of freedom as
           vibrations may cause significant error
 Vibrational temperatures:     61.23    74.20   108.97   174.51   215.20
          (Kelvin)            244.56   258.04   274.28   336.73   363.43
                              389.08   442.95   534.88   538.50   563.61
                              694.66   742.78   791.32   810.65   835.78
                              894.97   938.71   965.10   978.98  1027.59
                             1189.58  1244.79  1263.76  1303.96  1367.19
                             1391.81  1447.26  1457.57  1498.72  1520.76
                             1551.21  1658.89  1716.00  1719.78  1766.23
                             1777.39  1833.68  1903.81  1947.16  1997.58
                             2015.58  2041.52  2058.32  2066.24  2093.72
                             2153.38  2171.16  2178.02  2180.23  2188.40
                             2199.42  2219.55  2298.26  3385.92  3392.69
                             4403.19  4410.72  4422.02  4454.79  4484.66
                             4509.62  4516.34  4523.21  4533.61  4580.50
                             4713.77  4742.99

 Zero-point correction=                           0.211789 (Hartree/Particle)
 Thermal correction to Energy=                    0.225362
 Thermal correction to Enthalpy=                  0.226306
 Thermal correction to Gibbs Free Energy=         0.171226
 Sum of electronic and zero-point Energies=           -607.093553
 Sum of electronic and thermal Energies=              -607.079980
 Sum of electronic and thermal Enthalpies=            -607.079036
 Sum of electronic and thermal Free Energies=         -607.134116

                     E (Thermal)             CV                S
                      KCal/Mol        Cal/Mol-Kelvin    Cal/Mol-Kelvin
 Total                  141.417             50.389            115.926
 Electronic               0.000              0.000              0.000
 Translational            0.889              2.981             41.601
 Rotational               0.889              2.981             31.692
 Vibrational            139.640             44.428             42.632
 Vibration     1          0.595              1.980              5.136
 Vibration     2          0.596              1.977              4.756
 Vibration     3          0.599              1.965              3.998
 Vibration     4          0.609              1.931              3.080
 Vibration     5          0.618              1.903              2.678
 Vibration     6          0.625              1.879              2.436
 Vibration     7          0.629              1.868              2.335
 Vibration     8          0.634              1.853              2.222
 Vibration     9          0.654              1.789              1.848
 Vibration    10          0.664              1.758              1.712
 Vibration    11          0.674              1.728              1.593
 Vibration    12          0.698              1.659              1.374
 Vibration    13          0.743              1.530              1.073
 Vibration    14          0.745              1.525              1.062
 Vibration    15          0.759              1.488              0.994
 Vibration    16          0.839              1.288              0.703
 Vibration    17          0.871              1.214              0.619
 Vibration    18          0.905              1.140              0.544
 Vibration    19          0.919              1.110              0.517
 Vibration    20          0.938              1.073              0.484

 Optimization completed.
    -- Stationary point found.
 Normal termination of Gaussian 16 at Thu Dec 10 09:28:29 2020.

 ----------------------------------------------------------------------
 # B3LYP/6-311++G(d,p) empiricaldispersion=gd3bj scf=xqc pop=npa geom=c
 heck
 ----------------------------------------------------------------------

 ---------------------------------------
 CID_130507519_JID_4163_Energie_neutraal
 ---------------------------------------
 Structure from the checkpoint file:  "JID_4163.chk"
 Charge =  0 Multiplicity = 1

 SCF Done:  E(RB3LYP) =  -607.468753521     A.U. after   15 cycles
 Normal termination of Gaussian 16 at Thu Dec 10 09:31:05 2020.

 ----------------------------------------------------------------------
 # B3LYP/6-311++G(d,p) empiricaldispersion=gd3bj scf=xqc pop=npa geom=c
 heck
 ----------------------------------------------------------------------

 -------------------------------------
 CID_130507519_JID_4163_Energie_kation
 -------------------------------------
 Structure from the checkpoint file:  "JID_4163.chk"
 Charge =  1 Multiplicity = 2

 SCF Done:  E(UB3LYP) =  -607.122651822     A.U. after   27 cycles
 Normal termination of Gaussian 16 at Thu Dec 10 09:37:18 2020.
 Gaussian 16:  ES64L-G16RevA.03 25-Dec-2016

 ----------------------------------------------------------------------
 # B3LYP/6-311++G(d,p) empiricaldispersion=gd3bj scf=xqc pop=npa geom=c
 heck
 ----------------------------------------------------------------------

 ------------------------------------
 CID_130507519_JID_4163_Energie_anion
 ------------------------------------
 Structure from the checkpoint file:  "JID_4163.chk"
 Charge = -1 Multiplicity = 2

                         Standard orientation:
 ---------------------------------------------------------------------
 Center     Atomic      Atomic             Coordinates (Angstroms)
 Number     Number       Type             X           Y           Z
 ---------------------------------------------------------------------
      1          6           0       -3.612023    0.307801    0.898719
      2          6           0       -2.144525    0.228086    0.423461
      3          6           0       -1.206531    0.390017    1.642568
      4          6           0       -1.925242   -1.128462   -0.311671
      5          6           0       -0.758843   -1.199208   -1.301888
      6          7           0        0.536524   -0.939511   -0.691226
      7          6           0        1.315904    0.154533   -0.836504
      8          6           0        2.400983   -0.022892    0.018082
      9          6           0        2.163159   -1.280115    0.639002
     10          7           0        1.033291   -1.826143    0.208458
     11          6           0        3.496386    0.854564    0.216892
     12          7           0        4.400530    1.565570    0.393361
     13          6           0       -1.888870    1.327916   -0.524370
     14          7           0       -1.649631    2.160450   -1.298002
     15          1           0       -3.819552   -0.533140    1.568973
     16          1           0       -3.794899    1.237561    1.445092
     17          1           0       -4.306304    0.259063    0.054549
     18          1           0       -1.375630   -0.440765    2.334791
     19          1           0       -0.153102    0.395085    1.362237
     20          1           0       -1.426147    1.326264    2.164323
     21          1           0       -1.800047   -1.905178    0.449384
     22          1           0       -2.830769   -1.370781   -0.880139
     23          1           0       -0.722517   -2.197589   -1.746024
     24          1           0       -0.885804   -0.469434   -2.104429
     25          1           0        1.047734    0.970982   -1.490066
     26          1           0        2.779651   -1.788059    1.367412
 ---------------------------------------------------------------------

 SCF Done:  E(UB3LYP) =  -607.464858956     A.U. after   33 cycles
 SCF Done:  E(UB3LYP) =  -607.464858956     a.u. after    1 cycles

 The electronic state is 2-A.
 Alpha  occ. eigenvalues --  -14.30122 -14.24439 -14.22238 -14.21049 -10.13985
 Alpha  occ. eigenvalues --  -10.12490 -10.11982 -10.11891 -10.11592 -10.11433
 Alpha  occ. eigenvalues --  -10.10721 -10.09269 -10.08311 -10.08218  -0.96833
 Alpha  occ. eigenvalues --   -0.82282  -0.80873  -0.77162  -0.74322  -0.71456
 Alpha  occ. eigenvalues --   -0.65765  -0.61121  -0.57993  -0.55036  -0.54184
 Alpha  occ. eigenvalues --   -0.48534  -0.46601  -0.41190  -0.40661  -0.39536
 Alpha  occ. eigenvalues --   -0.37299  -0.35112  -0.34706  -0.33569  -0.33099
 Alpha  occ. eigenvalues --   -0.31819  -0.30765  -0.29361  -0.28274  -0.27675
 Alpha  occ. eigenvalues --   -0.27259  -0.27113  -0.26602  -0.25877  -0.24472
 Alpha  occ. eigenvalues --   -0.23517  -0.23433  -0.20953  -0.17958  -0.16249
 Alpha  occ. eigenvalues --    0.04007
 Alpha virt. eigenvalues --    0.06157   0.07470   0.07901   0.08542   0.08923
 Alpha virt. eigenvalues --    0.09375   0.09676   0.10088   0.10697   0.11530
 Alpha virt. eigenvalues --    0.11608   0.11915   0.12021   0.12550   0.13377

  Beta  occ. eigenvalues --  -14.30006 -14.24392 -14.22225 -14.20987 -10.13984
  Beta  occ. eigenvalues --  -10.12471 -10.11983 -10.11683 -10.11612 -10.11415
  Beta  occ. eigenvalues --  -10.10710 -10.09228 -10.08297 -10.08169  -0.96665
  Beta  occ. eigenvalues --   -0.82265  -0.80773  -0.77070  -0.74263  -0.71233
  Beta  occ. eigenvalues --   -0.65685  -0.61064  -0.57849  -0.54953  -0.54124
  Beta  occ. eigenvalues --   -0.48355  -0.46493  -0.41082  -0.40439  -0.39413
  Beta  occ. eigenvalues --   -0.37232  -0.35010  -0.34548  -0.33473  -0.33016
  Beta  occ. eigenvalues --   -0.31778  -0.30720  -0.29286  -0.28232  -0.27543
  Beta  occ. eigenvalues --   -0.27186  -0.27017  -0.26536  -0.25703  -0.24414
  Beta  occ. eigenvalues --   -0.23487  -0.23388  -0.20871  -0.17382  -0.15768
  Beta virt. eigenvalues --    0.06706   0.07510   0.08041   0.08615   0.09028
  Beta virt. eigenvalues --    0.09224   0.09762   0.10201   0.10664   0.10844
  Beta virt. eigenvalues --    0.11661   0.11799   0.11990   0.12239   0.12953

 Mulliken charges and spin densities:
               1          2
     1  C    1.175715  -1.661978
     2  C   -1.412520   2.590703
     3  C   -0.222373  -0.487646
     4  C    0.978929  -1.502978
     5  C    0.401180  -0.773211
     6  N    0.458571   0.023904
     7  C   -0.579612   0.608521
     8  C    1.575209  -0.217204
     9  C    0.010590  -0.023105
    10  N   -0.396954   0.082718
    11  C   -1.468461  -0.277511
    12  N   -0.262672   0.037000
    13  C    0.671792  -1.146313
    14  N   -0.335470   0.038537
    15  H   -0.524264   0.697653
    16  H   -0.173132   0.318455
    17  H   -0.294399   0.468868
    18  H   -0.025519   0.198350
    19  H    0.080136   0.062652
    20  H    0.130504   0.031594
    21  H    0.240813  -0.050289
    22  H   -0.610698   0.806346
    23  H   -0.635184   0.862676
    24  H    0.036006   0.142547
    25  H    0.075185   0.113510
    26  H    0.106627   0.056202
 Sum of Mulliken charges =  -1.00000   1.00000

 Dipole moment (field-independent basis, Debye):
    X=              2.7103    Y=              0.1703    Z=              2.0950  Tot=              3.4298
 Quadrupole moment (field-independent basis, Debye-Ang):
   XX=           -168.6116   YY=           -126.8481   ZZ=           -113.7552
   XY=            -17.9598   XZ=             -3.4368   YZ=             -3.4372

 Summary of Natural Population Analysis:

                                       Natural Population
                Natural  -----------------------------------------------
    Atom  No    Charge         Core      Valence    Rydberg      Total
 -----------------------------------------------------------------------
      C    1   -0.27267      0.99964     2.26537    0.00766     3.27267
      C    2   -0.09662      0.99950     2.08412    0.01300     3.09662
      C    3   -0.27447      0.99963     2.26769    0.00715     3.27447
      C    4   -0.18565      0.99959     2.17449    0.01157     3.18565
      C    5   -0.08448      0.99959     2.07188    0.01301     3.08448
      N    6   -0.09252      0.99965     2.57884    0.01402     3.59252
      C    7    0.06108      0.99952     1.92896    0.01043     2.93892
      C    8   -0.15382      0.99943     2.14632    0.00806     3.15382
      C    9    0.00350      0.99960     1.98367    0.01322     2.99650
      N   10   -0.14532      0.99973     2.63446    0.01113     3.64532
      C   11    0.15509      0.99963     1.82858    0.01670     2.84491
      N   12   -0.18315      0.99979     2.67321    0.01015     3.68315
      C   13    0.16854      0.99962     1.81096    0.02089     2.83146
      N   14   -0.18714      0.99979     2.67618    0.01117     3.68714
      H   15    0.10620      0.00000     0.39190    0.00190     0.39380
      H   16    0.10233      0.00000     0.39628    0.00139     0.39767
      H   17    0.10723      0.00000     0.39093    0.00184     0.39277
      H   18    0.10394      0.00000     0.39518    0.00088     0.39606
      H   19    0.10930      0.00000     0.38925    0.00144     0.39070
      H   20    0.10143      0.00000     0.39773    0.00085     0.39857
      H   21    0.10977      0.00000     0.38844    0.00179     0.39023
      H   22    0.11316      0.00000     0.38230    0.00454     0.38684
      H   23    0.11297      0.00000     0.38436    0.00267     0.38703
      H   24    0.10676      0.00000     0.39134    0.00190     0.39324
      H   25    0.11411      0.00000     0.38474    0.00115     0.38589
      H   26    0.10044      0.00000     0.39881    0.00075     0.39956
 =======================================================================
   * Total *   -0.00000     13.99471    35.81601    0.18928    50.00000

 Normal termination of Gaussian 16 at Thu Dec 10 09:44:56 2020.
