 Gaussian 16, Revision A.03,

 -----------------------------------------------------------
 # opt freq B3LYP/6-31G(d) empiricaldispersion=gd3bj scf=xqc
 -----------------------------------------------------------

 -----------------------------
 CID_4721389_JID_8584_neutraal
 -----------------------------
 Symbolic Z-matrix:
 Charge =  0 Multiplicity = 1

 SCF Done:  E(RB3LYP) =  -751.172230123     A.U. after   14 cycles
 SCF Done:  E(RB3LYP) =  -751.168252994     A.U. after   14 cycles
 SCF Done:  E(RB3LYP) =  -751.176697364     A.U. after   12 cycles
 SCF Done:  E(RB3LYP) =  -751.178153985     A.U. after   11 cycles
 SCF Done:  E(RB3LYP) =  -751.178940386     A.U. after   11 cycles
 SCF Done:  E(RB3LYP) =  -751.179670227     A.U. after   12 cycles
 SCF Done:  E(RB3LYP) =  -751.179419580     A.U. after   12 cycles
 SCF Done:  E(RB3LYP) =  -751.180281332     A.U. after   11 cycles
 SCF Done:  E(RB3LYP) =  -751.180744440     A.U. after   11 cycles
 SCF Done:  E(RB3LYP) =  -751.180745234     A.U. after   11 cycles
 SCF Done:  E(RB3LYP) =  -751.181094267     A.U. after   11 cycles
 SCF Done:  E(RB3LYP) =  -751.181098131     A.U. after    9 cycles
 SCF Done:  E(RB3LYP) =  -751.181098937     A.U. after    8 cycles
 SCF Done:  E(RB3LYP) =  -751.181099099     A.U. after    7 cycles
 SCF Done:  E(RB3LYP) =  -751.181099120     A.U. after    7 cycles
 Optimization completed.
    -- Stationary point found.
 Normal termination of Gaussian 16 at Fri Dec 11 21:19:47 2020.

 --------------------------------------------------------------------
 #N Geom=AllCheck Guess=TCheck SCRF=Check GenChk RB3LYP/6-31G(d) Freq
 --------------------------------------------------------------------

 Structure from the checkpoint file:  "JID_8584.chk"
 -----------------------------
 CID_4721389_JID_8584_neutraal
 -----------------------------
 Charge =  0 Multiplicity = 1

 SCF Done:  E(RB3LYP) =  -751.181099120     A.U. after    1 cycles

  Exact polarizability: 206.609  27.060 174.401  -3.681   8.814 126.287
 Approx polarizability: 281.986  45.753 281.253  -7.992  19.875 218.503

                      1                      2                      3
                      A                      A                      A
 Frequencies --     15.6810                42.0075                58.5620
 Red. masses --      4.1405                 3.9536                 4.1180
 Frc consts  --      0.0006                 0.0041                 0.0083
 IR Inten    --      0.0497                 0.2616                 0.7849

                      4                      5                      6
                      A                      A                      A
 Frequencies --     61.2202                78.6619                94.9151
 Red. masses --      4.8452                 4.1173                 2.7099
 Frc consts  --      0.0107                 0.0150                 0.0144
 IR Inten    --      0.2048                 0.1515                 1.1148

                      7                      8                      9
                      A                      A                      A
 Frequencies --    119.6030               158.0074               166.0511
 Red. masses --      2.1813                 3.6170                 2.9210
 Frc consts  --      0.0184                 0.0532                 0.0475
 IR Inten    --      0.0430                 0.5136                 1.8279

                     10                     11                     12
                      A                      A                      A
 Frequencies --    216.6524               224.8346               263.5500
 Red. masses --      4.0445                 3.8128                 1.2463
 Frc consts  --      0.1119                 0.1136                 0.0510
 IR Inten    --      1.1988                 0.8376                 0.9556

                     13                     14                     15
                      A                      A                      A
 Frequencies --    310.6786               319.7825               341.9930
 Red. masses --      3.1420                 3.9789                 3.2410
 Frc consts  --      0.1787                 0.2397                 0.2233
 IR Inten    --      0.1630                 0.2889                 2.4767

                     16                     17                     18
                      A                      A                      A
 Frequencies --    356.1801               394.3545               418.5331
 Red. masses --      2.2600                 3.0737                 3.0017
 Frc consts  --      0.1689                 0.2816                 0.3098
 IR Inten    --      0.4610                 0.1099                 0.0132

                     19                     20                     21
                      A                      A                      A
 Frequencies --    473.6270               491.1068               503.3889
 Red. masses --      3.3996                 3.5735                 4.0408
 Frc consts  --      0.4493                 0.5078                 0.6033
 IR Inten    --      0.6054                 1.1688                 4.5883

                     22                     23                     24
                      A                      A                      A
 Frequencies --    555.6524               586.3530               612.8742
 Red. masses --      3.8332                 4.0751                 5.0155
 Frc consts  --      0.6973                 0.8255                 1.1100
 IR Inten    --      4.6671                11.3123                 3.8524

                     25                     26                     27
                      A                      A                      A
 Frequencies --    634.3540               639.2123               716.8155
 Red. masses --      4.9925                 5.5429                 1.7697
 Frc consts  --      1.1837                 1.3344                 0.5357
 IR Inten    --      0.9192                 0.5035                32.0728

                     28                     29                     30
                      A                      A                      A
 Frequencies --    737.6612               763.8754               769.6612
 Red. masses --      3.3679                 1.3944                 2.2963
 Frc consts  --      1.0798                 0.4794                 0.8015
 IR Inten    --     14.2854                47.6100                29.8841

                     31                     32                     33
                      A                      A                      A
 Frequencies --    785.4169               803.3606               838.4544
 Red. masses --      1.8443                 3.2583                 1.1998
 Frc consts  --      0.6703                 1.2390                 0.4970
 IR Inten    --     36.5739                14.5049                 0.5379

                     34                     35                     36
                      A                      A                      A
 Frequencies --    847.9794               852.8563               861.4228
 Red. masses --      2.3571                 2.1809                 1.2632
 Frc consts  --      0.9986                 0.9346                 0.5523
 IR Inten    --     58.4685                 0.9783                 1.1796

                     37                     38                     39
                      A                      A                      A
 Frequencies --    868.0705               920.4490               931.5313
 Red. masses --      1.6528                 1.5607                 1.4392
 Frc consts  --      0.7338                 0.7790                 0.7358
 IR Inten    --      2.4740                 0.7770                 3.0865

                     40                     41                     42
                      A                      A                      A
 Frequencies --    941.0210               952.3412               965.2075
 Red. masses --      1.7903                 2.4427                 1.3487
 Frc consts  --      0.9341                 1.3053                 0.7403
 IR Inten    --      3.6189                15.4700                 0.1062

                     43                     44                     45
                      A                      A                      A
 Frequencies --    969.4946               991.4612              1008.4036
 Red. masses --      1.2415                 1.2428                 1.8629
 Frc consts  --      0.6875                 0.7198                 1.1161
 IR Inten    --      0.0506                 0.5103                 4.7882

                     46                     47                     48
                      A                      A                      A
 Frequencies --   1021.9477              1059.9008              1075.3607
 Red. masses --      6.2337                 2.2526                 2.2285
 Frc consts  --      3.8358                 1.4910                 1.5183
 IR Inten    --      0.7404                 0.6274                 4.3450

                     49                     50                     51
                      A                      A                      A
 Frequencies --   1080.2154              1087.7039              1115.7014
 Red. masses --      3.1720                 1.9630                 3.3837
 Frc consts  --      2.1808                 1.3683                 2.4816
 IR Inten    --     51.7360                 5.1579                40.1905

                     52                     53                     54
                      A                      A                      A
 Frequencies --   1126.9655              1146.1138              1164.8056
 Red. masses --      1.9204                 1.8786                 1.9028
 Frc consts  --      1.4370                 1.4539                 1.5211
 IR Inten    --      6.9252                 3.9859                40.3772

                     55                     56                     57
                      A                      A                      A
 Frequencies --   1192.8889              1195.6697              1197.3500
 Red. masses --      1.0979                 1.4738                 1.1206
 Frc consts  --      0.9204                 1.2414                 0.9465
 IR Inten    --      0.0286                 6.1464                 3.1384

                     58                     59                     60
                      A                      A                      A
 Frequencies --   1214.2411              1227.3906              1228.5669
 Red. masses --      1.1485                 1.8516                 2.9790
 Frc consts  --      0.9977                 1.6435                 2.6492
 IR Inten    --      0.2915                 3.6053                 1.6453

                     61                     62                     63
                      A                      A                      A
 Frequencies --   1232.4485              1289.3507              1305.6060
 Red. masses --      1.4546                 3.3057                 1.5380
 Frc consts  --      1.3018                 3.2379                 1.5446
 IR Inten    --     16.3392               164.8366                44.7207

                     64                     65                     66
                      A                      A                      A
 Frequencies --   1312.5534              1331.9235              1364.9641
 Red. masses --      1.1156                 1.5593                 4.5700
 Frc consts  --      1.1324                 1.6299                 5.0166
 IR Inten    --      0.1417                14.4315                 0.5469

                     67                     68                     69
                      A                      A                      A
 Frequencies --   1370.0328              1377.2163              1381.1846
 Red. masses --      1.3677                 2.2983                 1.4583
 Frc consts  --      1.5126                 2.5683                 1.6390
 IR Inten    --      2.5000                 4.9673                26.5286

                     70                     71                     72
                      A                      A                      A
 Frequencies --   1416.2644              1420.8249              1454.1789
 Red. masses --      1.3631                 1.2624                 1.3571
 Frc consts  --      1.6109                 1.5015                 1.6908
 IR Inten    --     10.2657                13.3606                20.2799

                     73                     74                     75
                      A                      A                      A
 Frequencies --   1501.9294              1504.6467              1506.6137
 Red. masses --      1.7861                 1.6617                 1.5686
 Frc consts  --      2.3738                 2.2165                 2.0979
 IR Inten    --      8.9801                20.8089                10.5763

                     76                     77                     78
                      A                      A                      A
 Frequencies --   1514.6736              1524.0130              1529.3207
 Red. masses --      1.0415                 1.0573                 1.1806
 Frc consts  --      1.4079                 1.4469                 1.6269
 IR Inten    --      8.2781                13.6772                58.2278

                     79                     80                     81
                      A                      A                      A
 Frequencies --   1539.1336              1542.3782              1546.0454
 Red. masses --      1.3641                 1.4383                 2.1386
 Frc consts  --      1.9039                 2.0160                 3.0117
 IR Inten    --     22.0675                34.4189                 8.5648

                     82                     83                     84
                      A                      A                      A
 Frequencies --   1560.0809              1645.2576              1649.1031
 Red. masses --      1.3152                 5.4801                 6.3297
 Frc consts  --      1.8859                 8.7400                10.1421
 IR Inten    --      5.2200                 0.7235                 7.5981

                     85                     86                     87
                      A                      A                      A
 Frequencies --   1665.3982              1665.8284              2989.3658
 Red. masses --      5.5902                 6.0306                 1.0670
 Frc consts  --      9.1351                 9.8598                 5.6180
 IR Inten    --      1.2574                32.6583                31.3368

                     88                     89                     90
                      A                      A                      A
 Frequencies --   3015.9388              3045.3810              3053.7666
 Red. masses --      1.0557                 1.0596                 1.1085
 Frc consts  --      5.6575                 5.7897                 6.0907
 IR Inten    --     41.0888                48.2348                35.6249

                     91                     92                     93
                      A                      A                      A
 Frequencies --   3060.4334              3067.4154              3088.0673
 Red. masses --      1.0929                 1.0365                 1.1061
 Frc consts  --      6.0312                 5.7461                 6.2148
 IR Inten    --     41.0931                14.5651                22.7965

                     94                     95                     96
                      A                      A                      A
 Frequencies --   3139.4857              3151.6921              3167.2939
 Red. masses --      1.1014                 1.1033                 1.0870
 Frc consts  --      6.3959                 6.4572                 6.4245
 IR Inten    --     27.5114                17.6028                 9.0952

                     97                     98                     99
                      A                      A                      A
 Frequencies --   3177.4016              3182.5582              3186.7938
 Red. masses --      1.0860                 1.0860                 1.0898
 Frc consts  --      6.4599                 6.4808                 6.5206
 IR Inten    --      4.6094                 2.6751                 8.1207

                    100                    101                    102
                      A                      A                      A
 Frequencies --   3190.7131              3195.5991              3208.0252
 Red. masses --      1.0898                 1.0937                 1.0978
 Frc consts  --      6.5367                 6.5804                 6.6566
 IR Inten    --     18.3477                40.0669                23.1708

                    103                    104                    105
                      A                      A                      A
 Frequencies --   3209.3141              3227.1145              3489.7527
 Red. masses --      1.0953                 1.0922                 1.0733
 Frc consts  --      6.6466                 6.7018                 7.7009
 IR Inten    --     33.8981                10.5870                 1.5718

 - Thermochemistry -
 -------------------
 Temperature   298.150 Kelvin.  Pressure   1.00000 Atm.
 Atom     1 has atomic number  6 and mass  12.00000

 Molecular mass:   241.14666 amu.
 Principal axes and moments of inertia in atomic units:
                           1         2         3
     Eigenvalues --  2376.292106812.203848262.23548
           X            0.99998   0.00575   0.00023
           Y           -0.00576   0.99993   0.01031
           Z           -0.00017  -0.01031   0.99995
 This molecule is an asymmetric top.
 Rotational symmetry number  1.
 Warning -- assumption of classical behavior for rotation
           may cause significant error
 Rotational temperatures (Kelvin)      0.03645     0.01271     0.01048
 Rotational constants (GHZ):           0.75948     0.26493     0.21843
 Zero-point vibrational energy     836161.1 (Joules/Mol)
                                  199.84731 (Kcal/Mol)
 Warning -- explicit consideration of  24 degrees of freedom as
           vibrations may cause significant error
 Vibrational temperatures:     22.56    60.44    84.26    88.08   113.18
          (Kelvin)            136.56   172.08   227.34   238.91   311.71
                              323.49   379.19   447.00   460.10   492.05
                              512.46   567.39   602.18   681.44   706.59
                              724.26   799.46   843.63   881.79   912.69
                              919.68  1031.34  1061.33  1099.05  1107.37
                             1130.04  1155.86  1206.35  1220.05  1227.07
                             1239.40  1248.96  1324.32  1340.27  1353.92
                             1370.21  1388.72  1394.89  1426.49  1450.87
                             1470.35  1524.96  1547.20  1554.19  1564.96
                             1605.25  1621.45  1649.00  1675.90  1716.30
                             1720.30  1722.72  1747.02  1765.94  1767.63
                             1773.22  1855.09  1878.48  1888.47  1916.34
                             1963.88  1971.17  1981.51  1987.22  2037.69
                             2044.25  2092.24  2160.94  2164.85  2167.68
                             2179.28  2192.71  2200.35  2214.47  2219.14
                             2224.41  2244.61  2367.16  2372.69  2396.14
                             2396.76  4301.03  4339.26  4381.62  4393.69
                             4403.28  4413.33  4443.04  4517.02  4534.58
                             4557.03  4571.57  4578.99  4585.09  4590.72
                             4597.75  4615.63  4617.49  4643.10  5020.98

 Zero-point correction=                           0.318477 (Hartree/Particle)
 Thermal correction to Energy=                    0.335008
 Thermal correction to Enthalpy=                  0.335952
 Thermal correction to Gibbs Free Energy=         0.272505
 Sum of electronic and zero-point Energies=           -750.862622
 Sum of electronic and thermal Energies=              -750.846091
 Sum of electronic and thermal Enthalpies=            -750.845147
 Sum of electronic and thermal Free Energies=         -750.908594

                     E (Thermal)             CV                S
                      KCal/Mol        Cal/Mol-Kelvin    Cal/Mol-Kelvin
 Total                  210.221             63.771            133.536
 Electronic               0.000              0.000              0.000
 Translational            0.889              2.981             42.342
 Rotational               0.889              2.981             33.258
 Vibrational            208.443             57.810             57.936
 Vibration     1          0.593              1.986              7.117
 Vibration     2          0.595              1.980              5.162
 Vibration     3          0.596              1.974              4.505
 Vibration     4          0.597              1.973              4.417
 Vibration     5          0.600              1.964              3.924
 Vibration     6          0.603              1.953              3.556
 Vibration     7          0.609              1.933              3.107
 Vibration     8          0.621              1.894              2.574
 Vibration     9          0.624              1.884              2.480
 Vibration    10          0.645              1.816              1.987
 Vibration    11          0.649              1.803              1.920
 Vibration    12          0.670              1.740              1.638
 Vibration    13          0.700              1.653              1.359
 Vibration    14          0.706              1.636              1.311
 Vibration    15          0.721              1.592              1.203
 Vibration    16          0.732              1.563              1.139
 Vibration    17          0.761              1.482              0.984
 Vibration    18          0.781              1.430              0.897
 Vibration    19          0.830              1.309              0.727
 Vibration    20          0.847              1.270              0.681
 Vibration    21          0.859              1.242              0.650
 Vibration    22          0.911              1.127              0.533
 Vibration    23          0.943              1.061              0.474
 Vibration    24          0.972              1.005              0.428

 Optimization completed.
    -- Stationary point found.
 Normal termination of Gaussian 16 at Fri Dec 11 21:37:15 2020.

 ----------------------------------------------------------------------
 # B3LYP/6-311++G(d,p) empiricaldispersion=gd3bj scf=xqc pop=npa geom=c
 heck
 ----------------------------------------------------------------------

 -------------------------------------
 CID_4721389_JID_8584_Energie_neutraal
 -------------------------------------
 Structure from the checkpoint file:  "JID_8584.chk"
 Charge =  0 Multiplicity = 1

 SCF Done:  E(RB3LYP) =  -751.382715597     A.U. after   15 cycles
 Normal termination of Gaussian 16 at Fri Dec 11 21:45:09 2020.

 ----------------------------------------------------------------------
 # B3LYP/6-311++G(d,p) empiricaldispersion=gd3bj scf=xqc pop=npa geom=c
 heck
 ----------------------------------------------------------------------

 -----------------------------------
 CID_4721389_JID_8584_Energie_kation
 -----------------------------------
 Structure from the checkpoint file:  "JID_8584.chk"
 Charge =  1 Multiplicity = 2

 SCF Done:  E(UB3LYP) =  -751.100815800     A.U. after   26 cycles
 Normal termination of Gaussian 16 at Fri Dec 11 22:04:50 2020.
 Gaussian 16:  ES64L-G16RevA.03 25-Dec-2016

 ----------------------------------------------------------------------
 # B3LYP/6-311++G(d,p) empiricaldispersion=gd3bj scf=xqc pop=npa geom=c
 heck
 ----------------------------------------------------------------------

 ----------------------------------
 CID_4721389_JID_8584_Energie_anion
 ----------------------------------
 Structure from the checkpoint file:  "JID_8584.chk"
 Charge = -1 Multiplicity = 2

                         Standard orientation:
 ---------------------------------------------------------------------
 Center     Atomic      Atomic             Coordinates (Angstroms)
 Number     Number       Type             X           Y           Z
 ---------------------------------------------------------------------
      1          6           0        0.816052    2.876617    0.174448
      2          6           0       -0.663884    2.543895    0.150085
      3          8           0       -0.774051    1.123990    0.093528
      4          6           0       -2.012076    0.555271   -0.034307
      5          6           0       -3.213046    1.264059    0.038397
      6          6           0       -4.424624    0.578051   -0.088424
      7          6           0       -4.440106   -0.799544   -0.283914
      8          6           0       -3.229480   -1.494706   -0.357377
      9          6           0       -2.006871   -0.838576   -0.243086
     10          6           0       -0.688124   -1.563209   -0.338948
     11          7           0       -0.062884   -1.703168    0.984223
     12          6           0        1.325832   -2.183617    0.924187
     13          6           0        2.313643   -1.194503    0.335256
     14          6           0        2.903085   -0.224012    1.156348
     15          6           0        3.754812    0.744119    0.627181
     16          6           0        4.026958    0.761591   -0.742533
     17          6           0        3.452323   -0.202536   -1.571379
     18          6           0        2.607940   -1.175389   -1.033561
     19          1           0        1.295248    2.435036    1.052383
     20          1           0        0.959126    3.962187    0.202728
     21          1           0        1.315347    2.475033   -0.711890
     22          1           0       -1.170372    2.922407    1.049447
     23          1           0       -1.158537    2.985934   -0.726106
     24          1           0       -3.215297    2.336184    0.196019
     25          1           0       -5.356580    1.133572   -0.030212
     26          1           0       -5.381929   -1.331258   -0.379533
     27          1           0       -3.229454   -2.570824   -0.511021
     28          1           0       -0.850452   -2.571022   -0.741204
     29          1           0       -0.045485   -1.023652   -1.053600
     30          1           0       -0.060062   -0.781000    1.418902
     31          1           0        1.629584   -2.438354    1.946712
     32          1           0        1.329485   -3.115659    0.345877
     33          1           0        2.693045   -0.233855    2.224154
     34          1           0        4.209116    1.483057    1.281927
     35          1           0        4.690143    1.515046   -1.158279
     36          1           0        3.667129   -0.202696   -2.636629
     37          1           0        2.177932   -1.934947   -1.681700
 ---------------------------------------------------------------------

 SCF Done:  E(UB3LYP) =  -751.369173578     A.U. after   33 cycles
 SCF Done:  E(UB3LYP) =  -751.369173578     a.u. after    1 cycles

 The electronic state is 2-A.
 Alpha  occ. eigenvalues --  -19.06140 -14.20741 -10.14574 -10.13143 -10.10838
 Alpha  occ. eigenvalues --  -10.10419 -10.09027 -10.08933 -10.08901 -10.08863
 Alpha  occ. eigenvalues --  -10.08497 -10.08478 -10.08373 -10.08326 -10.08309
 Alpha  occ. eigenvalues --  -10.08272 -10.08191 -10.06374  -0.97836  -0.81986
 Alpha  occ. eigenvalues --   -0.77033  -0.76226  -0.69274  -0.67909  -0.66294
 Alpha  occ. eigenvalues --   -0.65668  -0.63946  -0.59856  -0.55469  -0.55290
 Alpha  occ. eigenvalues --   -0.51848  -0.50129  -0.49797  -0.49396  -0.44812
 Alpha  occ. eigenvalues --   -0.42867  -0.40587  -0.39686  -0.39227  -0.38155
 Alpha  occ. eigenvalues --   -0.37101  -0.36464  -0.35785  -0.35101  -0.33582
 Alpha  occ. eigenvalues --   -0.33166  -0.31782  -0.30754  -0.30492  -0.30237
 Alpha  occ. eigenvalues --   -0.29787  -0.28042  -0.27351  -0.26886  -0.26629
 Alpha  occ. eigenvalues --   -0.26553  -0.25931  -0.25074  -0.23575  -0.22857
 Alpha  occ. eigenvalues --   -0.17029  -0.16620  -0.16056  -0.13741  -0.13695
 Alpha  occ. eigenvalues --    0.04105
 Alpha virt. eigenvalues --    0.05703   0.06181   0.06807   0.06976   0.07197
 Alpha virt. eigenvalues --    0.07483   0.07630   0.07989   0.08465   0.08782
 Alpha virt. eigenvalues --    0.09161   0.09550   0.09742   0.10339   0.11120

  Beta  occ. eigenvalues --  -19.06134 -14.20737 -10.14573 -10.13117 -10.10832
  Beta  occ. eigenvalues --  -10.10415 -10.09025 -10.08921 -10.08894 -10.08860
  Beta  occ. eigenvalues --  -10.08487 -10.08468 -10.08359 -10.08311 -10.08304
  Beta  occ. eigenvalues --  -10.08258 -10.08170 -10.06346  -0.97824  -0.81976
  Beta  occ. eigenvalues --   -0.77016  -0.76201  -0.69252  -0.67884  -0.66267
  Beta  occ. eigenvalues --   -0.65634  -0.63921  -0.59835  -0.55431  -0.55258
  Beta  occ. eigenvalues --   -0.51809  -0.50100  -0.49755  -0.49360  -0.44779
  Beta  occ. eigenvalues --   -0.42821  -0.40562  -0.39667  -0.39206  -0.38131
  Beta  occ. eigenvalues --   -0.37059  -0.36442  -0.35760  -0.35080  -0.33553
  Beta  occ. eigenvalues --   -0.33134  -0.31750  -0.30735  -0.30466  -0.30211
  Beta  occ. eigenvalues --   -0.29748  -0.28024  -0.27324  -0.26855  -0.26601
  Beta  occ. eigenvalues --   -0.26529  -0.25897  -0.25045  -0.23544  -0.22834
  Beta  occ. eigenvalues --   -0.17007  -0.16590  -0.16016  -0.13732  -0.13684
  Beta virt. eigenvalues --    0.05971   0.06407   0.06697   0.07101   0.07234
  Beta virt. eigenvalues --    0.07432   0.07851   0.07928   0.08391   0.08482
  Beta virt. eigenvalues --    0.09184   0.09505   0.09922   0.10112   0.10670

 Mulliken charges and spin densities:
               1          2
     1  C    0.314494  -1.022177
     2  C    0.383848  -0.364598
     3  O   -0.078955   0.036980
     4  C   -0.691993   0.514324
     5  C    0.660470  -0.640439
     6  C    0.085046  -0.438734
     7  C   -0.209491  -0.259067
     8  C   -0.828884   0.400915
     9  C   -0.162236   0.757095
    10  C    0.985150  -1.298214
    11  N    0.063219   0.012169
    12  C    0.111228  -1.097098
    13  C    0.136145   0.678638
    14  C   -0.217094   0.051295
    15  C    0.137305  -0.229104
    16  C    1.413089  -1.740652
    17  C   -0.003976  -0.300627
    18  C   -0.845106   0.635266
    19  H    0.019111   0.114655
    20  H   -0.472013   0.643029
    21  H    0.134157   0.021051
    22  H   -0.190397   0.348584
    23  H   -0.163353   0.320361
    24  H   -0.327002   0.502634
    25  H   -0.342215   0.507872
    26  H   -0.066660   0.214547
    27  H    0.039714   0.088216
    28  H    0.133705   0.046084
    29  H    0.090746  -0.004793
    30  H    0.187670   0.000819
    31  H    0.085328   0.086991
    32  H    0.041025   0.111580
    33  H   -0.142026   0.317965
    34  H   -0.561048   0.752808
    35  H   -0.281940   0.444455
    36  H   -0.456479   0.642169
    37  H    0.019413   0.145001
 Sum of Mulliken charges =  -1.00000   1.00000

 Dipole moment (field-independent basis, Debye):
    X=             -2.0461    Y=             -5.9985    Z=             -0.2291  Tot=              6.3420
 Quadrupole moment (field-independent basis, Debye-Ang):
   XX=           -198.6958   YY=           -163.2827   ZZ=           -145.3865
   XY=             -2.5031   XZ=              4.2427   YZ=              0.2345

 Summary of Natural Population Analysis:

                                       Natural Population
                Natural  -----------------------------------------------
    Atom  No    Charge         Core      Valence    Rydberg      Total
 -----------------------------------------------------------------------
      C    1   -0.29126      0.99966     2.28579    0.00582     3.29126
      C    2   -0.00986      0.99958     1.99863    0.01164     3.00986
      O    3   -0.28156      0.99985     3.27177    0.00994     4.28156
      C    4    0.16704      0.99934     1.82059    0.01304     2.83296
      C    5   -0.14082      0.99952     2.13165    0.00964     3.14082
      C    6   -0.09367      0.99957     2.08368    0.01042     3.09367
      C    7   -0.11819      0.99956     2.10899    0.00964     3.11819
      C    8   -0.09004      0.99952     2.08169    0.00882     3.09004
      C    9   -0.03664      0.99947     2.02731    0.00985     3.03664
      C   10   -0.09598      0.99958     2.08586    0.01054     3.09598
      N   11   -0.33172      0.99975     2.82156    0.01040     3.83172
      C   12   -0.09326      0.99959     2.08239    0.01128     3.09326
      C   13   -0.02674      0.99950     2.01715    0.01009     3.02674
      C   14   -0.10160      0.99951     2.09099    0.01110     3.10160
      C   15   -0.09731      0.99956     2.08670    0.01106     3.09731
      C   16   -0.10171      0.99956     2.09167    0.01048     3.10171
      C   17   -0.09962      0.99956     2.08927    0.01079     3.09962
      C   18   -0.10254      0.99951     2.09273    0.01030     3.10254
      H   19    0.10234      0.00000     0.39597    0.00169     0.39766
      H   20    0.10216      0.00000     0.39644    0.00140     0.39784
      H   21    0.10472      0.00000     0.39361    0.00167     0.39528
      H   22    0.08343      0.00000     0.41484    0.00173     0.41657
      H   23    0.08436      0.00000     0.41399    0.00165     0.41564
      H   24    0.10857      0.00000     0.38978    0.00165     0.39143
      H   25    0.10116      0.00000     0.39776    0.00107     0.39884
      H   26    0.09949      0.00000     0.39970    0.00081     0.40051
      H   27    0.09914      0.00000     0.39991    0.00095     0.40086
      H   28    0.09081      0.00000     0.40783    0.00136     0.40919
      H   29    0.09589      0.00000     0.40205    0.00207     0.40411
      H   30    0.17613      0.00000     0.31973    0.00414     0.32387
      H   31    0.09681      0.00000     0.40213    0.00106     0.40319
      H   32    0.09292      0.00000     0.40597    0.00111     0.40708
      H   33    0.09983      0.00000     0.39893    0.00124     0.40017
      H   34    0.10311      0.00000     0.39538    0.00151     0.39689
      H   35    0.10329      0.00000     0.39526    0.00145     0.39671
      H   36    0.10158      0.00000     0.39728    0.00114     0.39842
      H   37    0.09972      0.00000     0.39925    0.00103     0.40028
 =======================================================================
   * Total *    0.00000     17.99220    46.79421    0.21359    65.00000

 Normal termination of Gaussian 16 at Fri Dec 11 22:29:31 2020.
