 Gaussian 16, Revision A.03,

 -----------------------------------------------------------
 # opt freq B3LYP/6-31G(d) empiricaldispersion=gd3bj scf=xqc
 -----------------------------------------------------------

 ------------------------------
 CID_21029739_JID_7498_neutraal
 ------------------------------
 Symbolic Z-matrix:
 Charge =  0 Multiplicity = 1

 SCF Done:  E(RB3LYP) =  -825.587852752     A.U. after   15 cycles
 SCF Done:  E(RB3LYP) =  -825.593235297     A.U. after   12 cycles
 SCF Done:  E(RB3LYP) =  -825.594406802     A.U. after   12 cycles
 SCF Done:  E(RB3LYP) =  -825.595344637     A.U. after   12 cycles
 SCF Done:  E(RB3LYP) =  -825.595797727     A.U. after   12 cycles
 SCF Done:  E(RB3LYP) =  -825.595999298     A.U. after   12 cycles
 SCF Done:  E(RB3LYP) =  -825.596185342     A.U. after   11 cycles
 SCF Done:  E(RB3LYP) =  -825.596312753     A.U. after   12 cycles
 SCF Done:  E(RB3LYP) =  -825.596337958     A.U. after   11 cycles
 SCF Done:  E(RB3LYP) =  -825.596349359     A.U. after   10 cycles
 SCF Done:  E(RB3LYP) =  -825.597310139     A.U. after   10 cycles
 SCF Done:  E(RB3LYP) =  -825.597311514     A.U. after    8 cycles
 SCF Done:  E(RB3LYP) =  -825.597311879     A.U. after    7 cycles
 SCF Done:  E(RB3LYP) =  -825.597311901     A.U. after    7 cycles
 SCF Done:  E(RB3LYP) =  -825.597311909     A.U. after    6 cycles
 Optimization completed.
    -- Stationary point found.
 Normal termination of Gaussian 16 at Fri Dec 11 13:10:20 2020.

 --------------------------------------------------------------------
 #N Geom=AllCheck Guess=TCheck SCRF=Check GenChk RB3LYP/6-31G(d) Freq
 --------------------------------------------------------------------

 Structure from the checkpoint file:  "JID_7498.chk"
 ------------------------------
 CID_21029739_JID_7498_neutraal
 ------------------------------
 Charge =  0 Multiplicity = 1

 SCF Done:  E(RB3LYP) =  -825.597311909     A.U. after    1 cycles

  Exact polarizability: 167.216  -2.879 138.676  10.658   8.450 116.472
 Approx polarizability: 216.224 -15.641 204.083  18.496   5.999 177.725

                      1                      2                      3
                      A                      A                      A
 Frequencies --     19.9099                31.2570                43.5884
 Red. masses --      5.3556                 3.7802                 5.3921
 Frc consts  --      0.0013                 0.0022                 0.0060
 IR Inten    --      0.8690                 0.2055                 2.0410

                      4                      5                      6
                      A                      A                      A
 Frequencies --     57.0955                62.0564               103.0807
 Red. masses --      4.9147                 3.5810                 4.5014
 Frc consts  --      0.0094                 0.0081                 0.0282
 IR Inten    --      1.0194                 0.2513                 5.8016

                      7                      8                      9
                      A                      A                      A
 Frequencies --    120.8755               124.4642               144.1289
 Red. masses --      3.6709                 3.9088                 3.1698
 Frc consts  --      0.0316                 0.0357                 0.0388
 IR Inten    --      0.1857                 2.8214                 2.1054

                     10                     11                     12
                      A                      A                      A
 Frequencies --    152.2610               220.3529               223.6824
 Red. masses --      2.9842                 1.0451                 2.9028
 Frc consts  --      0.0408                 0.0299                 0.0856
 IR Inten    --     12.5544                 0.0264                 0.4308

                     13                     14                     15
                      A                      A                      A
 Frequencies --    243.6486               257.5406               269.4646
 Red. masses --      2.3171                 1.2218                 2.2894
 Frc consts  --      0.0810                 0.0477                 0.0979
 IR Inten    --      2.1769                 0.4965                 4.6612

                     16                     17                     18
                      A                      A                      A
 Frequencies --    294.8851               322.2011               334.9072
 Red. masses --      2.3578                 2.6544                 2.8111
 Frc consts  --      0.1208                 0.1624                 0.1858
 IR Inten    --      0.6180                 1.7032                 6.2029

                     19                     20                     21
                      A                      A                      A
 Frequencies --    349.7517               367.0036               403.2019
 Red. masses --      2.5145                 2.7102                 2.4220
 Frc consts  --      0.1812                 0.2151                 0.2320
 IR Inten    --      0.9883                 4.4958                 3.9727

                     22                     23                     24
                      A                      A                      A
 Frequencies --    427.5966               445.9876               496.1505
 Red. masses --      2.7437                 2.2630                 3.1459
 Frc consts  --      0.2956                 0.2652                 0.4563
 IR Inten    --      0.5408                10.8037                 1.1668

                     25                     26                     27
                      A                      A                      A
 Frequencies --    514.7646               550.3838               601.5652
 Red. masses --      3.2972                 3.0095                 2.1468
 Frc consts  --      0.5148                 0.5371                 0.4577
 IR Inten    --     21.7275                10.7938                21.7350

                     28                     29                     30
                      A                      A                      A
 Frequencies --    638.7677               640.9985               739.0858
 Red. masses --      3.5555                 3.1463                 1.8286
 Frc consts  --      0.8547                 0.7617                 0.5885
 IR Inten    --      9.8325                11.8638                 2.0856

                     31                     32                     33
                      A                      A                      A
 Frequencies --    762.1692               769.3391               795.8198
 Red. masses --      2.5344                 2.0845                 6.8664
 Frc consts  --      0.8674                 0.7269                 2.5622
 IR Inten    --     33.1252                49.2553                 7.3929

                     34                     35                     36
                      A                      A                      A
 Frequencies --    804.5712               823.4795               836.5090
 Red. masses --      2.2345                 2.8762                 2.5012
 Frc consts  --      0.8522                 1.1491                 1.0312
 IR Inten    --      6.3695                54.2982                25.7972

                     37                     38                     39
                      A                      A                      A
 Frequencies --    871.5326               897.5693               936.7716
 Red. masses --      2.9071                 2.4801                 2.4330
 Frc consts  --      1.3010                 1.1772                 1.2579
 IR Inten    --     10.6390                25.1568                32.1261

                     40                     41                     42
                      A                      A                      A
 Frequencies --    937.0848               956.5629               976.9208
 Red. masses --      1.4809                 2.2149                 1.3721
 Frc consts  --      0.7662                 1.1941                 0.7715
 IR Inten    --      2.4855                 3.9534                25.8314

                     43                     44                     45
                      A                      A                      A
 Frequencies --    992.5451               996.4297              1000.5233
 Red. masses --      1.7498                 2.1184                 2.1069
 Frc consts  --      1.0156                 1.2392                 1.2427
 IR Inten    --     26.1687                15.2687                35.5860

                     46                     47                     48
                      A                      A                      A
 Frequencies --   1018.5406              1031.8637              1059.2900
 Red. masses --      1.3127                 1.0884                 1.8656
 Frc consts  --      0.8024                 0.6828                 1.2334
 IR Inten    --      0.7752                26.8498                 2.9659

                     49                     50                     51
                      A                      A                      A
 Frequencies --   1076.1725              1097.6627              1115.0611
 Red. masses --      1.7998                 3.6539                 2.8980
 Frc consts  --      1.2281                 2.5938                 2.1230
 IR Inten    --      8.9023                17.0298               107.3049

                     52                     53                     54
                      A                      A                      A
 Frequencies --   1132.7189              1156.0762              1160.3143
 Red. masses --      2.6429                 2.7751                 3.0745
 Frc consts  --      1.9979                 2.1853                 2.4388
 IR Inten    --     33.4637                39.5688                31.4672

                     55                     56                     57
                      A                      A                      A
 Frequencies --   1173.5383              1187.6875              1248.2481
 Red. masses --      3.8011                 1.8104                 1.8931
 Frc consts  --      3.0842                 1.5047                 1.7379
 IR Inten    --    120.4503                34.2267                33.1404

                     58                     59                     60
                      A                      A                      A
 Frequencies --   1255.0829              1261.3414              1277.0347
 Red. masses --      1.5703                 1.3544                 1.2670
 Frc consts  --      1.4574                 1.2696                 1.2173
 IR Inten    --     41.8604                30.2454                 2.9872

                     61                     62                     63
                      A                      A                      A
 Frequencies --   1285.3612              1318.5760              1320.5151
 Red. masses --      2.7925                 1.5893                 1.3020
 Frc consts  --      2.7183                 1.6280                 1.3377
 IR Inten    --    102.4131                 2.8824                 0.9443

                     64                     65                     66
                      A                      A                      A
 Frequencies --   1327.0541              1327.7989              1365.3000
 Red. masses --      1.1402                 1.2320                 1.9845
 Frc consts  --      1.1831                 1.2797                 2.1795
 IR Inten    --      8.6856                15.6570               113.5840

                     67                     68                     69
                      A                      A                      A
 Frequencies --   1382.6322              1397.5120              1403.8288
 Red. masses --      1.2871                 1.3845                 1.3296
 Frc consts  --      1.4497                 1.5932                 1.5439
 IR Inten    --     11.3899                 1.1677                 3.8105

                     70                     71                     72
                      A                      A                      A
 Frequencies --   1422.3542              1430.8223              1441.4523
 Red. masses --      1.4062                 1.3363                 1.3652
 Frc consts  --      1.6761                 1.6118                 1.6713
 IR Inten    --     13.0535                23.3320                37.2243

                     73                     74                     75
                      A                      A                      A
 Frequencies --   1446.3534              1460.9822              1472.0347
 Red. masses --      1.2727                 1.3375                 1.3849
 Frc consts  --      1.5687                 1.6821                 1.7680
 IR Inten    --      9.2437                 1.1747                55.1537

                     76                     77                     78
                      A                      A                      A
 Frequencies --   1481.3047              1507.7666              1508.0888
 Red. masses --      1.3676                 1.0502                 1.0708
 Frc consts  --      1.7681                 1.4066                 1.4349
 IR Inten    --      9.6135                 0.4071                 1.4910

                     79                     80                     81
                      A                      A                      A
 Frequencies --   1508.7109              1513.5865              1527.4243
 Red. masses --      1.0721                 1.0787                 1.0684
 Frc consts  --      1.4378                 1.4560                 1.4685
 IR Inten    --      3.6823                 4.1533                 1.4763

                     82                     83                     84
                      A                      A                      A
 Frequencies --   1531.6631              1533.3845              1544.6392
 Red. masses --      1.1467                 1.0537                 1.0919
 Frc consts  --      1.5850                 1.4598                 1.5349
 IR Inten    --     19.5684                 6.3695                 0.7876

                     85                     86                     87
                      A                      A                      A
 Frequencies --   1549.4608              1702.5258              1758.3390
 Red. masses --      1.0890                 4.7170                 6.8934
 Frc consts  --      1.5404                 8.0556                12.5571
 IR Inten    --     17.1116                55.4365               243.3993

                     88                     89                     90
                      A                      A                      A
 Frequencies --   3010.8711              3021.1399              3047.8633
 Red. masses --      1.0637                 1.0702                 1.0605
 Frc consts  --      5.6816                 5.7554                 5.8042
 IR Inten    --     20.8733                59.2275                15.5072

                     91                     92                     93
                      A                      A                      A
 Frequencies --   3061.9559              3063.0798              3068.8903
 Red. masses --      1.0587                 1.0375                 1.0363
 Frc consts  --      5.8484                 5.7355                 5.7507
 IR Inten    --     34.4188                 6.7364                16.1121

                     94                     95                     96
                      A                      A                      A
 Frequencies --   3072.7577              3084.9849              3087.8804
 Red. masses --      1.0896                 1.1020                 1.0968
 Frc consts  --      6.0612                 6.1794                 6.1617
 IR Inten    --     12.6407                12.1978                57.9029

                     97                     98                     99
                      A                      A                      A
 Frequencies --   3105.6540              3110.9219              3118.2726
 Red. masses --      1.0710                 1.0929                 1.0957
 Frc consts  --      6.0859                 6.2316                 6.2774
 IR Inten    --     23.3141                57.4255                33.2137

                    100                    101                    102
                      A                      A                      A
 Frequencies --   3134.5564              3138.9927              3143.9701
 Red. masses --      1.1029                 1.1031                 1.1030
 Frc consts  --      6.3846                 6.4038                 6.4238
 IR Inten    --      1.9261                24.9025                34.0225

                    103                    104                    105
                      A                      A                      A
 Frequencies --   3149.0427              3157.8956              3170.8555
 Red. masses --      1.1067                 1.1035                 1.0584
 Frc consts  --      6.4662                 6.4837                 6.2700
 IR Inten    --     21.5959                 7.6127                 7.7341

                    106                    107                    108
                      A                      A                      A
 Frequencies --   3198.5278              3253.4061              3574.9199
 Red. masses --      1.0930                 1.1162                 1.0745
 Frc consts  --      6.5883                 6.9613                 8.0905
 IR Inten    --      2.1514                10.8957                16.7111

 - Thermochemistry -
 -------------------
 Temperature   298.150 Kelvin.  Pressure   1.00000 Atm.
 Atom     1 has atomic number  6 and mass  12.00000

 Molecular mass:   243.14706 amu.
 Principal axes and moments of inertia in atomic units:
                           1         2         3
     Eigenvalues --  2209.943366835.325867764.90590
           X            0.99995  -0.00949   0.00300
           Y            0.00935   0.99904   0.04286
           Z           -0.00341  -0.04283   0.99908
 This molecule is an asymmetric top.
 Rotational symmetry number  1.
 Warning -- assumption of classical behavior for rotation
           may cause significant error
 Rotational temperatures (Kelvin)      0.03919     0.01267     0.01115
 Rotational constants (GHZ):           0.81665     0.26403     0.23242
 Zero-point vibrational energy     867621.7 (Joules/Mol)
                                  207.36657 (Kcal/Mol)
 Warning -- explicit consideration of  27 degrees of freedom as
           vibrations may cause significant error
 Vibrational temperatures:     28.65    44.97    62.71    82.15    89.29
          (Kelvin)            148.31   173.91   179.08   207.37   219.07
                              317.04   321.83   350.56   370.54   387.70
                              424.27   463.58   481.86   503.21   528.04
                              580.12   615.22   641.68   713.85   740.63
                              791.88   865.52   919.04   922.25  1063.38
                             1096.59  1106.91  1145.01  1157.60  1184.80
                             1203.55  1253.94  1291.40  1347.81  1348.26
                             1376.28  1405.57  1428.05  1433.64  1439.53
                             1465.45  1484.62  1524.08  1548.37  1579.29
                             1604.32  1629.73  1663.34  1669.43  1688.46
                             1708.82  1795.95  1805.78  1814.79  1837.37
                             1849.35  1897.14  1899.93  1909.33  1910.41
                             1964.36  1989.30  2010.71  2019.80  2046.45
                             2058.63  2073.93  2080.98  2102.03  2117.93
                             2131.27  2169.34  2169.80  2170.70  2177.71
                             2197.62  2203.72  2206.20  2222.39  2229.33
                             2449.55  2529.86  4331.97  4346.75  4385.20
                             4405.47  4407.09  4415.45  4421.01  4438.61
                             4442.77  4468.34  4475.92  4486.50  4509.93
                             4516.31  4523.47  4530.77  4543.51  4562.15
                             4601.97  4680.93  5143.51

 Zero-point correction=                           0.330460 (Hartree/Particle)
 Thermal correction to Energy=                    0.348733
 Thermal correction to Enthalpy=                  0.349677
 Thermal correction to Gibbs Free Energy=         0.282468
 Sum of electronic and zero-point Energies=           -825.266852
 Sum of electronic and thermal Energies=              -825.248579
 Sum of electronic and thermal Enthalpies=            -825.247635
 Sum of electronic and thermal Free Energies=         -825.314844

                     E (Thermal)             CV                S
                      KCal/Mol        Cal/Mol-Kelvin    Cal/Mol-Kelvin
 Total                  218.833             67.917            141.453
 Electronic               0.000              0.000              0.000
 Translational            0.889              2.981             42.366
 Rotational               0.889              2.981             33.128
 Vibrational            217.056             61.955             65.959
 Vibration     1          0.593              1.986              6.643
 Vibration     2          0.594              1.983              5.748
 Vibration     3          0.595              1.980              5.089
 Vibration     4          0.596              1.975              4.555
 Vibration     5          0.597              1.972              4.391
 Vibration     6          0.605              1.947              3.395
 Vibration     7          0.609              1.932              3.086
 Vibration     8          0.610              1.929              3.030
 Vibration     9          0.616              1.909              2.748
 Vibration    10          0.619              1.900              2.644
 Vibration    11          0.647              1.810              1.956
 Vibration    12          0.649              1.805              1.929
 Vibration    13          0.659              1.773              1.776
 Vibration    14          0.667              1.750              1.678
 Vibration    15          0.674              1.729              1.600
 Vibration    16          0.689              1.683              1.446
 Vibration    17          0.707              1.631              1.299
 Vibration    18          0.716              1.606              1.236
 Vibration    19          0.727              1.576              1.167
 Vibration    20          0.740              1.540              1.092
 Vibration    21          0.769              1.463              0.951
 Vibration    22          0.789              1.410              0.867
 Vibration    23          0.805              1.370              0.808
 Vibration    24          0.852              1.259              0.668
 Vibration    25          0.870              1.217              0.622
 Vibration    26          0.906              1.139              0.543
 Vibration    27          0.960              1.028              0.447

 Optimization completed.
    -- Stationary point found.
 Normal termination of Gaussian 16 at Fri Dec 11 13:25:30 2020.

 ----------------------------------------------------------------------
 # B3LYP/6-311++G(d,p) empiricaldispersion=gd3bj scf=xqc pop=npa geom=c
 heck
 ----------------------------------------------------------------------

 --------------------------------------
 CID_21029739_JID_7498_Energie_neutraal
 --------------------------------------
 Structure from the checkpoint file:  "JID_7498.chk"
 Charge =  0 Multiplicity = 1

 SCF Done:  E(RB3LYP) =  -825.840192027     A.U. after   15 cycles
 Normal termination of Gaussian 16 at Fri Dec 11 13:32:58 2020.

 ----------------------------------------------------------------------
 # B3LYP/6-311++G(d,p) empiricaldispersion=gd3bj scf=xqc pop=npa geom=c
 heck
 ----------------------------------------------------------------------

 ------------------------------------
 CID_21029739_JID_7498_Energie_kation
 ------------------------------------
 Structure from the checkpoint file:  "JID_7498.chk"
 Charge =  1 Multiplicity = 2

 SCF Done:  E(UB3LYP) =  -825.531593281     A.U. after   27 cycles
 Normal termination of Gaussian 16 at Fri Dec 11 13:51:42 2020.
 Gaussian 16:  ES64L-G16RevA.03 25-Dec-2016

 ----------------------------------------------------------------------
 # B3LYP/6-311++G(d,p) empiricaldispersion=gd3bj scf=xqc pop=npa geom=c
 heck
 ----------------------------------------------------------------------

 -----------------------------------
 CID_21029739_JID_7498_Energie_anion
 -----------------------------------
 Structure from the checkpoint file:  "JID_7498.chk"
 Charge = -1 Multiplicity = 2

                         Standard orientation:
 ---------------------------------------------------------------------
 Center     Atomic      Atomic             Coordinates (Angstroms)
 Number     Number       Type             X           Y           Z
 ---------------------------------------------------------------------
      1          6           0       -3.992484    1.243288    1.131142
      2          6           0       -2.739170    0.919779    0.320441
      3          8           0       -3.072234    0.635847   -1.037197
      4          6           0       -3.243064   -0.769879   -1.136633
      5          6           0       -2.196937   -1.307776   -0.153363
      6          8           0       -2.166315   -0.293070    0.852006
      7          6           0       -0.829410   -1.495076   -0.810971
      8          8           0        0.164657   -2.027280    0.046058
      9          6           0        0.634675   -1.135012    1.059498
     10          6           0        2.112628   -1.410960    1.313707
     11          6           0        2.948773   -1.419202    0.021784
     12          7           0        2.570996   -0.373716   -0.939596
     13          6           0        2.479300    0.970013   -0.656785
     14          8           0        1.610620    1.676006   -1.167376
     15          6           0        3.499701    1.580190    0.245282
     16          6           0        4.797266    1.266881    0.246906
     17          6           0       -1.712816    2.042407    0.336500
     18          1           0       -4.456966    2.162554    0.761645
     19          1           0       -4.715910    0.425985    1.054267
     20          1           0       -3.735005    1.374935    2.186456
     21          1           0       -3.070336   -1.058780   -2.177056
     22          1           0       -4.257693   -1.077635   -0.844733
     23          1           0       -2.501672   -2.245913    0.323715
     24          1           0       -0.927887   -2.221038   -1.627333
     25          1           0       -0.506803   -0.532271   -1.237441
     26          1           0        0.493856   -0.099686    0.733713
     27          1           0        0.050256   -1.259016    1.978822
     28          1           0        2.485839   -0.637702    1.997439
     29          1           0        2.243094   -2.376571    1.817674
     30          1           0        4.011151   -1.344053    0.261910
     31          1           0        2.800615   -2.365534   -0.501731
     32          1           0        1.801056   -0.649408   -1.539666
     33          1           0        3.123103    2.412378    0.834312
     34          1           0        5.511066    1.810643    0.859316
     35          1           0        5.196420    0.480705   -0.387297
     36          1           0       -0.837939    1.780195   -0.263580
     37          1           0       -2.153263    2.957571   -0.071351
     38          1           0       -1.394550    2.238715    1.365116
 ---------------------------------------------------------------------

 SCF Done:  E(UB3LYP) =  -825.835073371     A.U. after   33 cycles
 SCF Done:  E(UB3LYP) =  -825.835073370     a.u. after    1 cycles

 The electronic state is 2-A.
 Alpha  occ. eigenvalues --  -19.03811 -19.03153 -19.02708 -18.95405 -14.20575
 Alpha  occ. eigenvalues --  -10.18170 -10.13069 -10.12991 -10.12925 -10.12048
 Alpha  occ. eigenvalues --  -10.10848 -10.09599 -10.06832 -10.06610 -10.05855
 Alpha  occ. eigenvalues --  -10.04077 -10.03831  -0.99819  -0.93804  -0.90512
 Alpha  occ. eigenvalues --   -0.90199  -0.79699  -0.71607  -0.67626  -0.64940
 Alpha  occ. eigenvalues --   -0.63707  -0.60619  -0.59219  -0.56430  -0.52301
 Alpha  occ. eigenvalues --   -0.50669  -0.48400  -0.48284  -0.43559  -0.42146
 Alpha  occ. eigenvalues --   -0.41000  -0.39095  -0.38042  -0.37516  -0.36964
 Alpha  occ. eigenvalues --   -0.35628  -0.35068  -0.34282  -0.33301  -0.32443
 Alpha  occ. eigenvalues --   -0.32165  -0.30937  -0.29747  -0.29289  -0.28706
 Alpha  occ. eigenvalues --   -0.28569  -0.27857  -0.26715  -0.26449  -0.25753
 Alpha  occ. eigenvalues --   -0.25462  -0.24677  -0.24451  -0.23274  -0.21901
 Alpha  occ. eigenvalues --   -0.19211  -0.16933  -0.15707  -0.15286  -0.14204
 Alpha  occ. eigenvalues --   -0.12489   0.04454
 Alpha virt. eigenvalues --    0.05664   0.07328   0.07710   0.08463   0.08863
 Alpha virt. eigenvalues --    0.09149   0.09758   0.10327   0.10846   0.10999
 Alpha virt. eigenvalues --    0.11542   0.12228   0.12639   0.13000   0.13238

  Beta  occ. eigenvalues --  -19.03810 -19.03153 -19.02706 -18.95198 -14.20562
  Beta  occ. eigenvalues --  -10.18169 -10.13059 -10.12898 -10.12815 -10.12042
  Beta  occ. eigenvalues --  -10.10846 -10.09584 -10.06810 -10.06609 -10.05849
  Beta  occ. eigenvalues --  -10.03949 -10.03575  -0.99814  -0.93798  -0.90215
  Beta  occ. eigenvalues --   -0.90123  -0.79567  -0.71588  -0.67593  -0.64453
  Beta  occ. eigenvalues --   -0.63663  -0.60587  -0.59178  -0.56377  -0.52229
  Beta  occ. eigenvalues --   -0.50225  -0.48337  -0.48131  -0.43337  -0.42110
  Beta  occ. eigenvalues --   -0.40980  -0.39062  -0.37987  -0.37452  -0.36926
  Beta  occ. eigenvalues --   -0.35579  -0.34930  -0.34171  -0.33093  -0.32402
  Beta  occ. eigenvalues --   -0.32063  -0.30898  -0.29703  -0.29270  -0.28571
  Beta  occ. eigenvalues --   -0.28365  -0.27691  -0.26662  -0.26156  -0.25568
  Beta  occ. eigenvalues --   -0.25328  -0.24613  -0.24406  -0.23120  -0.21808
  Beta  occ. eigenvalues --   -0.19200  -0.16920  -0.15311  -0.14420  -0.13752
  Beta  occ. eigenvalues --   -0.12006
  Beta virt. eigenvalues --    0.06626   0.07570   0.07684   0.08676   0.08753
  Beta virt. eigenvalues --    0.09181   0.09193   0.09925   0.10402   0.10872
  Beta virt. eigenvalues --    0.11151   0.11646   0.12165   0.12795   0.13107

 Mulliken charges and spin densities:
               1          2
     1  C    0.892780  -1.130198
     2  C   -1.503682   0.511259
     3  O    0.013147   0.021653
     4  C    1.160003  -1.574712
     5  C   -0.089602   0.905513
     6  O    0.022467  -0.012473
     7  C   -0.174969  -0.635684
     8  O   -0.042317   0.002125
     9  C   -0.351944   0.070668
    10  C   -0.417160  -0.098344
    11  C   -0.119877  -0.161320
    12  N   -0.090273   0.001926
    13  C   -0.362072   0.080257
    14  O   -0.333498   0.068031
    15  C    0.270836   0.037152
    16  C   -0.605597   0.299611
    17  C   -0.481643   0.276230
    18  H    0.054990   0.094910
    19  H   -0.219934   0.359916
    20  H    0.039334   0.118160
    21  H    0.017903   0.130730
    22  H   -0.512315   0.681404
    23  H   -0.279165   0.510802
    24  H   -0.067751   0.203557
    25  H    0.270859  -0.018455
    26  H    0.282049  -0.109893
    27  H    0.134090   0.062338
    28  H    0.113359   0.050809
    29  H    0.099384   0.060686
    30  H    0.009976   0.116867
    31  H    0.179158  -0.022932
    32  H    0.302447  -0.006916
    33  H    0.132333   0.031220
    34  H    0.040752   0.051791
    35  H    0.127800  -0.033938
    36  H    0.246903   0.011929
    37  H    0.106552   0.038968
    38  H    0.134673   0.006351
 Sum of Mulliken charges =  -1.00000   1.00000

 Dipole moment (field-independent basis, Debye):
    X=              0.2324    Y=             -1.2670    Z=              1.0969  Tot=              1.6919
 Quadrupole moment (field-independent basis, Debye-Ang):
   XX=           -191.5533   YY=           -136.4768   ZZ=           -126.5883
   XY=            -17.2805   XZ=             -0.3473   YZ=              7.3753

 Summary of Natural Population Analysis:

                                       Natural Population
                Natural  -----------------------------------------------
    Atom  No    Charge         Core      Valence    Rydberg      Total
 -----------------------------------------------------------------------
      C    1   -0.30302      0.99959     2.29658    0.00685     3.30302
      C    2    0.29372      0.99958     1.68668    0.02002     2.70628
      O    3   -0.30610      0.99987     3.29762    0.00862     4.30610
      C    4   -0.02322      0.99956     2.01037    0.01328     3.02322
      C    5    0.03802      0.99955     1.94674    0.01569     2.96198
      O    6   -0.31565      0.99987     3.30663    0.00914     4.31565
      C    7   -0.02185      0.99954     2.00862    0.01368     3.02185
      O    8   -0.30759      0.99988     3.29872    0.00899     4.30759
      C    9   -0.01677      0.99957     2.00543    0.01177     3.01677
      C   10   -0.20792      0.99962     2.20042    0.00787     3.20792
      C   11   -0.08808      0.99962     2.07555    0.01291     3.08808
      N   12   -0.32960      0.99968     2.82004    0.00987     3.82960
      C   13    0.34595      0.99964     1.63163    0.02278     2.65405
      O   14   -0.31058      0.99988     3.30509    0.00561     4.31058
      C   15   -0.12602      0.99953     2.11372    0.01276     3.12602
      C   16   -0.13308      0.99959     2.12540    0.00809     3.13308
      C   17   -0.30349      0.99958     2.29760    0.00631     3.30349
      H   18    0.10035      0.00000     0.39883    0.00082     0.39965
      H   19    0.10452      0.00000     0.39422    0.00126     0.39548
      H   20    0.10263      0.00000     0.39651    0.00086     0.39737
      H   21    0.09389      0.00000     0.40492    0.00119     0.40611
      H   22    0.08679      0.00000     0.41097    0.00224     0.41321
      H   23    0.09481      0.00000     0.40349    0.00170     0.40519
      H   24    0.08872      0.00000     0.41006    0.00122     0.41128
      H   25    0.09008      0.00000     0.40814    0.00178     0.40992
      H   26    0.09281      0.00000     0.40518    0.00201     0.40719
      H   27    0.08666      0.00000     0.41226    0.00107     0.41334
      H   28    0.10472      0.00000     0.39430    0.00098     0.39528
      H   29    0.09555      0.00000     0.40336    0.00109     0.40445
      H   30    0.09989      0.00000     0.39897    0.00114     0.40011
      H   31    0.09508      0.00000     0.40394    0.00098     0.40492
      H   32    0.18734      0.00000     0.31071    0.00195     0.31266
      H   33    0.09574      0.00000     0.40318    0.00108     0.40426
      H   34    0.08539      0.00000     0.41358    0.00103     0.41461
      H   35    0.08579      0.00000     0.41325    0.00096     0.41421
      H   36    0.12258      0.00000     0.37629    0.00113     0.37742
      H   37    0.10108      0.00000     0.39821    0.00071     0.39892
      H   38    0.10087      0.00000     0.39842    0.00071     0.39913
 =======================================================================
   * Total *   -0.00000     16.99416    48.78569    0.22015    66.00000

 Normal termination of Gaussian 16 at Fri Dec 11 14:15:19 2020.
