 Gaussian 16, Revision A.03,

 -----------------------------------------------------------
 # opt freq B3LYP/6-31G(d) empiricaldispersion=gd3bj scf=xqc
 -----------------------------------------------------------

 ------------------------------
 CID_79659133_JID_6942_neutraal
 ------------------------------
 Symbolic Z-matrix:
 Charge =  0 Multiplicity = 1

 SCF Done:  E(RB3LYP) =  -690.990162317     A.U. after   15 cycles
 SCF Done:  E(RB3LYP) =  -690.994898260     A.U. after   13 cycles
 SCF Done:  E(RB3LYP) =  -690.994844418     A.U. after   12 cycles
 SCF Done:  E(RB3LYP) =  -690.994635206     A.U. after   12 cycles
 SCF Done:  E(RB3LYP) =  -690.993759391     A.U. after   12 cycles
 SCF Done:  E(RB3LYP) =  -690.995349592     A.U. after   10 cycles
 SCF Done:  E(RB3LYP) =  -690.996529556     A.U. after   12 cycles
 SCF Done:  E(RB3LYP) =  -690.996542794     A.U. after   12 cycles
 SCF Done:  E(RB3LYP) =  -690.996553361     A.U. after   13 cycles
 SCF Done:  E(RB3LYP) =  -690.996694781     A.U. after   12 cycles
 SCF Done:  E(RB3LYP) =  -690.996704704     A.U. after   10 cycles
 SCF Done:  E(RB3LYP) =  -690.996705207     A.U. after    8 cycles
 SCF Done:  E(RB3LYP) =  -690.996705242     A.U. after    8 cycles
 SCF Done:  E(RB3LYP) =  -690.996705253     A.U. after    7 cycles
 Optimization completed.
    -- Stationary point found.
 Normal termination of Gaussian 16 at Fri Dec 11 00:18:07 2020.

 --------------------------------------------------------------------
 #N Geom=AllCheck Guess=TCheck SCRF=Check GenChk RB3LYP/6-31G(d) Freq
 --------------------------------------------------------------------

 Structure from the checkpoint file:  "JID_6942.chk"
 ------------------------------
 CID_79659133_JID_6942_neutraal
 ------------------------------
 Charge =  0 Multiplicity = 1

 SCF Done:  E(RB3LYP) =  -690.996705253     A.U. after    1 cycles

  Exact polarizability: 185.301 -11.507 115.405   1.209 -11.758 143.976
 Approx polarizability: 250.045 -24.969 164.149   3.664 -35.700 252.829

                      1                      2                      3
                      A                      A                      A
 Frequencies --     31.3432                57.2583                83.6497
 Red. masses --      4.6695                 3.8216                 3.0398
 Frc consts  --      0.0027                 0.0074                 0.0125
 IR Inten    --      0.8378                 0.0800                 0.5084

                      4                      5                      6
                      A                      A                      A
 Frequencies --    113.7233               123.4361               169.7744
 Red. masses --      3.1719                 5.0634                 3.5511
 Frc consts  --      0.0242                 0.0455                 0.0603
 IR Inten    --      3.1175                 0.7552                 0.3856

                      7                      8                      9
                      A                      A                      A
 Frequencies --    194.0843               232.0620               241.2843
 Red. masses --      3.9181                 1.4374                 2.3284
 Frc consts  --      0.0870                 0.0456                 0.0799
 IR Inten    --      0.2719                 0.1948                 0.3683

                     10                     11                     12
                      A                      A                      A
 Frequencies --    251.2409               263.9052               321.3743
 Red. masses --      1.6445                 1.4263                 2.3513
 Frc consts  --      0.0612                 0.0585                 0.1431
 IR Inten    --      0.3150                 0.3233                 2.2549

                     13                     14                     15
                      A                      A                      A
 Frequencies --    333.4840               370.5984               401.0010
 Red. masses --      2.6197                 2.7694                 2.9718
 Frc consts  --      0.1717                 0.2241                 0.2816
 IR Inten    --      1.4332                 9.7748                 0.6810

                     16                     17                     18
                      A                      A                      A
 Frequencies --    412.8594               418.1900               429.5410
 Red. masses --      4.0060                 3.1348                 3.6556
 Frc consts  --      0.4023                 0.3230                 0.3974
 IR Inten    --      1.4974                 0.4056                 0.3431

                     19                     20                     21
                      A                      A                      A
 Frequencies --    453.3422               488.9873               562.9620
 Red. masses --      3.5931                 2.9522                 3.8917
 Frc consts  --      0.4351                 0.4159                 0.7267
 IR Inten    --      0.4546                 2.4545                 5.2365

                     22                     23                     24
                      A                      A                      A
 Frequencies --    605.4569               634.9679               665.4742
 Red. masses --      2.8700                 6.3559                 4.8610
 Frc consts  --      0.6199                 1.5098                 1.2683
 IR Inten    --      4.4949                 0.1654                34.5715

                     25                     26                     27
                      A                      A                      A
 Frequencies --    698.6545               721.0721               763.6141
 Red. masses --      4.1833                 1.6143                 4.1294
 Frc consts  --      1.2031                 0.4945                 1.4187
 IR Inten    --      0.9197                46.2190                23.9429

                     28                     29                     30
                      A                      A                      A
 Frequencies --    804.2910               831.2107               862.4125
 Red. masses --      2.3021                 3.0502                 2.4736
 Frc consts  --      0.8774                 1.2416                 1.0840
 IR Inten    --     12.6070                 1.0241                18.4022

                     31                     32                     33
                      A                      A                      A
 Frequencies --    876.8614               916.8424               968.9880
 Red. masses --      1.2505                 1.8864                 1.3914
 Frc consts  --      0.5665                 0.9343                 0.7697
 IR Inten    --      0.1078                11.3186                 2.1555

                     34                     35                     36
                      A                      A                      A
 Frequencies --    993.5455              1000.3858              1014.8180
 Red. masses --      2.4034                 1.3585                 1.3768
 Frc consts  --      1.3978                 0.8010                 0.8354
 IR Inten    --      0.6919                 0.3352                 1.1453

                     37                     38                     39
                      A                      A                      A
 Frequencies --   1024.8496              1049.3464              1056.8952
 Red. masses --      4.4877                 2.9596                 2.7246
 Frc consts  --      2.7771                 1.9201                 1.7931
 IR Inten    --      0.8858                 1.8970                14.5627

                     40                     41                     42
                      A                      A                      A
 Frequencies --   1072.2283              1076.6848              1091.7178
 Red. masses --      2.0762                 2.0199                 2.0105
 Frc consts  --      1.4064                 1.3796                 1.4118
 IR Inten    --      8.3582                 7.4490                21.3181

                     43                     44                     45
                      A                      A                      A
 Frequencies --   1104.4852              1115.1406              1116.6233
 Red. masses --      1.8158                 1.5940                 2.0465
 Frc consts  --      1.3051                 1.1679                 1.5034
 IR Inten    --      8.6347                 5.9148                25.5162

                     46                     47                     48
                      A                      A                      A
 Frequencies --   1159.0834              1175.2293              1184.9622
 Red. masses --      1.3570                 2.2735                 2.0771
 Frc consts  --      1.0741                 1.8500                 1.7184
 IR Inten    --     28.5505                 9.8037                26.1525

                     49                     50                     51
                      A                      A                      A
 Frequencies --   1194.7014              1206.8538              1214.1390
 Red. masses --      1.1035                 2.2137                 1.2066
 Frc consts  --      0.9280                 1.8996                 1.0480
 IR Inten    --      0.4603                39.7488                32.0275

                     52                     53                     54
                      A                      A                      A
 Frequencies --   1223.7964              1268.5078              1284.8288
 Red. masses --      1.4479                 1.6578                 2.2613
 Frc consts  --      1.2776                 1.5717                 2.1994
 IR Inten    --      9.2871                92.5794                18.4611

                     55                     56                     57
                      A                      A                      A
 Frequencies --   1309.4361              1316.3261              1344.6639
 Red. masses --      2.7182                 1.8486                 1.4333
 Frc consts  --      2.7460                 1.8872                 1.5269
 IR Inten    --     95.2710                13.2370                35.7278

                     58                     59                     60
                      A                      A                      A
 Frequencies --   1348.1796              1353.8320              1371.6959
 Red. masses --      1.4138                 1.7940                 3.0472
 Frc consts  --      1.5140                 1.9373                 3.3781
 IR Inten    --     12.4761                 1.7435                 3.5569

                     61                     62                     63
                      A                      A                      A
 Frequencies --   1391.8023              1407.5697              1424.6476
 Red. masses --      1.3324                 1.2902                 1.4075
 Frc consts  --      1.5206                 1.5060                 1.6832
 IR Inten    --      7.0122                14.6259                24.5235

                     64                     65                     66
                      A                      A                      A
 Frequencies --   1439.9678              1483.7866              1487.7711
 Red. masses --      1.5166                 1.1968                 1.1874
 Frc consts  --      1.8528                 1.5525                 1.5486
 IR Inten    --      3.6031                 0.7879                 1.8597

                     67                     68                     69
                      A                      A                      A
 Frequencies --   1496.8827              1514.5730              1515.8561
 Red. masses --      2.2736                 1.0763                 1.0574
 Frc consts  --      3.0015                 1.4547                 1.4316
 IR Inten    --     12.2265                 7.9752                13.6022

                     70                     71                     72
                      A                      A                      A
 Frequencies --   1519.7595              1525.5287              1533.1510
 Red. masses --      1.0663                 1.0828                 1.0841
 Frc consts  --      1.4510                 1.4847                 1.5014
 IR Inten    --      8.0591                 7.8667                 2.4838

                     73                     74                     75
                      A                      A                      A
 Frequencies --   1535.6702              1538.1921              1539.0936
 Red. masses --      1.0616                 1.5773                 1.3141
 Frc consts  --      1.4750                 2.1989                 1.8340
 IR Inten    --      3.7199                 0.2358                 5.6161

                     76                     77                     78
                      A                      A                      A
 Frequencies --   1636.7793              1659.6975              1762.5576
 Red. masses --      5.4760                 5.4885                11.4894
 Frc consts  --      8.6436                 8.9077                21.0298
 IR Inten    --      9.4809                23.3079               148.3162

                     79                     80                     81
                      A                      A                      A
 Frequencies --   2921.6342              2938.8361              2948.2440
 Red. masses --      1.0723                 1.0641                 1.0704
 Frc consts  --      5.3931                 5.4148                 5.4816
 IR Inten    --     32.0581                50.5778                12.2264

                     82                     83                     84
                      A                      A                      A
 Frequencies --   2950.8390              2965.4763              2977.7341
 Red. masses --      1.0699                 1.0611                 1.0799
 Frc consts  --      5.4889                 5.4978                 5.6417
 IR Inten    --    131.0612                63.5222                99.5489

                     85                     86                     87
                      A                      A                      A
 Frequencies --   3078.3298              3080.1419              3083.7359
 Red. masses --      1.0757                 1.0871                 1.0858
 Frc consts  --      6.0060                 6.0766                 6.0836
 IR Inten    --     11.5400                40.1623                63.0363

                     88                     89                     90
                      A                      A                      A
 Frequencies --   3090.7544              3091.6518              3123.6198
 Red. masses --      1.0783                 1.0851                 1.1042
 Frc consts  --      6.0693                 6.1109                 6.3478
 IR Inten    --     55.6652                 1.2481                28.9559

                     91                     92                     93
                      A                      A                      A
 Frequencies --   3133.7235              3184.4234              3196.3044
 Red. masses --      1.1034                 1.0857                 1.0902
 Frc consts  --      6.3843                 6.4865                 6.5621
 IR Inten    --     28.9444                 0.6174                20.6979

                     94                     95                     96
                      A                      A                      A
 Frequencies --   3207.8316              3228.7454              3235.1443
 Red. masses --      1.0954                 1.0925                 1.0925
 Frc consts  --      6.6414                 6.7100                 6.7369
 IR Inten    --     26.1929                 6.7416                12.6814

 - Thermochemistry -
 -------------------
 Temperature   298.150 Kelvin.  Pressure   1.00000 Atm.
 Atom     1 has atomic number  6 and mass  12.00000

 Molecular mass:   218.14191 amu.
 Principal axes and moments of inertia in atomic units:
                           1         2         3
     Eigenvalues --  2011.961135509.710415613.99657
           X            0.99998   0.00688  -0.00011
           Y           -0.00667   0.97361   0.22812
           Z            0.00168  -0.22811   0.97363
 This molecule is an asymmetric top.
 Rotational symmetry number  1.
 Warning -- assumption of classical behavior for rotation
           may cause significant error
 Rotational temperatures (Kelvin)      0.04305     0.01572     0.01543
 Rotational constants (GHZ):           0.89701     0.32756     0.32147
 Zero-point vibrational energy     776540.1 (Joules/Mol)
                                  185.59753 (Kcal/Mol)
 Warning -- explicit consideration of  22 degrees of freedom as
           vibrations may cause significant error
 Vibrational temperatures:     45.10    82.38   120.35   163.62   177.60
          (Kelvin)            244.27   279.24   333.89   347.15   361.48
                              379.70   462.39   479.81   533.21   576.95
                              594.01   601.68   618.01   652.26   703.54
                              809.98   871.12   913.58   957.47  1005.21
                             1037.46  1098.67  1157.20  1195.93  1240.82
                             1261.61  1319.13  1394.16  1429.49  1439.33
                             1460.10  1474.53  1509.78  1520.64  1542.70
                             1549.11  1570.74  1589.11  1604.44  1606.57
                             1667.66  1690.89  1704.90  1718.91  1736.39
                             1746.88  1760.77  1825.10  1848.58  1883.99
                             1893.90  1934.67  1939.73  1947.86  1973.56
                             2002.49  2025.18  2049.75  2071.79  2134.84
                             2140.57  2153.68  2179.13  2180.98  2186.60
                             2194.90  2205.86  2209.49  2213.12  2214.41
                             2354.96  2387.93  2535.93  4203.58  4228.33
                             4241.87  4245.60  4266.66  4284.30  4429.03
                             4431.64  4436.81  4446.91  4448.20  4494.19
                             4508.73  4581.68  4598.77  4615.35  4645.44
                             4654.65

 Zero-point correction=                           0.295768 (Hartree/Particle)
 Thermal correction to Energy=                    0.310307
 Thermal correction to Enthalpy=                  0.311251
 Thermal correction to Gibbs Free Energy=         0.254083
 Sum of electronic and zero-point Energies=           -690.700937
 Sum of electronic and thermal Energies=              -690.686398
 Sum of electronic and thermal Enthalpies=            -690.685454
 Sum of electronic and thermal Free Energies=         -690.742622

                     E (Thermal)             CV                S
                      KCal/Mol        Cal/Mol-Kelvin    Cal/Mol-Kelvin
 Total                  194.721             56.915            120.321
 Electronic               0.000              0.000              0.000
 Translational            0.889              2.981             42.043
 Rotational               0.889              2.981             32.498
 Vibrational            192.943             50.953             45.780
 Vibration     1          0.594              1.983              5.743
 Vibration     2          0.596              1.975              4.550
 Vibration     3          0.601              1.960              3.803
 Vibration     4          0.607              1.938              3.204
 Vibration     5          0.610              1.929              3.046
 Vibration     6          0.625              1.880              2.438
 Vibration     7          0.635              1.848              2.188
 Vibration     8          0.653              1.792              1.863
 Vibration     9          0.658              1.777              1.793
 Vibration    10          0.663              1.761              1.722
 Vibration    11          0.670              1.739              1.636
 Vibration    12          0.707              1.633              1.303
 Vibration    13          0.715              1.609              1.243
 Vibration    14          0.743              1.533              1.077
 Vibration    15          0.767              1.468              0.959
 Vibration    16          0.777              1.442              0.917
 Vibration    17          0.781              1.431              0.898
 Vibration    18          0.791              1.406              0.860
 Vibration    19          0.812              1.354              0.786
 Vibration    20          0.845              1.274              0.686
 Vibration    21          0.919              1.111              0.518
 Vibration    22          0.964              1.020              0.440

 Optimization completed.
    -- Stationary point found.
 Normal termination of Gaussian 16 at Fri Dec 11 00:29:51 2020.

 ----------------------------------------------------------------------
 # B3LYP/6-311++G(d,p) empiricaldispersion=gd3bj scf=xqc pop=npa geom=c
 heck
 ----------------------------------------------------------------------

 --------------------------------------
 CID_79659133_JID_6942_Energie_neutraal
 --------------------------------------
 Structure from the checkpoint file:  "JID_6942.chk"
 Charge =  0 Multiplicity = 1

 SCF Done:  E(RB3LYP) =  -691.182103727     A.U. after   15 cycles
 Normal termination of Gaussian 16 at Fri Dec 11 00:34:53 2020.

 ----------------------------------------------------------------------
 # B3LYP/6-311++G(d,p) empiricaldispersion=gd3bj scf=xqc pop=npa geom=c
 heck
 ----------------------------------------------------------------------

 ------------------------------------
 CID_79659133_JID_6942_Energie_kation
 ------------------------------------
 Structure from the checkpoint file:  "JID_6942.chk"
 Charge =  1 Multiplicity = 2

 SCF Done:  E(UB3LYP) =  -690.887008677     A.U. after   29 cycles
 Normal termination of Gaussian 16 at Fri Dec 11 00:49:11 2020.
 Gaussian 16:  ES64L-G16RevA.03 25-Dec-2016

 ----------------------------------------------------------------------
 # B3LYP/6-311++G(d,p) empiricaldispersion=gd3bj scf=xqc pop=npa geom=c
 heck
 ----------------------------------------------------------------------

 -----------------------------------
 CID_79659133_JID_6942_Energie_anion
 -----------------------------------
 Structure from the checkpoint file:  "JID_6942.chk"
 Charge = -1 Multiplicity = 2

                         Standard orientation:
 ---------------------------------------------------------------------
 Center     Atomic      Atomic             Coordinates (Angstroms)
 Number     Number       Type             X           Y           Z
 ---------------------------------------------------------------------
      1          6           0       -3.415694   -2.196126   -0.462174
      2          7           0       -2.847334   -0.863329   -0.349587
      3          6           0       -2.999141   -0.315418    0.992253
      4          6           0       -2.470363    1.111990    1.033101
      5          7           0       -1.061726    1.157851    0.642418
      6          6           0       -0.889069    0.587239   -0.696473
      7          6           0       -1.444040   -0.847080   -0.738800
      8          6           0        0.563619    0.569023   -1.199140
      9          8           0        0.769205    0.925879   -2.350960
     10          6           0        1.685236    0.045915   -0.357492
     11          6           0        1.536142   -0.352173    0.980857
     12          6           0        2.630355   -0.849874    1.687311
     13          6           0        3.877680   -0.955018    1.071147
     14          6           0        4.034415   -0.556441   -0.259858
     15          6           0        2.946544   -0.059430   -0.967636
     16          6           0       -0.542212    2.518071    0.719792
     17          1           0       -2.924007   -2.935216    0.200475
     18          1           0       -4.479940   -2.163486   -0.205467
     19          1           0       -3.322671   -2.549862   -1.494381
     20          1           0       -4.063048   -0.317616    1.255343
     21          1           0       -2.464612   -0.926151    1.747719
     22          1           0       -2.557184    1.510360    2.050335
     23          1           0       -3.091324    1.742004    0.368264
     24          1           0       -1.438881    1.178147   -1.449472
     25          1           0       -0.831319   -1.499115   -0.087429
     26          1           0       -1.355316   -1.223278   -1.763602
     27          1           0        0.571292   -0.239902    1.460087
     28          1           0        2.508122   -1.153459    2.723246
     29          1           0        4.727444   -1.344115    1.625554
     30          1           0        5.004904   -0.635973   -0.741476
     31          1           0        3.042293    0.253222   -2.001698
     32          1           0       -1.040572    3.206122    0.012319
     33          1           0       -0.686814    2.902529    1.734549
     34          1           0        0.530580    2.523045    0.506183
 ---------------------------------------------------------------------

 SCF Done:  E(UB3LYP) =  -691.192299876     A.U. after   32 cycles

 The electronic state is 2-A.
 Alpha  occ. eigenvalues --  -18.91135 -14.20151 -14.18926 -10.09368 -10.09273
 Alpha  occ. eigenvalues --  -10.08770 -10.07173 -10.07081 -10.06248 -10.05441
 Alpha  occ. eigenvalues --  -10.02309 -10.02262 -10.01393 -10.01148 -10.00835
 Alpha  occ. eigenvalues --  -10.00785  -0.85677  -0.83793  -0.79683  -0.69922
 Alpha  occ. eigenvalues --   -0.65589  -0.63243  -0.59807  -0.59234  -0.56893
 Alpha  occ. eigenvalues --   -0.53841  -0.51280  -0.46864  -0.45107  -0.44595
 Alpha  occ. eigenvalues --   -0.40370  -0.38586  -0.36828  -0.36542  -0.35002
 Alpha  occ. eigenvalues --   -0.34210  -0.33515  -0.32559  -0.30395  -0.29631
 Alpha  occ. eigenvalues --   -0.29454  -0.28861  -0.27883  -0.27095  -0.26557
 Alpha  occ. eigenvalues --   -0.25944  -0.24796  -0.24304  -0.23277  -0.22687
 Alpha  occ. eigenvalues --   -0.21783  -0.20075  -0.19358  -0.18764  -0.12076
 Alpha  occ. eigenvalues --   -0.10836  -0.10471  -0.10354  -0.07719   0.04858
 Alpha virt. eigenvalues --    0.06754   0.07993   0.09104   0.09605   0.09882
 Alpha virt. eigenvalues --    0.11021   0.11076   0.11484   0.11980   0.12737
 Alpha virt. eigenvalues --    0.13134   0.13441   0.13600   0.14300   0.14674

  Beta  occ. eigenvalues --  -18.90534 -14.20136 -14.18903 -10.09364 -10.09272
  Beta  occ. eigenvalues --  -10.08768 -10.07145 -10.07074 -10.06278 -10.05053
  Beta  occ. eigenvalues --  -10.02390 -10.02319 -10.01068 -10.00999 -10.00718
  Beta  occ. eigenvalues --  -10.00617  -0.84769  -0.83575  -0.79629  -0.69597
  Beta  occ. eigenvalues --   -0.65509  -0.63175  -0.59315  -0.58940  -0.56869
  Beta  occ. eigenvalues --   -0.53698  -0.51160  -0.46100  -0.44994  -0.44521
  Beta  occ. eigenvalues --   -0.40084  -0.38490  -0.36728  -0.36452  -0.34963
  Beta  occ. eigenvalues --   -0.34106  -0.33235  -0.32478  -0.30251  -0.29580
  Beta  occ. eigenvalues --   -0.29233  -0.28811  -0.27763  -0.27030  -0.26514
  Beta  occ. eigenvalues --   -0.25605  -0.24606  -0.23682  -0.22734  -0.22431
  Beta  occ. eigenvalues --   -0.21231  -0.19787  -0.18629  -0.17193  -0.11988
  Beta  occ. eigenvalues --   -0.10470  -0.10009  -0.08604  -0.07196
  Beta virt. eigenvalues --    0.06726   0.07928   0.09042   0.09486   0.09806
  Beta virt. eigenvalues --    0.10885   0.10969   0.11345   0.11553   0.11910
  Beta virt. eigenvalues --    0.12648   0.13067   0.13525   0.13785   0.14232

 Mulliken charges and spin densities:
               1          2
     1  C   -0.185943  -0.053020
     2  N    0.111610   0.012038
     3  C   -0.296653  -0.084665
     4  C   -0.088726   0.002241
     5  N    0.164634   0.014804
     6  C    0.041796  -0.027551
     7  C   -0.518264   0.014909
     8  C   -0.913002   0.209504
     9  O   -0.358787   0.224827
    10  C    1.137758   0.028456
    11  C   -1.071169   0.104991
    12  C   -0.343894  -0.013770
    13  C   -0.400606   0.262341
    14  C   -0.492388  -0.059090
    15  C    0.395698   0.214820
    16  C   -0.340249  -0.002972
    17  H    0.097161   0.004861
    18  H    0.063867   0.053673
    19  H    0.112638   0.010384
    20  H    0.094606   0.060451
    21  H    0.098184  -0.007894
    22  H    0.093046   0.051702
    23  H    0.093320  -0.002294
    24  H    0.186180   0.008880
    25  H    0.116477  -0.001210
    26  H    0.193502  -0.007113
    27  H    0.163244  -0.012549
    28  H    0.121808   0.004271
    29  H    0.087449  -0.020384
    30  H    0.107107   0.003689
    31  H    0.177580  -0.012606
    32  H    0.094921   0.007887
    33  H    0.119698   0.003780
    34  H    0.137399   0.006608
 Sum of Mulliken charges =  -1.00000   1.00000

 Dipole moment (field-independent basis, Debye):
    X=             -5.7368    Y=             -0.9615    Z=              3.7182  Tot=              6.9037
 Quadrupole moment (field-independent basis, Debye-Ang):
   XX=           -136.1013   YY=           -111.5747   ZZ=           -121.3711
   XY=              1.8468   XZ=             -0.8641   YZ=              6.5330

 Summary of Natural Population Analysis:

                                       Natural Population
                Natural  -----------------------------------------------
    Atom  No    Charge         Core      Valence    Rydberg      Total
 -----------------------------------------------------------------------
      C    1   -0.17311      0.99966     2.16659    0.00686     3.17311
      N    2   -0.27917      0.99971     2.76635    0.01311     3.77917
      C    3   -0.08709      0.99962     2.07675    0.01072     3.08709
      C    4   -0.08371      0.99962     2.07415    0.00995     3.08371
      N    5   -0.28216      0.99970     2.77043    0.01203     3.78216
      C    6   -0.04577      0.99955     2.02792    0.01830     3.04577
      C    7   -0.08174      0.99959     2.07307    0.00908     3.08174
      C    8    0.31088      0.99960     1.66718    0.02234     2.68912
      O    9   -0.24492      0.99988     3.23901    0.00603     4.24492
      C   10   -0.05645      0.99947     2.04592    0.01106     3.05645
      C   11   -0.06916      0.99954     2.06190    0.00772     3.06916
      C   12   -0.13127      0.99957     2.12224    0.00946     3.13127
      C   13   -0.04781      0.99957     2.03868    0.00955     3.04781
      C   14   -0.13415      0.99957     2.12546    0.00912     3.13415
      C   15   -0.04477      0.99954     2.03628    0.00895     3.04477
      C   16   -0.17459      0.99965     2.16843    0.00651     3.17459
      H   17    0.07729      0.00000     0.42031    0.00240     0.42271
      H   18    0.08951      0.00000     0.40916    0.00133     0.41049
      H   19    0.09382      0.00000     0.40502    0.00116     0.40618
      H   20    0.09075      0.00000     0.40740    0.00184     0.40925
      H   21    0.08042      0.00000     0.41705    0.00253     0.41958
      H   22    0.09183      0.00000     0.40666    0.00151     0.40817
      H   23    0.07888      0.00000     0.41823    0.00290     0.42112
      H   24    0.09103      0.00000     0.40694    0.00203     0.40897
      H   25    0.08858      0.00000     0.41013    0.00129     0.41142
      H   26    0.10083      0.00000     0.39811    0.00106     0.39917
      H   27    0.10360      0.00000     0.39400    0.00240     0.39640
      H   28    0.08758      0.00000     0.41079    0.00162     0.41242
      H   29    0.08318      0.00000     0.41527    0.00156     0.41682
      H   30    0.08874      0.00000     0.41019    0.00107     0.41126
      H   31    0.10465      0.00000     0.39419    0.00116     0.39535
      H   32    0.07842      0.00000     0.41970    0.00188     0.42158
      H   33    0.08720      0.00000     0.41175    0.00106     0.41280
      H   34    0.10868      0.00000     0.39032    0.00100     0.39132
 =======================================================================
   * Total *   -0.00000     15.99385    42.80558    0.20057    59.00000

 Normal termination of Gaussian 16 at Fri Dec 11 01:03:24 2020.
