 Gaussian 16, Revision A.03,

 -----------------------------------------------------------
 # opt freq B3LYP/6-31G(d) empiricaldispersion=gd3bj scf=xqc
 -----------------------------------------------------------

 -------------------------------
 CID_153363983_JID_1162_neutraal
 -------------------------------
 Symbolic Z-matrix:
 Charge =  0 Multiplicity = 1

 SCF Done:  E(RB3LYP) =  -483.193155265     A.U. after   15 cycles
 SCF Done:  E(RB3LYP) =  -483.195691356     A.U. after   13 cycles
 SCF Done:  E(RB3LYP) =  -483.194757955     A.U. after   13 cycles
 SCF Done:  E(RB3LYP) =  -483.196006723     A.U. after   12 cycles
 SCF Done:  E(RB3LYP) =  -483.196135576     A.U. after   12 cycles
 SCF Done:  E(RB3LYP) =  -483.196192727     A.U. after   12 cycles
 SCF Done:  E(RB3LYP) =  -483.196238481     A.U. after   10 cycles
 SCF Done:  E(RB3LYP) =  -483.196261337     A.U. after   12 cycles
 SCF Done:  E(RB3LYP) =  -483.196266661     A.U. after   12 cycles
 SCF Done:  E(RB3LYP) =  -483.196281479     A.U. after   11 cycles
 SCF Done:  E(RB3LYP) =  -483.200467996     A.U. after    9 cycles
 SCF Done:  E(RB3LYP) =  -483.200470644     A.U. after    8 cycles
 SCF Done:  E(RB3LYP) =  -483.200471727     A.U. after    9 cycles
 SCF Done:  E(RB3LYP) =  -483.200471910     A.U. after    8 cycles
 SCF Done:  E(RB3LYP) =  -483.200471865     A.U. after    7 cycles
 Optimization completed.
    -- Stationary point found.
 Normal termination of Gaussian 16 at Tue Dec  8 19:27:19 2020.

 --------------------------------------------------------------------
 #N Geom=AllCheck Guess=TCheck SCRF=Check GenChk RB3LYP/6-31G(d) Freq
 --------------------------------------------------------------------

 Structure from the checkpoint file:  "JID_1162.chk"
 -------------------------------
 CID_153363983_JID_1162_neutraal
 -------------------------------
 Charge =  0 Multiplicity = 1

 SCF Done:  E(RB3LYP) =  -483.200471865     A.U. after    1 cycles

  Exact polarizability: 119.685 -10.993  97.247   0.299  -1.922  92.009
 Approx polarizability: 152.726 -22.598 152.987   1.362  -6.193 128.866

                      1                      2                      3
                      A                      A                      A
 Frequencies --     39.9233                49.3273               104.7605
 Red. masses --      4.2310                 3.4261                 3.6487
 Frc consts  --      0.0040                 0.0049                 0.0236
 IR Inten    --      0.9995                 0.7807                 4.5783

                      4                      5                      6
                      A                      A                      A
 Frequencies --    113.8720               148.7454               182.9397
 Red. masses --      3.3872                 1.6764                 2.1614
 Frc consts  --      0.0259                 0.0219                 0.0426
 IR Inten    --      6.8321                 1.5133                 2.0175

                      7                      8                      9
                      A                      A                      A
 Frequencies --    190.5859               225.1813               253.4644
 Red. masses --      1.1356                 1.8615                 1.1076
 Frc consts  --      0.0243                 0.0556                 0.0419
 IR Inten    --      0.0382                 1.1894                 0.4174

                     10                     11                     12
                      A                      A                      A
 Frequencies --    268.1117               274.8701               303.9253
 Red. masses --      1.6256                 1.4390                 1.7984
 Frc consts  --      0.0688                 0.0641                 0.0979
 IR Inten    --      2.6445                 1.3118                 2.4399

                     13                     14                     15
                      A                      A                      A
 Frequencies --    322.5525               359.2853               377.5577
 Red. masses --      2.1480                 2.6095                 2.4957
 Frc consts  --      0.1317                 0.1985                 0.2096
 IR Inten    --      1.2590                 0.8435                 0.6392

                     16                     17                     18
                      A                      A                      A
 Frequencies --    380.5604               445.1393               498.4691
 Red. masses --      2.2726                 2.8395                 2.9253
 Frc consts  --      0.1939                 0.3315                 0.4283
 IR Inten    --      1.2573                11.8915                 6.7776

                     19                     20                     21
                      A                      A                      A
 Frequencies --    541.6585               609.9620               668.5898
 Red. masses --      2.5027                 2.7437                 2.8581
 Frc consts  --      0.4326                 0.6014                 0.7527
 IR Inten    --      1.9744                 0.4205                 4.8852

                     22                     23                     24
                      A                      A                      A
 Frequencies --    707.2206               736.1773               843.9366
 Red. masses --      1.9107                 2.3433                 2.4872
 Frc consts  --      0.5631                 0.7482                 1.0437
 IR Inten    --      2.3404                 0.1393                 3.7333

                     25                     26                     27
                      A                      A                      A
 Frequencies --    870.5168               940.6887               944.9579
 Red. masses --      3.0616                 1.9515                 1.7960
 Frc consts  --      1.3670                 1.0174                 0.9449
 IR Inten    --     11.0743                 3.6197                 0.7455

                     28                     29                     30
                      A                      A                      A
 Frequencies --    954.6120               976.6558               999.1045
 Red. masses --      1.6913                 1.2001                 1.6389
 Frc consts  --      0.9081                 0.6744                 0.9639
 IR Inten    --      0.8211                 0.0103                 0.8223

                     31                     32                     33
                      A                      A                      A
 Frequencies --   1010.8675              1033.4058              1056.3928
 Red. masses --      1.6372                 1.4422                 1.6201
 Frc consts  --      0.9857                 0.9074                 1.0652
 IR Inten    --      2.2106                 2.4451                 5.7655

                     34                     35                     36
                      A                      A                      A
 Frequencies --   1077.1437              1106.8425              1111.9998
 Red. masses --      1.5976                 2.4632                 2.2418
 Frc consts  --      1.0921                 1.7779                 1.6333
 IR Inten    --      1.0688                10.8742                 1.9363

                     37                     38                     39
                      A                      A                      A
 Frequencies --   1178.8350              1240.3171              1249.4709
 Red. masses --      2.3242                 2.4373                 1.2907
 Frc consts  --      1.9030                 2.2091                 1.1872
 IR Inten    --     40.4326                 1.2951                 5.7357

                     40                     41                     42
                      A                      A                      A
 Frequencies --   1260.9331              1276.1282              1323.5421
 Red. masses --      2.5727                 1.3419                 3.1277
 Frc consts  --      2.4100                 1.2875                 3.2281
 IR Inten    --      3.9791                 8.5010                 1.5755

                     43                     44                     45
                      A                      A                      A
 Frequencies --   1386.8331              1402.1043              1421.4007
 Red. masses --      1.4481                 1.4723                 1.2534
 Frc consts  --      1.6410                 1.7053                 1.4921
 IR Inten    --     18.5373                16.8951                 7.3402

                     46                     47                     48
                      A                      A                      A
 Frequencies --   1424.5442              1429.1683              1439.7824
 Red. masses --      1.2131                 1.2232                 1.1744
 Frc consts  --      1.4504                 1.4720                 1.4344
 IR Inten    --      6.8105                11.2223                12.7321

                     49                     50                     51
                      A                      A                      A
 Frequencies --   1457.5927              1462.8123              1504.8634
 Red. masses --      1.2145                 1.1128                 1.0502
 Frc consts  --      1.5202                 1.4029                 1.4013
 IR Inten    --      2.4721                19.7756                 1.7729

                     52                     53                     54
                      A                      A                      A
 Frequencies --   1511.6059              1514.5781              1518.1982
 Red. masses --      1.0471                 1.0644                 1.0472
 Frc consts  --      1.4097                 1.4387                 1.4222
 IR Inten    --      0.4011                 0.8481                 0.1108

                     55                     56                     57
                      A                      A                      A
 Frequencies --   1520.0352              1530.0249              1538.4247
 Red. masses --      1.0541                 1.0633                 1.0521
 Frc consts  --      1.4350                 1.4666                 1.4671
 IR Inten    --      0.6326                 6.2663                 4.4534

                     58                     59                     60
                      A                      A                      A
 Frequencies --   1543.4079              1551.3462              1744.7822
 Red. masses --      1.0579                 1.0771                10.4212
 Frc consts  --      1.4848                 1.5273                18.6918
 IR Inten    --     22.2869                12.4583                91.3914

                     61                     62                     63
                      A                      A                      A
 Frequencies --   1829.0189              2903.3939              3025.3940
 Red. masses --      9.5738                 1.0838                 1.0654
 Frc consts  --     18.8700                 5.3830                 5.7455
 IR Inten    --    115.0464               162.0705                22.6623

                     64                     65                     66
                      A                      A                      A
 Frequencies --   3040.7194              3046.3502              3048.6011
 Red. masses --      1.0568                 1.0347                 1.0360
 Frc consts  --      5.7570                 5.6577                 5.6731
 IR Inten    --     49.2099                27.3510                17.7582

                     67                     68                     69
                      A                      A                      A
 Frequencies --   3057.4232              3063.4828              3069.9755
 Red. masses --      1.0388                 1.0479                 1.0929
 Frc consts  --      5.7215                 5.7942                 6.0686
 IR Inten    --     32.0328                11.5957                 5.1237

                     70                     71                     72
                      A                      A                      A
 Frequencies --   3082.0850              3112.1971              3115.1716
 Red. masses --      1.0991                 1.1024                 1.1015
 Frc consts  --      6.1512                 6.2909                 6.2982
 IR Inten    --     31.7665                12.3635                21.7745

                     73                     74                     75
                      A                      A                      A
 Frequencies --   3120.6250              3123.7972              3126.6811
 Red. masses --      1.1019                 1.1016                 1.0982
 Frc consts  --      6.3223                 6.3334                 6.3256
 IR Inten    --     21.2848                31.7251                46.6650

                     76                     77                     78
                      A                      A                      A
 Frequencies --   3127.7310              3144.6868              3164.8830
 Red. masses --      1.0989                 1.1021                 1.0989
 Frc consts  --      6.3336                 6.4215                 6.4849
 IR Inten    --     18.0134                26.4592                22.9499

 - Thermochemistry -
 -------------------
 Temperature   298.150 Kelvin.  Pressure   1.00000 Atm.
 Atom     1 has atomic number  6 and mass  12.00000

 Molecular mass:   155.13101 amu.
 Principal axes and moments of inertia in atomic units:
                           1         2         3
     Eigenvalues --  1012.796592794.081912874.77665
           X            0.99978  -0.02054  -0.00454
           Y            0.01923   0.97995  -0.19832
           Z            0.00852   0.19819   0.98013
 This molecule is an asymmetric top.
 Rotational symmetry number  1.
 Warning -- assumption of classical behavior for rotation
           may cause significant error
 Rotational temperatures (Kelvin)      0.08552     0.03100     0.03013
 Rotational constants (GHZ):           1.78194     0.64592     0.62778
 Zero-point vibrational energy     654135.7 (Joules/Mol)
                                  156.34219 (Kcal/Mol)
 Warning -- explicit consideration of  20 degrees of freedom as
           vibrations may cause significant error
 Vibrational temperatures:     57.44    70.97   150.73   163.84   214.01
          (Kelvin)            263.21   274.21   323.99   364.68   385.75
                              395.48   437.28   464.08   516.93   543.22
                              547.54   640.46   717.19   779.33   877.60
                              961.95  1017.53  1059.19  1214.24  1252.48
                             1353.44  1359.58  1373.47  1405.19  1437.49
                             1454.41  1486.84  1519.91  1549.77  1592.50
                             1599.92  1696.08  1784.54  1797.71  1814.20
                             1836.06  1904.28  1995.34  2017.32  2045.08
                             2049.60  2056.25  2071.53  2097.15  2104.66
                             2165.16  2174.86  2179.14  2184.35  2186.99
                             2201.36  2213.45  2220.62  2232.04  2510.35
                             2631.55  4177.34  4352.87  4374.92  4383.02
                             4386.26  4398.95  4407.67  4417.01  4434.43
                             4477.76  4482.04  4489.88  4494.45  4498.60
                             4500.11  4524.50  4553.56

 Zero-point correction=                           0.249147 (Hartree/Particle)
 Thermal correction to Energy=                    0.262521
 Thermal correction to Enthalpy=                  0.263465
 Thermal correction to Gibbs Free Energy=         0.209679
 Sum of electronic and zero-point Energies=           -482.951325
 Sum of electronic and thermal Energies=              -482.937951
 Sum of electronic and thermal Enthalpies=            -482.937007
 Sum of electronic and thermal Free Energies=         -482.990793

                     E (Thermal)             CV                S
                      KCal/Mol        Cal/Mol-Kelvin    Cal/Mol-Kelvin
 Total                  164.734             49.156            113.203
 Electronic               0.000              0.000              0.000
 Translational            0.889              2.981             41.027
 Rotational               0.889              2.981             30.476
 Vibrational            162.957             43.194             41.699
 Vibration     1          0.594              1.981              5.263
 Vibration     2          0.595              1.978              4.844
 Vibration     3          0.605              1.945              3.364
 Vibration     4          0.607              1.938              3.202
 Vibration     5          0.618              1.904              2.688
 Vibration     6          0.630              1.863              2.298
 Vibration     7          0.634              1.853              2.222
 Vibration     8          0.650              1.803              1.917
 Vibration     9          0.665              1.757              1.706
 Vibration    10          0.673              1.732              1.608
 Vibration    11          0.677              1.720              1.565
 Vibration    12          0.695              1.666              1.395
 Vibration    13          0.708              1.630              1.297
 Vibration    14          0.734              1.556              1.125
 Vibration    15          0.748              1.518              1.049
 Vibration    16          0.750              1.512              1.037
 Vibration    17          0.805              1.372              0.811
 Vibration    18          0.854              1.253              0.662
 Vibration    19          0.897              1.158              0.562
 Vibration    20          0.969              1.011              0.433

 Optimization completed.
    -- Stationary point found.
 Normal termination of Gaussian 16 at Tue Dec  8 19:33:51 2020.

 ----------------------------------------------------------------------
 # B3LYP/6-311++G(d,p) empiricaldispersion=gd3bj scf=xqc pop=npa geom=c
 heck
 ----------------------------------------------------------------------

 ---------------------------------------
 CID_153363983_JID_1162_Energie_neutraal
 ---------------------------------------
 Structure from the checkpoint file:  "JID_1162.chk"
 Charge =  0 Multiplicity = 1

 SCF Done:  E(RB3LYP) =  -483.339338136     A.U. after   14 cycles
 Normal termination of Gaussian 16 at Tue Dec  8 19:36:51 2020.

 ----------------------------------------------------------------------
 # B3LYP/6-311++G(d,p) empiricaldispersion=gd3bj scf=xqc pop=npa geom=c
 heck
 ----------------------------------------------------------------------

 -------------------------------------
 CID_153363983_JID_1162_Energie_kation
 -------------------------------------
 Structure from the checkpoint file:  "JID_1162.chk"
 Charge =  1 Multiplicity = 2

 SCF Done:  E(UB3LYP) =  -483.023485741     A.U. after   21 cycles
 Normal termination of Gaussian 16 at Tue Dec  8 19:43:03 2020.
 Gaussian 16:  ES64L-G16RevA.03 25-Dec-2016

 ----------------------------------------------------------------------
 # B3LYP/6-311++G(d,p) empiricaldispersion=gd3bj scf=xqc pop=npa geom=c
 heck
 ----------------------------------------------------------------------

 ------------------------------------
 CID_153363983_JID_1162_Energie_anion
 ------------------------------------
 Structure from the checkpoint file:  "JID_1162.chk"
 Charge = -1 Multiplicity = 2

                         Standard orientation:
 ---------------------------------------------------------------------
 Center     Atomic      Atomic             Coordinates (Angstroms)
 Number     Number       Type             X           Y           Z
 ---------------------------------------------------------------------
      1          6           0        0.312890   -1.179174    1.461078
      2          6           0        0.498504    0.006795    0.528265
      3          7           0       -0.371958    0.919141    0.332821
      4          6           0       -1.665979    0.882724    0.993843
      5          6           0       -2.763543    0.906773   -0.071701
      6          6           0       -2.890858   -0.382160   -0.847982
      7          8           0       -2.324337   -1.420030   -0.579080
      8          6           0        1.813238    0.093343   -0.256430
      9          6           0        2.999433    0.171439    0.728378
     10          6           0        1.947749   -1.168818   -1.137046
     11          6           0        1.835418    1.333463   -1.160403
     12          1           0       -0.544949   -1.771850    1.128092
     13          1           0        0.115802   -0.846056    2.486092
     14          1           0        1.190005   -1.826681    1.486565
     15          1           0       -1.825571    0.023756    1.657669
     16          1           0       -1.755843    1.792308    1.601331
     17          1           0       -3.749346    1.112402    0.374282
     18          1           0       -2.578213    1.718208   -0.788570
     19          1           0       -3.582624   -0.334559   -1.719179
     20          1           0        3.055431   -0.703079    1.384711
     21          1           0        3.942749    0.228487    0.173038
     22          1           0        2.924214    1.065112    1.358336
     23          1           0        1.100049   -1.252167   -1.826080
     24          1           0        2.867260   -1.113054   -1.731161
     25          1           0        1.991691   -2.088025   -0.544240
     26          1           0        1.012558    1.311505   -1.879749
     27          1           0        1.731213    2.251152   -0.575338
     28          1           0        2.782867    1.372478   -1.710926
 ---------------------------------------------------------------------

 SCF Done:  E(UB3LYP) =  -483.324872710     A.U. after   33 cycles
 SCF Done:  E(UB3LYP) =  -483.324872710     a.u. after    1 cycles

 The electronic state is 2-A.
 Alpha  occ. eigenvalues --  -18.99746 -14.17965 -10.13187 -10.10035 -10.07977
 Alpha  occ. eigenvalues --  -10.07918 -10.06359 -10.05650 -10.05501 -10.05440
 Alpha  occ. eigenvalues --  -10.04396  -0.92853  -0.80817  -0.71121  -0.65944
 Alpha  occ. eigenvalues --   -0.61439  -0.58386  -0.57488  -0.55348  -0.48231
 Alpha  occ. eigenvalues --   -0.43861  -0.39822  -0.38078  -0.37027  -0.34834
 Alpha  occ. eigenvalues --   -0.33869  -0.33112  -0.32553  -0.31289  -0.30574
 Alpha  occ. eigenvalues --   -0.28714  -0.28513  -0.27935  -0.27504  -0.25945
 Alpha  occ. eigenvalues --   -0.25598  -0.24529  -0.22975  -0.22436  -0.21785
 Alpha  occ. eigenvalues --   -0.16917  -0.13956  -0.13075   0.04851
 Alpha virt. eigenvalues --    0.06685   0.07773   0.08087   0.08727   0.09328
 Alpha virt. eigenvalues --    0.09445   0.10341   0.10665   0.11176   0.11565
 Alpha virt. eigenvalues --    0.12067   0.12504   0.12789   0.13710   0.14580

  Beta  occ. eigenvalues --  -18.99589 -14.17956 -10.13010 -10.10015 -10.07976
  Beta  occ. eigenvalues --  -10.07898 -10.06353 -10.05638 -10.05465 -10.05424
  Beta  occ. eigenvalues --  -10.04383  -0.92545  -0.80785  -0.71096  -0.65838
  Beta  occ. eigenvalues --   -0.61390  -0.58340  -0.57427  -0.55202  -0.48118
  Beta  occ. eigenvalues --   -0.43601  -0.39753  -0.38011  -0.36898  -0.34780
  Beta  occ. eigenvalues --   -0.33812  -0.33023  -0.32420  -0.31219  -0.30308
  Beta  occ. eigenvalues --   -0.28647  -0.28413  -0.27897  -0.27417  -0.25922
  Beta  occ. eigenvalues --   -0.25471  -0.23983  -0.22947  -0.22410  -0.21739
  Beta  occ. eigenvalues --   -0.16844  -0.13811  -0.13044
  Beta virt. eigenvalues --    0.07043   0.08035   0.08491   0.08982   0.09282
  Beta virt. eigenvalues --    0.09752   0.10005   0.10628   0.10870   0.11375
  Beta virt. eigenvalues --    0.12030   0.12446   0.12799   0.13145   0.13921

 Mulliken charges and spin densities:
               1          2
     1  C    1.138361  -1.980214
     2  C   -0.253473   0.056188
     3  N    0.054940   0.128877
     4  C    0.414463  -0.622704
     5  C    0.503744  -0.830558
     6  C    0.123209  -0.023962
     7  O   -0.261419   0.032817
     8  C   -1.660458   2.362716
     9  C    0.559469  -1.095420
    10  C   -0.059379  -0.507529
    11  C    0.061500  -0.677723
    12  H    0.145309   0.067361
    13  H   -0.191661   0.367935
    14  H    0.245093  -0.137666
    15  H    0.072800   0.049817
    16  H   -0.489005   0.666937
    17  H   -0.720691   0.902700
    18  H    0.231471  -0.072172
    19  H   -0.217309   0.287079
    20  H   -0.292475   0.423491
    21  H   -0.300090   0.454055
    22  H   -0.105112   0.260468
    23  H    0.073240   0.074787
    24  H    0.036100   0.119537
    25  H   -0.062222   0.200235
    26  H    0.043887   0.114130
    27  H    0.004418   0.155716
    28  H   -0.094709   0.223104
 Sum of Mulliken charges =  -1.00000   1.00000

 Dipole moment (field-independent basis, Debye):
    X=              1.4016    Y=             -1.4737    Z=             -2.0981  Tot=              2.9220
 Quadrupole moment (field-independent basis, Debye-Ang):
   XX=           -136.9424   YY=           -103.7636   ZZ=           -101.7766
   XY=              3.8709   XZ=              3.0900   YZ=             -4.5099

 Summary of Natural Population Analysis:

                                       Natural Population
                Natural  -----------------------------------------------
    Atom  No    Charge         Core      Valence    Rydberg      Total
 -----------------------------------------------------------------------
      C    1   -0.33461      0.99961     2.32872    0.00628     3.33461
      C    2    0.17336      0.99953     1.81026    0.01685     2.82664
      N    3   -0.24953      0.99963     2.73783    0.01207     3.74953
      C    4   -0.10318      0.99959     2.09009    0.01350     3.10318
      C    5   -0.24267      0.99961     2.23388    0.00919     3.24267
      C    6    0.25297      0.99974     1.72812    0.01917     2.74703
      O    7   -0.27377      0.99988     3.26667    0.00723     4.27377
      C    8   -0.06669      0.99955     2.05523    0.01191     3.06669
      C    9   -0.28242      0.99963     2.27562    0.00718     3.28242
      C   10   -0.28129      0.99962     2.27603    0.00564     3.28129
      C   11   -0.28103      0.99963     2.27480    0.00659     3.28103
      H   12    0.12441      0.00000     0.37434    0.00124     0.37559
      H   13    0.10732      0.00000     0.39176    0.00091     0.39268
      H   14    0.10194      0.00000     0.39714    0.00092     0.39806
      H   15    0.08797      0.00000     0.40993    0.00210     0.41203
      H   16    0.10026      0.00000     0.39770    0.00203     0.39974
      H   17    0.11503      0.00000     0.37962    0.00535     0.38497
      H   18    0.10910      0.00000     0.38940    0.00150     0.39090
      H   19    0.03774      0.00000     0.45947    0.00279     0.46226
      H   20    0.09931      0.00000     0.39955    0.00114     0.40069
      H   21    0.09973      0.00000     0.39906    0.00121     0.40027
      H   22    0.10158      0.00000     0.39730    0.00112     0.39842
      H   23    0.10393      0.00000     0.39513    0.00094     0.39607
      H   24    0.09772      0.00000     0.40142    0.00086     0.40228
      H   25    0.09903      0.00000     0.40008    0.00089     0.40097
      H   26    0.10585      0.00000     0.39309    0.00106     0.39415
      H   27    0.10547      0.00000     0.39341    0.00112     0.39453
      H   28    0.09248      0.00000     0.40660    0.00092     0.40752
 =======================================================================
   * Total *   -0.00000     10.99602    31.86227    0.14171    43.00000

 Normal termination of Gaussian 16 at Tue Dec  8 19:52:50 2020.
