 Gaussian 16, Revision A.03,

 -----------------------------------------------------------
 # opt freq B3LYP/6-31G(d) empiricaldispersion=gd3bj scf=xqc
 -----------------------------------------------------------

 -------------------------------
 CID_107389729_JID_9274_neutraal
 -------------------------------
 Symbolic Z-matrix:
 Charge =  0 Multiplicity = 1

 SCF Done:  E(RB3LYP) =  -898.022760661     A.U. after   14 cycles
 SCF Done:  E(RB3LYP) =  -898.032664440     A.U. after   13 cycles
 SCF Done:  E(RB3LYP) =  -898.036749688     A.U. after   14 cycles
 SCF Done:  E(RB3LYP) =  -898.038468686     A.U. after   12 cycles
 SCF Done:  E(RB3LYP) =  -898.039347472     A.U. after   12 cycles
 SCF Done:  E(RB3LYP) =  -898.039686673     A.U. after   11 cycles
 SCF Done:  E(RB3LYP) =  -898.039868018     A.U. after   11 cycles
 SCF Done:  E(RB3LYP) =  -898.039994698     A.U. after   11 cycles
 SCF Done:  E(RB3LYP) =  -898.040040673     A.U. after   10 cycles
 SCF Done:  E(RB3LYP) =  -898.040061088     A.U. after   10 cycles
 SCF Done:  E(RB3LYP) =  -898.040067648     A.U. after    9 cycles
 SCF Done:  E(RB3LYP) =  -898.040069502     A.U. after    8 cycles
 SCF Done:  E(RB3LYP) =  -898.040069840     A.U. after    8 cycles
 SCF Done:  E(RB3LYP) =  -898.040070032     A.U. after    7 cycles
 SCF Done:  E(RB3LYP) =  -898.040070079     A.U. after    7 cycles
 Optimization completed.
    -- Stationary point found.
 Normal termination of Gaussian 16 at Sun Dec 13 16:19:21 2020.

 --------------------------------------------------------------------
 #N Geom=AllCheck Guess=TCheck SCRF=Check GenChk RB3LYP/6-31G(d) Freq
 --------------------------------------------------------------------

 Structure from the checkpoint file:  "JID_9274.chk"
 -------------------------------
 CID_107389729_JID_9274_neutraal
 -------------------------------
 Charge =  0 Multiplicity = 1

 SCF Done:  E(RB3LYP) =  -898.040070079     A.U. after    1 cycles

  Exact polarizability: 197.894  27.403 141.658  -1.036   3.604 149.769
 Approx polarizability: 267.765  47.128 198.001   1.319   6.400 245.480

                      1                      2                      3
                      A                      A                      A
 Frequencies --     19.9271                33.8064                43.3731
 Red. masses --      4.4603                 3.5231                 3.9760
 Frc consts  --      0.0010                 0.0024                 0.0044
 IR Inten    --      0.1681                 0.7210                 1.9811

                      4                      5                      6
                      A                      A                      A
 Frequencies --     57.6191                66.6614                85.7891
 Red. masses --      4.2751                 3.9313                 2.7899
 Frc consts  --      0.0084                 0.0103                 0.0121
 IR Inten    --      0.7302                 0.2670                 0.5793

                      7                      8                      9
                      A                      A                      A
 Frequencies --    113.6279               142.8158               149.5684
 Red. masses --      2.8385                 2.0790                 1.6827
 Frc consts  --      0.0216                 0.0250                 0.0222
 IR Inten    --      0.7089                 3.7867                 0.9009

                     10                     11                     12
                      A                      A                      A
 Frequencies --    174.3953               206.2280               208.1668
 Red. masses --      2.5845                 1.5409                 1.0534
 Frc consts  --      0.0463                 0.0386                 0.0269
 IR Inten    --      1.5474                 2.9571                 0.2595

                     13                     14                     15
                      A                      A                      A
 Frequencies --    229.3839               247.4726               262.9536
 Red. masses --      4.5267                 1.2122                 2.3131
 Frc consts  --      0.1403                 0.0437                 0.0942
 IR Inten    --      1.7720                 0.7041                 0.6905

                     16                     17                     18
                      A                      A                      A
 Frequencies --    265.0327               277.7562               311.4892
 Red. masses --      2.2110                 2.2699                 3.9560
 Frc consts  --      0.0915                 0.1032                 0.2261
 IR Inten    --      0.6976                 0.5293                 1.7280

                     19                     20                     21
                      A                      A                      A
 Frequencies --    337.0499               342.6688               357.7911
 Red. masses --      2.8504                 2.5073                 3.0120
 Frc consts  --      0.1908                 0.1735                 0.2272
 IR Inten    --      9.0315                 1.1688                 0.3594

                     22                     23                     24
                      A                      A                      A
 Frequencies --    361.5219               417.9419               447.1489
 Red. masses --      3.2517                 2.3108                 2.6273
 Frc consts  --      0.2504                 0.2378                 0.3095
 IR Inten    --      4.8241                 2.6958                22.8497

                     25                     26                     27
                      A                      A                      A
 Frequencies --    485.3245               503.8705               524.4049
 Red. masses --      1.4217                 3.4313                 3.2305
 Frc consts  --      0.1973                 0.5133                 0.5234
 IR Inten    --     97.5699                12.2012                 1.3955

                     28                     29                     30
                      A                      A                      A
 Frequencies --    539.4456               543.8622               607.4936
 Red. masses --      5.2362                 3.6603                 3.4548
 Frc consts  --      0.8978                 0.6379                 0.7512
 IR Inten    --      2.1738                11.4423                 2.6595

                     31                     32                     33
                      A                      A                      A
 Frequencies --    635.9636               654.1665               671.5636
 Red. masses --      3.4781                 3.1376                 4.7782
 Frc consts  --      0.8288                 0.7911                 1.2697
 IR Inten    --      6.2065                21.7559                13.9436

                     34                     35                     36
                      A                      A                      A
 Frequencies --    701.0217               745.9850               796.9791
 Red. masses --      9.4524                 3.5652                 8.0830
 Frc consts  --      2.7369                 1.1689                 3.0249
 IR Inten    --      4.2502                 7.9612                26.6758

                     37                     38                     39
                      A                      A                      A
 Frequencies --    804.8924               817.7911               856.1939
 Red. masses --      5.8505                 1.2943                 2.7666
 Frc consts  --      2.2331                 0.5100                 1.1949
 IR Inten    --      5.5481                 4.6449                26.5581

                     40                     41                     42
                      A                      A                      A
 Frequencies --    873.0467               888.3709               895.7833
 Red. masses --      3.5739                 3.6333                 3.2843
 Frc consts  --      1.6050                 1.6894                 1.5527
 IR Inten    --      7.8554                31.9681                10.6437

                     43                     44                     45
                      A                      A                      A
 Frequencies --    935.1346               939.0532               955.1631
 Red. masses --      1.5265                 2.3809                 2.1399
 Frc consts  --      0.7865                 1.2370                 1.1503
 IR Inten    --      2.0730                 3.7671                 5.9368

                     46                     47                     48
                      A                      A                      A
 Frequencies --    981.5721               998.9472              1007.4582
 Red. masses --      1.4460                 2.0580                 1.7815
 Frc consts  --      0.8208                 1.2100                 1.0653
 IR Inten    --      1.3222                14.1860                12.2159

                     49                     50                     51
                      A                      A                      A
 Frequencies --   1017.3008              1056.8808              1073.1142
 Red. masses --      1.3143                 2.6292                 1.4262
 Frc consts  --      0.8014                 1.7303                 0.9676
 IR Inten    --      0.0953                18.8545                 0.3209

                     52                     53                     54
                      A                      A                      A
 Frequencies --   1096.7457              1105.7838              1121.4242
 Red. masses --      3.8507                 3.0897                 3.2188
 Frc consts  --      2.7290                 2.2259                 2.3850
 IR Inten    --     11.5275                57.1541                65.7918

                     55                     56                     57
                      A                      A                      A
 Frequencies --   1131.7548              1146.9619              1179.1344
 Red. masses --      2.0431                 3.1086                 3.3455
 Frc consts  --      1.5419                 2.4094                 2.7405
 IR Inten    --     40.9982                31.9606                17.2161

                     58                     59                     60
                      A                      A                      A
 Frequencies --   1194.1388              1199.1382              1204.0830
 Red. masses --      2.6723                 2.3328                 2.1231
 Frc consts  --      2.2451                 1.9763                 1.8136
 IR Inten    --    164.6881               143.3327                16.5251

                     61                     62                     63
                      A                      A                      A
 Frequencies --   1252.2030              1255.8991              1284.2691
 Red. masses --      2.8943                 1.3315                 2.2983
 Frc consts  --      2.6739                 1.2374                 2.2335
 IR Inten    --     64.4569                20.5422               100.8156

                     64                     65                     66
                      A                      A                      A
 Frequencies --   1293.3892              1322.7083              1342.5285
 Red. masses --      1.6271                 1.6108                 3.6332
 Frc consts  --      1.6037                 1.6604                 3.8582
 IR Inten    --    157.7250                40.5471                23.6660

                     67                     68                     69
                      A                      A                      A
 Frequencies --   1356.9524              1359.0394              1379.6065
 Red. masses --      1.4453                 1.5069                 1.5352
 Frc consts  --      1.5680                 1.6398                 1.7216
 IR Inten    --     18.9958                92.9483                14.4483

                     70                     71                     72
                      A                      A                      A
 Frequencies --   1381.5125              1404.4991              1412.7537
 Red. masses --      1.5879                 1.6523                 1.3454
 Frc consts  --      1.7856                 1.9203                 1.5821
 IR Inten    --      6.5109                11.6438                10.7233

                     73                     74                     75
                      A                      A                      A
 Frequencies --   1424.7934              1428.6753              1435.4488
 Red. masses --      1.5900                 1.3600                 1.3950
 Frc consts  --      1.9017                 1.6355                 1.6936
 IR Inten    --     36.0819                20.4991                24.5546

                     76                     77                     78
                      A                      A                      A
 Frequencies --   1438.3386              1441.6476              1467.5891
 Red. masses --      1.2890                 1.2904                 1.5700
 Frc consts  --      1.5712                 1.5802                 1.9923
 IR Inten    --     41.2218                18.9122                10.1254

                     79                     80                     81
                      A                      A                      A
 Frequencies --   1484.7681              1495.4910              1501.8223
 Red. masses --      1.8625                 1.1257                 1.0469
 Frc consts  --      2.4192                 1.4833                 1.3911
 IR Inten    --    111.0522                17.8959                 0.7526

                     82                     83                     84
                      A                      A                      A
 Frequencies --   1508.4494              1514.8443              1521.6978
 Red. masses --      1.0546                 1.0459                 1.1420
 Frc consts  --      1.4139                 1.4140                 1.5581
 IR Inten    --      0.6188                10.4335                37.0414

                     85                     86                     87
                      A                      A                      A
 Frequencies --   1523.6319              1524.4128              1527.8205
 Red. masses --      1.0853                 1.0561                 1.0519
 Frc consts  --      1.4844                 1.4460                 1.4466
 IR Inten    --     11.0519                 5.5794                 7.8972

                     88                     89                     90
                      A                      A                      A
 Frequencies --   1530.3932              1539.1840              1541.4473
 Red. masses --      1.2000                 1.1150                 1.1092
 Frc consts  --      1.6559                 1.5564                 1.5528
 IR Inten    --     39.2267                23.1898                 4.1855

                     91                     92                     93
                      A                      A                      A
 Frequencies --   1560.3245              1641.6154              1645.5761
 Red. masses --      2.8120                 4.0810                 5.7336
 Frc consts  --      4.0336                 6.4798                 9.1478
 IR Inten    --     49.4876                75.8756               725.0974

                     94                     95                     96
                      A                      A                      A
 Frequencies --   2993.2976              3004.2976              3015.8085
 Red. masses --      1.0764                 1.0789                 1.0461
 Frc consts  --      5.6824                 5.7373                 5.6059
 IR Inten    --     27.0500               101.4767                35.8331

                     97                     98                     99
                      A                      A                      A
 Frequencies --   3058.7152              3059.5816              3062.7073
 Red. masses --      1.0370                 1.0973                 1.0714
 Frc consts  --      5.7163                 6.0520                 5.9212
 IR Inten    --     20.3515                32.8170                66.0909

                    100                    101                    102
                      A                      A                      A
 Frequencies --   3066.8747              3072.1119              3090.4407
 Red. masses --      1.0347                 1.0351                 1.0596
 Frc consts  --      5.7341                 5.7560                 5.9624
 IR Inten    --     13.2068                 7.5745                43.4524

                    103                    104                    105
                      A                      A                      A
 Frequencies --   3121.7652              3122.8996              3140.0145
 Red. masses --      1.0931                 1.1023                 1.1030
 Frc consts  --      6.2766                 6.3339                 6.4077
 IR Inten    --     47.8001                25.9927                11.8905

                    106                    107                    108
                      A                      A                      A
 Frequencies --   3140.1674              3147.6011              3150.0227
 Red. masses --      1.1034                 1.1030                 1.1023
 Frc consts  --      6.4106                 6.4386                 6.4446
 IR Inten    --      1.2796                37.6142                18.0910

                    109                    110                    111
                      A                      A                      A
 Frequencies --   3152.6622              3157.8044              3162.6918
 Red. masses --      1.1035                 1.1059                 1.0940
 Frc consts  --      6.4619                 6.4975                 6.4476
 IR Inten    --     21.8145                32.2159                 1.8672

                    112                    113                    114
                      A                      A                      A
 Frequencies --   3168.0475              3177.7516              3640.7608
 Red. masses --      1.0930                 1.0905                 1.0754
 Frc consts  --      6.4632                 6.4884                 8.3987
 IR Inten    --      3.8443                36.3016                13.3497

 - Thermochemistry -
 -------------------
 Temperature   298.150 Kelvin.  Pressure   1.00000 Atm.
 Atom     1 has atomic number  6 and mass  12.00000

 Molecular mass:   267.15829 amu.
 Principal axes and moments of inertia in atomic units:
                           1         2         3
     Eigenvalues --  2819.084707759.827258535.60625
           X            0.99988   0.01498  -0.00350
           Y           -0.01481   0.99886   0.04539
           Z            0.00417  -0.04533   0.99896
 This molecule is an asymmetric top.
 Rotational symmetry number  1.
 Warning -- assumption of classical behavior for rotation
           may cause significant error
 Rotational temperatures (Kelvin)      0.03072     0.01116     0.01015
 Rotational constants (GHZ):           0.64019     0.23257     0.21144
 Zero-point vibrational energy     900186.9 (Joules/Mol)
                                  215.14983 (Kcal/Mol)
 Warning -- explicit consideration of  30 degrees of freedom as
           vibrations may cause significant error
 Vibrational temperatures:     28.67    48.64    62.40    82.90    95.91
          (Kelvin)            123.43   163.49   205.48   215.20   250.92
                              296.72   299.51   330.03   356.06   378.33
                              381.32   399.63   448.16   484.94   493.02
                              514.78   520.15   601.33   643.35   698.27
                              724.96   754.50   776.14   782.50   874.05
                              915.01   941.20   966.23  1008.61  1073.31
                             1146.68  1158.06  1176.62  1231.87  1256.12
                             1278.17  1288.83  1345.45  1351.09  1374.27
                             1412.26  1437.26  1449.51  1463.67  1520.62
                             1543.97  1577.97  1590.98  1613.48  1628.34
                             1650.22  1696.51  1718.10  1725.29  1732.41
                             1801.64  1806.96  1847.78  1860.90  1903.08
                             1931.60  1952.35  1955.35  1984.95  1987.69
                             2020.76  2032.64  2049.96  2055.55  2065.29
                             2069.45  2074.21  2111.53  2136.25  2151.68
                             2160.79  2170.32  2179.52  2189.38  2192.17
                             2193.29  2198.19  2201.89  2214.54  2217.80
                             2244.96  2361.92  2367.62  4306.69  4322.51
                             4339.08  4400.81  4402.06  4406.55  4412.55
                             4420.08  4446.45  4491.52  4493.16  4517.78
                             4518.00  4528.70  4532.18  4535.98  4543.38
                             4550.41  4558.11  4572.08  5238.24

 Zero-point correction=                           0.342863 (Hartree/Particle)
 Thermal correction to Energy=                    0.362231
 Thermal correction to Enthalpy=                  0.363175
 Thermal correction to Gibbs Free Energy=         0.293946
 Sum of electronic and zero-point Energies=           -897.697207
 Sum of electronic and thermal Energies=              -897.677839
 Sum of electronic and thermal Enthalpies=            -897.676895
 Sum of electronic and thermal Free Energies=         -897.746124

                     E (Thermal)             CV                S
                      KCal/Mol        Cal/Mol-Kelvin    Cal/Mol-Kelvin
 Total                  227.303             72.790            145.704
 Electronic               0.000              0.000              0.000
 Translational            0.889              2.981             42.647
 Rotational               0.889              2.981             33.590
 Vibrational            225.526             66.828             69.467
 Vibration     1          0.593              1.986              6.641
 Vibration     2          0.594              1.983              5.593
 Vibration     3          0.595              1.980              5.099
 Vibration     4          0.596              1.974              4.537
 Vibration     5          0.598              1.970              4.250
 Vibration     6          0.601              1.959              3.754
 Vibration     7          0.607              1.938              3.206
 Vibration     8          0.616              1.910              2.766
 Vibration     9          0.618              1.903              2.678
 Vibration    10          0.627              1.874              2.388
 Vibration    11          0.641              1.831              2.077
 Vibration    12          0.641              1.828              2.060
 Vibration    13          0.652              1.796              1.884
 Vibration    14          0.661              1.767              1.749
 Vibration    15          0.670              1.741              1.642
 Vibration    16          0.671              1.737              1.628
 Vibration    17          0.679              1.715              1.547
 Vibration    18          0.700              1.652              1.354
 Vibration    19          0.718              1.601              1.226
 Vibration    20          0.722              1.590              1.200
 Vibration    21          0.733              1.559              1.132
 Vibration    22          0.736              1.552              1.116
 Vibration    23          0.781              1.431              0.899
 Vibration    24          0.806              1.367              0.804
 Vibration    25          0.841              1.283              0.696
 Vibration    26          0.859              1.241              0.649
 Vibration    27          0.879              1.196              0.600
 Vibration    28          0.894              1.163              0.566
 Vibration    29          0.899              1.153              0.557
 Vibration    30          0.966              1.016              0.437

                           ! Non-Optimized Parameters !
 Normal termination of Gaussian 16 at Sun Dec 13 16:42:56 2020.

 ----------------------------------------------------------------------
 # B3LYP/6-311++G(d,p) empiricaldispersion=gd3bj scf=xqc pop=npa geom=c
 heck
 ----------------------------------------------------------------------

 ---------------------------------------
 CID_107389729_JID_9274_Energie_neutraal
 ---------------------------------------
 Structure from the checkpoint file:  "JID_9274.chk"
 Charge =  0 Multiplicity = 1

 SCF Done:  E(RB3LYP) =  -898.289880920     A.U. after   14 cycles
 Normal termination of Gaussian 16 at Sun Dec 13 16:52:57 2020.

 ----------------------------------------------------------------------
 # B3LYP/6-311++G(d,p) empiricaldispersion=gd3bj scf=xqc pop=npa geom=c
 heck
 ----------------------------------------------------------------------

 -------------------------------------
 CID_107389729_JID_9274_Energie_kation
 -------------------------------------
 Structure from the checkpoint file:  "JID_9274.chk"
 Charge =  1 Multiplicity = 2

 SCF Done:  E(UB3LYP) =  -898.004840175     A.U. after   22 cycles
 Normal termination of Gaussian 16 at Sun Dec 13 17:15:21 2020.
 Gaussian 16:  ES64L-G16RevA.03 25-Dec-2016

 ----------------------------------------------------------------------
 # B3LYP/6-311++G(d,p) empiricaldispersion=gd3bj scf=xqc pop=npa geom=c
 heck
 ----------------------------------------------------------------------

 ------------------------------------
 CID_107389729_JID_9274_Energie_anion
 ------------------------------------
 Structure from the checkpoint file:  "JID_9274.chk"
 Charge = -1 Multiplicity = 2

                         Standard orientation:
 ---------------------------------------------------------------------
 Center     Atomic      Atomic             Coordinates (Angstroms)
 Number     Number       Type             X           Y           Z
 ---------------------------------------------------------------------
      1          6           0        4.280565    2.153714    0.055770
      2          6           0        4.580534    0.690195   -0.227954
      3          8           0        3.455422    0.027962   -0.839592
      4          6           0        2.451285   -0.392776   -0.040467
      5          7           0        2.563220   -0.232481    1.283951
      6          6           0        1.534545   -0.686677    2.004432
      7          7           0        0.421986   -1.253487    1.560461
      8          6           0        0.320925   -1.385868    0.221491
      9          6           0        1.342337   -0.978746   -0.660112
     10          6           0        1.235515   -1.148525   -2.149988
     11          7           0       -0.817618   -1.978009   -0.268687
     12          6           0       -2.043296   -2.064474    0.501922
     13          6           0       -2.935077   -0.819792    0.405829
     14          6           0       -3.384760   -0.420710   -1.004918
     15          8           0       -3.503950    0.988347   -0.924594
     16          6           0       -2.503841    1.437976   -0.006942
     17          8           0       -2.220699    0.325499    0.852200
     18          6           0       -1.221350    1.823367   -0.740815
     19          6           0       -3.092847    2.577277    0.809410
     20          1           0        3.955071    2.664866   -0.856312
     21          1           0        5.180982    2.654293    0.430305
     22          1           0        3.496384    2.240339    0.812086
     23          1           0        5.379974    0.584060   -0.965961
     24          1           0        4.857619    0.160689    0.686221
     25          1           0        1.620676   -0.574477    3.083934
     26          1           0        0.366229   -0.613484   -2.560744
     27          1           0        2.125409   -0.757448   -2.644106
     28          1           0        1.130508   -2.205605   -2.430779
     29          1           0       -0.912418   -1.973453   -1.272827
     30          1           0       -2.614643   -2.939777    0.168822
     31          1           0       -1.760261   -2.216762    1.543776
     32          1           0       -3.816760   -0.980395    1.046171
     33          1           0       -4.355597   -0.835781   -1.287214
     34          1           0       -2.642420   -0.712271   -1.764904
     35          1           0       -0.431128    2.053592   -0.020504
     36          1           0       -0.877661    0.992865   -1.362940
     37          1           0       -1.391994    2.695977   -1.378802
     38          1           0       -3.988555    2.227984    1.329576
     39          1           0       -2.364497    2.925575    1.547385
     40          1           0       -3.363445    3.412826    0.156674
 ---------------------------------------------------------------------

 SCF Done:  E(UB3LYP) =  -898.278424845     A.U. after   32 cycles

 The electronic state is 2-A.
 Alpha  occ. eigenvalues --  -19.06843 -19.04044 -19.03422 -14.24058 -14.21112
 Alpha  occ. eigenvalues --  -14.20764 -10.18713 -10.17746 -10.15877 -10.14337
 Alpha  occ. eigenvalues --  -10.13872 -10.13509 -10.12642 -10.11182 -10.08865
 Alpha  occ. eigenvalues --  -10.07850 -10.07696 -10.07625 -10.06987  -1.00181
 Alpha  occ. eigenvalues --   -0.99246  -0.90881  -0.89521  -0.84690  -0.77675
 Alpha  occ. eigenvalues --   -0.72533  -0.71103  -0.67597  -0.64622  -0.61479
 Alpha  occ. eigenvalues --   -0.61284  -0.59646  -0.56968  -0.54264  -0.52980
 Alpha  occ. eigenvalues --   -0.50595  -0.49045  -0.46142  -0.44882  -0.42694
 Alpha  occ. eigenvalues --   -0.41170  -0.40420  -0.38529  -0.37926  -0.37008
 Alpha  occ. eigenvalues --   -0.35894  -0.35336  -0.34879  -0.33720  -0.33534
 Alpha  occ. eigenvalues --   -0.33176  -0.32636  -0.31701  -0.31305  -0.30596
 Alpha  occ. eigenvalues --   -0.30275  -0.29908  -0.29781  -0.29037  -0.28573
 Alpha  occ. eigenvalues --   -0.27663  -0.26556  -0.25254  -0.24850  -0.24774
 Alpha  occ. eigenvalues --   -0.22667  -0.20562  -0.18250  -0.17461  -0.16898
 Alpha  occ. eigenvalues --   -0.16189  -0.12978   0.04061
 Alpha virt. eigenvalues --    0.05485   0.06582   0.06961   0.07281   0.07889
 Alpha virt. eigenvalues --    0.08120   0.08696   0.08745   0.09204   0.09321
 Alpha virt. eigenvalues --    0.09927   0.10607   0.10886   0.11185   0.11458

  Beta  occ. eigenvalues --  -19.06839 -19.04040 -19.03418 -14.24036 -14.21109
  Beta  occ. eigenvalues --  -14.20760 -10.18712 -10.17746 -10.15877 -10.14336
  Beta  occ. eigenvalues --  -10.13861 -10.13500 -10.12599 -10.11161 -10.08862
  Beta  occ. eigenvalues --  -10.07832 -10.07654 -10.07616 -10.06971  -1.00171
  Beta  occ. eigenvalues --   -0.99239  -0.90869  -0.89511  -0.84665  -0.77663
  Beta  occ. eigenvalues --   -0.72512  -0.71084  -0.67572  -0.64590  -0.61440
  Beta  occ. eigenvalues --   -0.61258  -0.59598  -0.56931  -0.54226  -0.52943
  Beta  occ. eigenvalues --   -0.50559  -0.49027  -0.46116  -0.44864  -0.42660
  Beta  occ. eigenvalues --   -0.41148  -0.40374  -0.38500  -0.37900  -0.36974
  Beta  occ. eigenvalues --   -0.35859  -0.35318  -0.34866  -0.33678  -0.33498
  Beta  occ. eigenvalues --   -0.33151  -0.32603  -0.31677  -0.31275  -0.30574
  Beta  occ. eigenvalues --   -0.30251  -0.29881  -0.29752  -0.29013  -0.28549
  Beta  occ. eigenvalues --   -0.27644  -0.26535  -0.25235  -0.24836  -0.24752
  Beta  occ. eigenvalues --   -0.22651  -0.20548  -0.18226  -0.17447  -0.16888
  Beta  occ. eigenvalues --   -0.16176  -0.12953
  Beta virt. eigenvalues --    0.05891   0.06565   0.07152   0.07337   0.07563
  Beta virt. eigenvalues --    0.08184   0.08238   0.08721   0.09083   0.09446
  Beta virt. eigenvalues --    0.09846   0.10280   0.10703   0.11130   0.11455

 Mulliken charges and spin densities:
               1          2
     1  C    0.164199  -0.524489
     2  C   -0.113571  -0.094956
     3  O   -0.087792   0.028543
     4  C    0.185724  -0.300756
     5  N   -0.118407   0.022111
     6  C    0.089468  -0.075859
     7  N   -0.103548   0.017307
     8  C   -0.586219   0.021739
     9  C   -1.003412   1.471892
    10  C    1.866920  -2.720121
    11  N   -0.026008   0.036959
    12  C    0.407340  -1.121808
    13  C   -0.563006   1.009826
    14  C    1.073276  -1.340828
    15  O   -0.014416   0.037799
    16  C   -0.801279  -0.146108
    17  O    0.119838  -0.009105
    18  C   -0.513568   0.421779
    19  C    0.296585  -0.710054
    20  H    0.040842   0.101183
    21  H   -0.193138   0.328226
    22  H    0.054478   0.099837
    23  H   -0.230302   0.395112
    24  H    0.194482  -0.026141
    25  H    0.158264   0.021323
    26  H   -0.411972   0.551911
    27  H    0.040045   0.150244
    28  H   -0.317210   0.503104
    29  H   -0.109487   0.413656
    30  H   -0.687125   0.865884
    31  H    0.281828  -0.047127
    32  H   -0.187614   0.378266
    33  H   -0.751791   0.960623
    34  H   -0.027096   0.184283
    35  H    0.135624   0.050816
    36  H    0.553215  -0.398810
    37  H   -0.090588   0.256718
    38  H    0.054638   0.102172
    39  H    0.116671   0.035397
    40  H    0.104112   0.049451
 Sum of Mulliken charges =  -1.00000   1.00000

 Dipole moment (field-independent basis, Debye):
    X=              2.8911    Y=              3.6015    Z=              4.5771  Tot=              6.5022
 Quadrupole moment (field-independent basis, Debye-Ang):
   XX=           -203.1148   YY=           -162.4941   ZZ=           -157.4187
   XY=            -17.4646   XZ=             -5.1184   YZ=             -7.4874

 Summary of Natural Population Analysis:

                                       Natural Population
                Natural  -----------------------------------------------
    Atom  No    Charge         Core      Valence    Rydberg      Total
 -----------------------------------------------------------------------
      C    1   -0.29924      0.99966     2.29547    0.00411     3.29924
      C    2   -0.01452      0.99957     2.00290    0.01205     3.01452
      O    3   -0.27631      0.99985     3.26731    0.00915     4.27631
      C    4    0.28254      0.99940     1.70045    0.01761     2.71746
      N    5   -0.29840      0.99966     2.78979    0.00895     3.79840
      C    6    0.15272      0.99967     1.82950    0.01811     2.84728
      N    7   -0.27343      0.99967     2.76476    0.00901     3.77343
      C    8    0.22105      0.99949     1.76369    0.01577     2.77895
      C    9   -0.09143      0.99943     2.08255    0.00945     3.09143
      C   10   -0.30053      0.99964     2.29433    0.00656     3.30053
      N   11   -0.30811      0.99966     2.79588    0.01257     3.80811
      C   12   -0.09804      0.99958     2.08557    0.01290     3.09804
      C   13    0.05109      0.99955     1.93415    0.01521     2.94891
      C   14   -0.02089      0.99955     2.00819    0.01315     3.02089
      O   15   -0.30515      0.99987     3.29650    0.00878     4.30515
      C   16    0.29303      0.99959     1.68709    0.02030     2.70697
      O   17   -0.31079      0.99987     3.30177    0.00915     4.31079
      C   18   -0.30293      0.99958     2.29659    0.00676     3.30293
      C   19   -0.29586      0.99959     2.29035    0.00593     3.29586
      H   20    0.10001      0.00000     0.39866    0.00133     0.39999
      H   21    0.09931      0.00000     0.39952    0.00117     0.40069
      H   22    0.10661      0.00000     0.39189    0.00150     0.39339
      H   23    0.08893      0.00000     0.40991    0.00117     0.41107
      H   24    0.09440      0.00000     0.40399    0.00161     0.40560
      H   25    0.08040      0.00000     0.41862    0.00098     0.41960
      H   26    0.10284      0.00000     0.39550    0.00166     0.39716
      H   27    0.11671      0.00000     0.38187    0.00142     0.38329
      H   28    0.10698      0.00000     0.39160    0.00142     0.39302
      H   29    0.19704      0.00000     0.29810    0.00487     0.30296
      H   30    0.10277      0.00000     0.39534    0.00189     0.39723
      H   31    0.11489      0.00000     0.38321    0.00190     0.38511
      H   32    0.08487      0.00000     0.41374    0.00140     0.41513
      H   33    0.09908      0.00000     0.39830    0.00262     0.40092
      H   34    0.07947      0.00000     0.41797    0.00256     0.42053
      H   35    0.10536      0.00000     0.39370    0.00094     0.39464
      H   36    0.10432      0.00000     0.39414    0.00154     0.39568
      H   37    0.10094      0.00000     0.39823    0.00083     0.39906
      H   38    0.10545      0.00000     0.39349    0.00105     0.39455
      H   39    0.10275      0.00000     0.39644    0.00080     0.39725
      H   40    0.10209      0.00000     0.39706    0.00085     0.39791
 =======================================================================
   * Total *    0.00000     18.99290    52.75811    0.24900    72.00000

 Normal termination of Gaussian 16 at Sun Dec 13 17:46:31 2020.
