 Gaussian 16, Revision A.03,

 -----------------------------------------------------------
 # opt freq B3LYP/6-31G(d) empiricaldispersion=gd3bj scf=xqc
 -----------------------------------------------------------

 -----------------------------
 CID_54310968_JID_339_neutraal
 -----------------------------
 Symbolic Z-matrix:
 Charge =  0 Multiplicity = 1

 SCF Done:  E(RB3LYP) =  -489.501543554     A.U. after   17 cycles
 SCF Done:  E(RB3LYP) =  -489.504492870     A.U. after   16 cycles
 SCF Done:  E(RB3LYP) =  -489.505307232     A.U. after   16 cycles
 SCF Done:  E(RB3LYP) =  -489.505628327     A.U. after   15 cycles
 SCF Done:  E(RB3LYP) =  -489.505799427     A.U. after   17 cycles
 SCF Done:  E(RB3LYP) =  -489.505882382     A.U. after   13 cycles
 SCF Done:  E(RB3LYP) =  -489.505895874     A.U. after   13 cycles
 SCF Done:  E(RB3LYP) =  -489.505908361     A.U. after   11 cycles
 SCF Done:  E(RB3LYP) =  -489.505914525     A.U. after   12 cycles
 SCF Done:  E(RB3LYP) =  -489.505916462     A.U. after   12 cycles
 SCF Done:  E(RB3LYP) =  -489.505917151     A.U. after   10 cycles
 SCF Done:  E(RB3LYP) =  -489.505917233     A.U. after   10 cycles
 Optimization completed.
    -- Stationary point found.
 Normal termination of Gaussian 16 at Tue Dec  8 10:24:24 2020.

 --------------------------------------------------------------------
 #N Geom=AllCheck Guess=TCheck SCRF=Check GenChk RB3LYP/6-31G(d) Freq
 --------------------------------------------------------------------

 Structure from the checkpoint file:  "JID_339.chk"
 -----------------------------
 CID_54310968_JID_339_neutraal
 -----------------------------
 Charge =  0 Multiplicity = 1

 SCF Done:  E(RB3LYP) =  -489.505917233     A.U. after    1 cycles

  Exact polarizability:  94.009  -5.205  73.548   9.384   2.438  56.903
 Approx polarizability: 136.480 -10.587 122.925  18.079   9.769  87.279

                      1                      2                      3
                      A                      A                      A
 Frequencies --     43.4124                70.0571                76.1928
 Red. masses --      5.2151                 6.1430                 4.6089
 Frc consts  --      0.0058                 0.0178                 0.0158
 IR Inten    --      2.4616                 0.4285                 4.2786

                      4                      5                      6
                      A                      A                      A
 Frequencies --     96.8069               209.5099               268.2034
 Red. masses --      5.3194                 1.1066                 4.8839
 Frc consts  --      0.0294                 0.0286                 0.2070
 IR Inten    --      0.1828                 0.1972                 0.0775

                      7                      8                      9
                      A                      A                      A
 Frequencies --    283.9860               365.8344               385.8426
 Red. masses --      3.9983                 2.9063                 2.3093
 Frc consts  --      0.1900                 0.2292                 0.2026
 IR Inten    --      1.2177                 4.2443                 4.7601

                     10                     11                     12
                      A                      A                      A
 Frequencies --    437.1370               621.2273               664.0657
 Red. masses --      5.2450                 4.2308                 4.2951
 Frc consts  --      0.5905                 0.9620                 1.1160
 IR Inten    --      1.0276                 0.2676                 8.2469

                     13                     14                     15
                      A                      A                      A
 Frequencies --    694.8688               731.0119               826.3349
 Red. masses --      3.5177                 4.5232                 2.4637
 Frc consts  --      1.0007                 1.4241                 0.9912
 IR Inten    --     24.4436                11.1781                21.6731

                     16                     17                     18
                      A                      A                      A
 Frequencies --    842.5746               892.1149               897.5860
 Red. masses --      1.4295                 1.3882                 2.2789
 Frc consts  --      0.5979                 0.6509                 1.0818
 IR Inten    --     11.7049                 4.6322                 9.1537

                     19                     20                     21
                      A                      A                      A
 Frequencies --    945.5262               974.4072              1027.6272
 Red. masses --      1.6772                 6.3803                 4.6487
 Frc consts  --      0.8835                 3.5692                 2.8924
 IR Inten    --      6.0862                11.7043                30.0049

                     22                     23                     24
                      A                      A                      A
 Frequencies --   1077.6423              1097.8320              1125.2248
 Red. masses --      2.2096                 1.5634                 2.5183
 Frc consts  --      1.5119                 1.1102                 1.8786
 IR Inten    --      7.8465                 2.0128                 4.8393

                     25                     26                     27
                      A                      A                      A
 Frequencies --   1172.6013              1210.9870              1238.0603
 Red. masses --      1.9686                 1.5909                 1.6341
 Frc consts  --      1.5948                 1.3746                 1.4758
 IR Inten    --     26.2215                 0.5167                22.5557

                     28                     29                     30
                      A                      A                      A
 Frequencies --   1314.3111              1322.4727              1344.6256
 Red. masses --      2.1778                 1.8355                 1.6844
 Frc consts  --      2.2165                 1.8914                 1.7944
 IR Inten    --     10.8529                23.8656                 9.0810

                     31                     32                     33
                      A                      A                      A
 Frequencies --   1363.1444              1401.7704              1412.2241
 Red. masses --      2.0322                 1.9328                 1.9380
 Frc consts  --      2.2248                 2.2376                 2.2773
 IR Inten    --      0.3265                27.6044                 7.4481

                     34                     35                     36
                      A                      A                      A
 Frequencies --   1435.3724              1468.5793              1502.3351
 Red. masses --      1.2463                 3.3366                 1.1545
 Frc consts  --      1.5129                 4.2398                 1.5353
 IR Inten    --     10.0288                20.4542                 6.2506

                     37                     38                     39
                      A                      A                      A
 Frequencies --   1511.9326              1529.4291              1558.5055
 Red. masses --      1.0561                 1.0535                 3.9698
 Frc consts  --      1.4223                 1.4519                 5.6812
 IR Inten    --     13.1771                 6.5594                51.1454

                     40                     41                     42
                      A                      A                      A
 Frequencies --   1682.1004              3069.9628              3071.9547
 Red. masses --     13.5159                 1.0761                 1.0413
 Frc consts  --     22.5319                 5.9753                 5.7897
 IR Inten    --     82.2136                10.8407                 7.9467

                     43                     44                     45
                      A                      A                      A
 Frequencies --   3088.6679              3149.3283              3151.7517
 Red. masses --      1.0666                 1.1033                 1.1040
 Frc consts  --      5.9951                 6.4472                 6.4615
 IR Inten    --     24.7246                 6.5511                15.2165

                     46                     47                     48
                      A                      A                      A
 Frequencies --   3155.5374              3278.3532              3290.0769
 Red. masses --      1.1013                 1.0964                 1.0991
 Frc consts  --      6.4608                 6.9427                 7.0099
 IR Inten    --      3.1784                 5.7983                 0.5436

 - Thermochemistry -
 -------------------
 Temperature   298.150 Kelvin.  Pressure   1.00000 Atm.
 Atom     1 has atomic number  6 and mass  12.00000

 Molecular mass:   140.06981 amu.
 Principal axes and moments of inertia in atomic units:
                           1         2         3
     Eigenvalues --   615.235282100.952312303.91758
           X            0.99986   0.01649   0.00235
           Y           -0.01631   0.99772  -0.06545
           Z           -0.00342   0.06540   0.99785
 This molecule is an asymmetric top.
 Rotational symmetry number  1.
 Warning -- assumption of classical behavior for rotation
           may cause significant error
 Rotational temperatures (Kelvin)      0.14078     0.04123     0.03759
 Rotational constants (GHZ):           2.93342     0.85901     0.78334
 Zero-point vibrational energy     373109.9 (Joules/Mol)
                                   89.17542 (Kcal/Mol)
 Warning -- explicit consideration of  10 degrees of freedom as
           vibrations may cause significant error
 Vibrational temperatures:     62.46   100.80   109.62   139.28   301.44
          (Kelvin)            385.88   408.59   526.35   555.14   628.94
                              893.81   955.44   999.76  1051.76  1188.91
                             1212.28  1283.55  1291.43  1360.40  1401.95
                             1478.53  1550.49  1579.54  1618.95  1687.11
                             1742.34  1781.29  1891.00  1902.74  1934.62
                             1961.26  2016.83  2031.88  2065.18  2112.96
                             2161.53  2175.33  2200.51  2242.34  2420.17
                             4416.99  4419.86  4443.90  4531.18  4534.67
                             4540.11  4716.82  4733.69

 Zero-point correction=                           0.142110 (Hartree/Particle)
 Thermal correction to Energy=                    0.151566
 Thermal correction to Enthalpy=                  0.152510
 Thermal correction to Gibbs Free Energy=         0.106003
 Sum of electronic and zero-point Energies=           -489.363807
 Sum of electronic and thermal Energies=              -489.354351
 Sum of electronic and thermal Enthalpies=            -489.353407
 Sum of electronic and thermal Free Energies=         -489.399914

                     E (Thermal)             CV                S
                      KCal/Mol        Cal/Mol-Kelvin    Cal/Mol-Kelvin
 Total                   95.109             33.085             97.883
 Electronic               0.000              0.000              0.000
 Translational            0.889              2.981             40.722
 Rotational               0.889              2.981             29.478
 Vibrational             93.332             27.123             27.683
 Vibration     1          0.595              1.980              5.097
 Vibration     2          0.598              1.968              4.152
 Vibration     3          0.599              1.965              3.987
 Vibration     4          0.603              1.951              3.518
 Vibration     5          0.642              1.826              2.048
 Vibration     6          0.673              1.732              1.608
 Vibration     7          0.682              1.703              1.510
 Vibration     8          0.739              1.543              1.097
 Vibration     9          0.755              1.500              1.016
 Vibration    10          0.797              1.389              0.836

 Optimization completed.
    -- Stationary point found.
 Normal termination of Gaussian 16 at Tue Dec  8 10:27:18 2020.

 ----------------------------------------------------------------------
 # B3LYP/6-311++G(d,p) empiricaldispersion=gd3bj scf=xqc pop=npa geom=c
 heck
 ----------------------------------------------------------------------

 -------------------------------------
 CID_54310968_JID_339_Energie_neutraal
 -------------------------------------
 Structure from the checkpoint file:  "JID_339.chk"
 Charge =  0 Multiplicity = 1

 SCF Done:  E(RB3LYP) =  -489.644078302     A.U. after   15 cycles
 Normal termination of Gaussian 16 at Tue Dec  8 10:28:18 2020.

 ----------------------------------------------------------------------
 # B3LYP/6-311++G(d,p) empiricaldispersion=gd3bj scf=xqc pop=npa geom=c
 heck
 ----------------------------------------------------------------------

 -----------------------------------
 CID_54310968_JID_339_Energie_kation
 -----------------------------------
 Structure from the checkpoint file:  "JID_339.chk"
 Charge =  1 Multiplicity = 2

 SCF Done:  E(UB3LYP) =  -489.309360555     A.U. after   29 cycles
 Normal termination of Gaussian 16 at Tue Dec  8 10:30:46 2020.
 Gaussian 16:  ES64L-G16RevA.03 25-Dec-2016

 ----------------------------------------------------------------------
 # B3LYP/6-311++G(d,p) empiricaldispersion=gd3bj scf=xqc pop=npa geom=c
 heck
 ----------------------------------------------------------------------

 ----------------------------------
 CID_54310968_JID_339_Energie_anion
 ----------------------------------
 Structure from the checkpoint file:  "JID_339.chk"
 Charge = -1 Multiplicity = 2

                         Standard orientation:
 ---------------------------------------------------------------------
 Center     Atomic      Atomic             Coordinates (Angstroms)
 Number     Number       Type             X           Y           Z
 ---------------------------------------------------------------------
      1          6           0        1.199510    1.384397   -0.971609
      2          6           0        1.536485    0.576385    0.285270
      3          6           0        0.346290    0.401303    1.240103
      4          7           0       -0.878499    0.011534    0.566293
      5          6           0       -1.246944   -1.188346    0.057457
      6          7           0       -2.412135   -1.086948   -0.560827
      7          6           0       -2.716905    0.233702   -0.406619
      8          7           0       -1.822345    0.947364    0.262648
      9          7           0        1.953351   -0.791997   -0.170416
     10          8           0        3.153263   -0.924285   -0.249422
     11          1           0        0.465999    0.858461   -1.589093
     12          1           0        2.104874    1.548399   -1.562615
     13          1           0        0.772731    2.351727   -0.691276
     14          1           0        2.380141    1.024789    0.823559
     15          1           0        0.582108   -0.346103    2.004335
     16          1           0        0.135325    1.348235    1.740006
     17          1           0       -0.637192   -2.075256    0.151315
     18          1           0       -3.623313    0.679709   -0.792347
 ---------------------------------------------------------------------

 SCF Done:  E(UB3LYP) =  -489.672961953     A.U. after   28 cycles

 The electronic state is 2-A.
 Alpha  occ. eigenvalues --  -18.90076 -14.27774 -14.22309 -14.19007 -14.13488
 Alpha  occ. eigenvalues --  -10.11548 -10.10410 -10.08359 -10.03060 -10.01644
 Alpha  occ. eigenvalues --   -0.96033  -0.90236  -0.78818  -0.72528  -0.64944
 Alpha  occ. eigenvalues --   -0.57706  -0.51688  -0.50198  -0.47419  -0.42395
 Alpha  occ. eigenvalues --   -0.38555  -0.36457  -0.33166  -0.31274  -0.30053
 Alpha  occ. eigenvalues --   -0.29346  -0.28040  -0.23835  -0.23140  -0.22301
 Alpha  occ. eigenvalues --   -0.21625  -0.19667  -0.17710  -0.16895  -0.16338
 Alpha  occ. eigenvalues --   -0.14692   0.00675   0.05365
 Alpha virt. eigenvalues --    0.09056   0.09884   0.10882   0.11924   0.12030
 Alpha virt. eigenvalues --    0.13081   0.13645   0.14226   0.14419   0.15860
 Alpha virt. eigenvalues --    0.16557   0.16647   0.19253   0.19705   0.19986

  Beta  occ. eigenvalues --  -18.88915 -14.27776 -14.22308 -14.19007 -14.12269
  Beta  occ. eigenvalues --  -10.11548 -10.10409 -10.08326 -10.03113 -10.01586
  Beta  occ. eigenvalues --   -0.96031  -0.88010  -0.78809  -0.72504  -0.64657
  Beta  occ. eigenvalues --   -0.57553  -0.51339  -0.49836  -0.46936  -0.41713
  Beta  occ. eigenvalues --   -0.37914  -0.36433  -0.32899  -0.31114  -0.29883
  Beta  occ. eigenvalues --   -0.28955  -0.27072  -0.22968  -0.22713  -0.21825
  Beta  occ. eigenvalues --   -0.21332  -0.17853  -0.16891  -0.15661  -0.14594
  Beta  occ. eigenvalues --   -0.13813   0.02000
  Beta virt. eigenvalues --    0.09016   0.09862   0.10789   0.11908   0.11994
  Beta virt. eigenvalues --    0.13061   0.13592   0.14192   0.14410   0.15696
  Beta virt. eigenvalues --    0.16420   0.16547   0.18557   0.19624   0.19696

 Mulliken charges and spin densities:
               1          2
     1  C   -0.497234  -0.110007
     2  C    0.442096  -0.041232
     3  C   -0.657516   0.061564
     4  N    0.098519  -0.006727
     5  C   -0.015687   0.017598
     6  N   -0.185842  -0.001920
     7  C   -0.139281   0.003118
     8  N   -0.154569   0.001934
     9  N   -0.343480   0.617501
    10  O   -0.325437   0.368818
    11  H    0.112744   0.033108
    12  H    0.140057  -0.036383
    13  H    0.030715   0.074315
    14  H   -0.066778   0.022987
    15  H    0.126532  -0.010562
    16  H    0.156292   0.002711
    17  H    0.152588   0.001185
    18  H    0.126280   0.001993
 Sum of Mulliken charges =  -1.00000   1.00000

 Dipole moment (field-independent basis, Debye):
    X=             -6.4164    Y=              2.7888    Z=              2.2424  Tot=              7.3468
 Quadrupole moment (field-independent basis, Debye-Ang):
   XX=           -104.5633   YY=            -74.5358   ZZ=            -65.3573
   XY=              5.6661   XZ=              1.8822   YZ=             -3.2540

 Summary of Natural Population Analysis:

                                       Natural Population
                Natural  -----------------------------------------------
    Atom  No    Charge         Core      Valence    Rydberg      Total
 -----------------------------------------------------------------------
      C    1   -0.28804      0.99964     2.28081    0.00759     3.28804
      C    2   -0.07459      0.99962     2.05527    0.01970     3.07459
      C    3   -0.08395      0.99958     2.07080    0.01357     3.08395
      N    4   -0.11299      0.99966     2.59811    0.01522     3.61299
      C    5    0.11227      0.99964     1.86709    0.02100     2.88773
      N    6   -0.27307      0.99973     2.76416    0.00917     3.77307
      C    7    0.07667      0.99972     1.90527    0.01834     2.92333
      N    8   -0.16254      0.99974     2.65111    0.01170     3.66254
      N    9    0.13577      0.99978     2.32940    0.03505     3.36423
      O   10   -0.09086      0.99990     3.07828    0.01268     4.09086
      H   11    0.09846      0.00000     0.39992    0.00162     0.40154
      H   12    0.10019      0.00000     0.39769    0.00212     0.39981
      H   13    0.09151      0.00000     0.40724    0.00125     0.40849
      H   14    0.07392      0.00000     0.41375    0.01233     0.42608
      H   15    0.10145      0.00000     0.39653    0.00202     0.39855
      H   16    0.10101      0.00000     0.39777    0.00122     0.39899
      H   17    0.10823      0.00000     0.38798    0.00379     0.39177
      H   18    0.08658      0.00000     0.41256    0.00086     0.41342
 =======================================================================
   * Total *   -0.00000      9.99700    26.81375    0.18925    37.00000

 Normal termination of Gaussian 16 at Tue Dec  8 10:34:46 2020.
