 Gaussian 16, Revision A.03,

 -----------------------------------------------------------
 # opt freq B3LYP/6-31G(d) empiricaldispersion=gd3bj scf=xqc
 -----------------------------------------------------------

 -------------------------------
 CID_136956082_JID_3411_neutraal
 -------------------------------
 Symbolic Z-matrix:
 Charge =  0 Multiplicity = 1

 SCF Done:  E(RB3LYP) =  -627.434595321     A.U. after   15 cycles
 SCF Done:  E(RB3LYP) =  -627.443753830     A.U. after   12 cycles
 SCF Done:  E(RB3LYP) =  -627.444933576     A.U. after   12 cycles
 SCF Done:  E(RB3LYP) =  -627.445213524     A.U. after   12 cycles
 SCF Done:  E(RB3LYP) =  -627.445232052     A.U. after   11 cycles
 SCF Done:  E(RB3LYP) =  -627.445323127     A.U. after   10 cycles
 SCF Done:  E(RB3LYP) =  -627.445435373     A.U. after   11 cycles
 SCF Done:  E(RB3LYP) =  -627.445556959     A.U. after   12 cycles
 SCF Done:  E(RB3LYP) =  -627.445665413     A.U. after   11 cycles
 SCF Done:  E(RB3LYP) =  -627.445805615     A.U. after   11 cycles
 SCF Done:  E(RB3LYP) =  -627.446028250     A.U. after   10 cycles
 SCF Done:  E(RB3LYP) =  -627.446027089     A.U. after   10 cycles
 SCF Done:  E(RB3LYP) =  -627.446030651     A.U. after    9 cycles
 SCF Done:  E(RB3LYP) =  -627.446030670     A.U. after    7 cycles
 SCF Done:  E(RB3LYP) =  -627.446030693     A.U. after    7 cycles
 Optimization completed.
    -- Stationary point found.
 Normal termination of Gaussian 16 at Wed Dec  9 23:12:11 2020.

 --------------------------------------------------------------------
 #N Geom=AllCheck Guess=TCheck SCRF=Check GenChk RB3LYP/6-31G(d) Freq
 --------------------------------------------------------------------

 Structure from the checkpoint file:  "JID_3411.chk"
 -------------------------------
 CID_136956082_JID_3411_neutraal
 -------------------------------
 Charge =  0 Multiplicity = 1

 SCF Done:  E(RB3LYP) =  -627.446030693     A.U. after    1 cycles

  Exact polarizability: 150.525  -2.318 113.493   5.682  -5.965  72.557
 Approx polarizability: 202.151 -23.533 190.832   8.181 -15.672 105.150

                      1                      2                      3
                      A                      A                      A
 Frequencies --     42.3176                48.9238                87.7995
 Red. masses --      4.6899                 4.2128                 1.0755
 Frc consts  --      0.0049                 0.0059                 0.0049
 IR Inten    --      1.9546                 1.1901                 0.6966

                      4                      5                      6
                      A                      A                      A
 Frequencies --    117.5346               144.0999               158.7884
 Red. masses --      4.5227                 3.7343                 5.0509
 Frc consts  --      0.0368                 0.0457                 0.0750
 IR Inten    --      1.1014                 8.5896                 2.0038

                      7                      8                      9
                      A                      A                      A
 Frequencies --    183.1210               208.8821               221.3759
 Red. masses --      3.8952                 2.6612                 3.5179
 Frc consts  --      0.0770                 0.0684                 0.1016
 IR Inten    --      2.7634                 0.3596                 4.4953

                     10                     11                     12
                      A                      A                      A
 Frequencies --    238.6977               298.4739               345.2922
 Red. masses --      1.1070                 2.8017                 3.1755
 Frc consts  --      0.0372                 0.1471                 0.2231
 IR Inten    --      0.4662                 4.6811                15.7798

                     13                     14                     15
                      A                      A                      A
 Frequencies --    395.3731               419.3551               464.1649
 Red. masses --      2.8168                 3.8870                 1.3428
 Frc consts  --      0.2594                 0.4027                 0.1705
 IR Inten    --     20.7998                 0.7607                65.0342

                     16                     17                     18
                      A                      A                      A
 Frequencies --    514.8506               540.1913               558.7380
 Red. masses --      2.6347                 6.2357                 4.6006
 Frc consts  --      0.4115                 1.0721                 0.8462
 IR Inten    --      6.6421                 0.8102                30.8358

                     19                     20                     21
                      A                      A                      A
 Frequencies --    562.7609               572.5939               619.6110
 Red. masses --      3.7879                 2.6838                 1.5728
 Frc consts  --      0.7068                 0.5184                 0.3558
 IR Inten    --     11.7071                23.6861               112.3873

                     22                     23                     24
                      A                      A                      A
 Frequencies --    665.6011               714.6402               731.4605
 Red. masses --      1.6460                 2.8146                 2.8231
 Frc consts  --      0.4297                 0.8469                 0.8899
 IR Inten    --     84.7395                34.4996                27.4304

                     25                     26                     27
                      A                      A                      A
 Frequencies --    755.4046               817.0436               876.6116
 Red. masses --      3.0315                 1.9854                 1.9797
 Frc consts  --      1.0192                 0.7809                 0.8963
 IR Inten    --     10.3996                46.9027                 6.5175

                     28                     29                     30
                      A                      A                      A
 Frequencies --    935.3386               943.2232               951.0180
 Red. masses --      1.5221                 2.6734                 2.0268
 Frc consts  --      0.7845                 1.4013                 1.0801
 IR Inten    --      1.9504                16.9990                11.7085

                     31                     32                     33
                      A                      A                      A
 Frequencies --    987.6750              1039.4748              1076.3698
 Red. masses --      3.0088                 2.2428                 1.5891
 Frc consts  --      1.7293                 1.4278                 1.0847
 IR Inten    --     11.9917                 2.3061                 2.0998

                     34                     35                     36
                      A                      A                      A
 Frequencies --   1078.6192              1096.8651              1120.7610
 Red. masses --      2.3628                 3.7987                 2.3860
 Frc consts  --      1.6196                 2.6927                 1.7658
 IR Inten    --      4.0026               125.6894                 7.3163

                     37                     38                     39
                      A                      A                      A
 Frequencies --   1164.1670              1181.4580              1242.9169
 Red. masses --      2.0707                 1.9694                 2.0298
 Frc consts  --      1.6535                 1.6196                 1.8475
 IR Inten    --     35.9772                48.0168                30.1921

                     40                     41                     42
                      A                      A                      A
 Frequencies --   1248.7206              1284.3121              1299.1232
 Red. masses --      1.6620                 1.8907                 2.4198
 Frc consts  --      1.5269                 1.8375                 2.4062
 IR Inten    --     18.0343                12.4892                82.7565

                     43                     44                     45
                      A                      A                      A
 Frequencies --   1336.4434              1355.4851              1389.0791
 Red. masses --      1.3636                 1.6360                 1.3188
 Frc consts  --      1.4350                 1.7710                 1.4993
 IR Inten    --     11.5716                24.2577                40.6894

                     46                     47                     48
                      A                      A                      A
 Frequencies --   1419.5467              1432.7556              1435.5121
 Red. masses --      1.4979                 1.2725                 1.2917
 Frc consts  --      1.7784                 1.5391                 1.5682
 IR Inten    --     22.2465                 0.5626                 2.8941

                     49                     50                     51
                      A                      A                      A
 Frequencies --   1458.4070              1486.4646              1512.4940
 Red. masses --      1.3159                 1.7572                 1.0435
 Frc consts  --      1.6490                 2.2876                 1.4064
 IR Inten    --     93.3477                10.1034                 8.9675

                     52                     53                     54
                      A                      A                      A
 Frequencies --   1517.2263              1521.1451              1528.4405
 Red. masses --      1.5323                 1.0911                 1.0510
 Frc consts  --      2.0783                 1.4875                 1.4466
 IR Inten    --     20.3437                37.5519                 7.8746

                     55                     56                     57
                      A                      A                      A
 Frequencies --   1536.5751              1559.5671              1628.9902
 Red. masses --      1.2265                 1.5714                 5.9971
 Frc consts  --      1.7062                 2.2519                 9.3762
 IR Inten    --     78.7929               271.5419               181.9701

                     58                     59                     60
                      A                      A                      A
 Frequencies --   1676.8730              1805.5929              2953.5490
 Red. masses --      6.8302                 8.8282                 1.0737
 Frc consts  --     11.3158                16.9575                 5.5185
 IR Inten    --    364.5957               693.2064                73.0416

                     61                     62                     63
                      A                      A                      A
 Frequencies --   3050.6075              3057.3797              3090.3074
 Red. masses --      1.0368                 1.0396                 1.0845
 Frc consts  --      5.6849                 5.7257                 6.1022
 IR Inten    --     19.2954                11.7754                 8.1256

                     64                     65                     66
                      A                      A                      A
 Frequencies --   3107.0172              3112.8674              3120.8142
 Red. masses --      1.0915                 1.1011                 1.0997
 Frc consts  --      6.2082                 6.2863                 6.3103
 IR Inten    --     18.8691                 9.5468                43.8958

                     67                     68                     69
                      A                      A                      A
 Frequencies --   3135.2856              3181.2238              3256.3599
 Red. masses --      1.1022                 1.0994                 1.0910
 Frc consts  --      6.3838                 6.5555                 6.8160
 IR Inten    --     21.3904                 3.1484                 4.0032

                     70                     71                     72
                      A                      A                      A
 Frequencies --   3548.8213              3592.2335              3687.2734
 Red. masses --      1.0748                 1.0780                 1.0651
 Frc consts  --      7.9750                 8.1960                 8.5317
 IR Inten    --     21.4053                49.1051                44.2514

 - Thermochemistry -
 -------------------
 Temperature   298.150 Kelvin.  Pressure   1.00000 Atm.
 Atom     1 has atomic number  6 and mass  12.00000

 Molecular mass:   183.10078 amu.
 Principal axes and moments of inertia in atomic units:
                           1         2         3
     Eigenvalues --  1374.390534223.601454853.55192
           X            0.99949   0.03043   0.01019
           Y           -0.03058   0.99942   0.01529
           Z           -0.00972  -0.01559   0.99983
 This molecule is an asymmetric top.
 Rotational symmetry number  1.
 Warning -- assumption of classical behavior for rotation
           may cause significant error
 Rotational temperatures (Kelvin)      0.06302     0.02051     0.01785
 Rotational constants (GHZ):           1.31312     0.42730     0.37184
 Zero-point vibrational energy     570906.3 (Joules/Mol)
                                  136.44989 (Kcal/Mol)
 Warning -- explicit consideration of  21 degrees of freedom as
           vibrations may cause significant error
 Vibrational temperatures:     60.89    70.39   126.32   169.11   207.33
          (Kelvin)            228.46   263.47   300.53   318.51   343.43
                              429.44   496.80   568.85   603.36   667.83
                              740.76   777.21   803.90   809.69   823.83
                              891.48   957.65  1028.21  1052.41  1086.86
                             1175.54  1261.25  1345.74  1357.09  1368.30
                             1421.04  1495.57  1548.66  1551.89  1578.14
                             1612.53  1674.98  1699.85  1788.28  1796.63
                             1847.84  1869.15  1922.84  1950.24  1998.58
                             2042.41  2061.42  2065.38  2098.32  2138.69
                             2176.14  2182.95  2188.59  2199.08  2210.79
                             2243.87  2343.75  2412.65  2597.85  4249.50
                             4389.14  4398.89  4446.26  4470.30  4478.72
                             4490.16  4510.98  4577.07  4685.18  5105.96
                             5168.42  5305.16

 Zero-point correction=                           0.217447 (Hartree/Particle)
 Thermal correction to Energy=                    0.230669
 Thermal correction to Enthalpy=                  0.231613
 Thermal correction to Gibbs Free Energy=         0.177150
 Sum of electronic and zero-point Energies=           -627.228584
 Sum of electronic and thermal Energies=              -627.215362
 Sum of electronic and thermal Enthalpies=            -627.214418
 Sum of electronic and thermal Free Energies=         -627.268880

                     E (Thermal)             CV                S
                      KCal/Mol        Cal/Mol-Kelvin    Cal/Mol-Kelvin
 Total                  144.747             49.080            114.626
 Electronic               0.000              0.000              0.000
 Translational            0.889              2.981             41.521
 Rotational               0.889              2.981             31.711
 Vibrational            142.969             43.118             41.394
 Vibration     1          0.595              1.980              5.148
 Vibration     2          0.595              1.978              4.860
 Vibration     3          0.601              1.958              3.709
 Vibration     4          0.608              1.935              3.141
 Vibration     5          0.616              1.909              2.749
 Vibration     6          0.621              1.893              2.564
 Vibration     7          0.631              1.863              2.296
 Vibration     8          0.642              1.827              2.053
 Vibration     9          0.648              1.809              1.948
 Vibration    10          0.657              1.781              1.813
 Vibration    11          0.692              1.677              1.425
 Vibration    12          0.724              1.585              1.188
 Vibration    13          0.762              1.480              0.980
 Vibration    14          0.782              1.428              0.894
 Vibration    15          0.822              1.330              0.754
 Vibration    16          0.870              1.217              0.622
 Vibration    17          0.895              1.161              0.565
 Vibration    18          0.914              1.121              0.526
 Vibration    19          0.918              1.112              0.518
 Vibration    20          0.929              1.091              0.499
 Vibration    21          0.980              0.990              0.417

 Optimization completed.
    -- Stationary point found.
 Normal termination of Gaussian 16 at Wed Dec  9 23:17:55 2020.

 ----------------------------------------------------------------------
 # B3LYP/6-311++G(d,p) empiricaldispersion=gd3bj scf=xqc pop=npa geom=c
 heck
 ----------------------------------------------------------------------

 ---------------------------------------
 CID_136956082_JID_3411_Energie_neutraal
 ---------------------------------------
 Structure from the checkpoint file:  "JID_3411.chk"
 Charge =  0 Multiplicity = 1

 SCF Done:  E(RB3LYP) =  -627.641429202     A.U. after   15 cycles
 Normal termination of Gaussian 16 at Wed Dec  9 23:20:39 2020.

 ----------------------------------------------------------------------
 # B3LYP/6-311++G(d,p) empiricaldispersion=gd3bj scf=xqc pop=npa geom=c
 heck
 ----------------------------------------------------------------------

 -------------------------------------
 CID_136956082_JID_3411_Energie_kation
 -------------------------------------
 Structure from the checkpoint file:  "JID_3411.chk"
 Charge =  1 Multiplicity = 2

 SCF Done:  E(UB3LYP) =  -627.339922397     A.U. after   24 cycles
 Normal termination of Gaussian 16 at Wed Dec  9 23:26:43 2020.
 Gaussian 16:  ES64L-G16RevA.03 25-Dec-2016

 ----------------------------------------------------------------------
 # B3LYP/6-311++G(d,p) empiricaldispersion=gd3bj scf=xqc pop=npa geom=c
 heck
 ----------------------------------------------------------------------

 ------------------------------------
 CID_136956082_JID_3411_Energie_anion
 ------------------------------------
 Structure from the checkpoint file:  "JID_3411.chk"
 Charge = -1 Multiplicity = 2

                         Standard orientation:
 ---------------------------------------------------------------------
 Center     Atomic      Atomic             Coordinates (Angstroms)
 Number     Number       Type             X           Y           Z
 ---------------------------------------------------------------------
      1          6           0       -3.242157   -2.106911    0.288301
      2          6           0       -2.248907   -0.994902    0.107883
      3          7           0       -0.972727   -1.242848    0.190654
      4          6           0       -0.108785   -0.176476    0.016196
      5          6           0       -0.531509    1.114904   -0.216044
      6          6           0       -1.931744    1.408048   -0.316209
      7          8           0       -2.473783    2.487242   -0.520106
      8          7           0       -2.740502    0.246801   -0.138702
      9          7           0        1.210494   -0.564263    0.076184
     10          6           0        2.322881    0.363337    0.288994
     11          6           0        2.428241    0.835056    1.741340
     12          6           0        3.592608   -0.335651   -0.204333
     13          8           0        3.502414   -0.684808   -1.569997
     14          1           0       -3.916165   -1.896422    1.127009
     15          1           0       -3.856655   -2.229589   -0.611350
     16          1           0       -2.706882   -3.036254    0.483871
     17          1           0        0.152670    1.943582   -0.334687
     18          1           0       -3.739305    0.409577   -0.195426
     19          1           0        1.310068   -1.474432    0.515999
     20          1           0        2.154920    1.219777   -0.371171
     21          1           0        2.632966   -0.009598    2.410155
     22          1           0        3.236591    1.565557    1.856912
     23          1           0        1.492964    1.304423    2.060701
     24          1           0        4.450842    0.334697   -0.097095
     25          1           0        3.785371   -1.220671    0.430995
     26          1           0        2.608949   -1.052376   -1.688809
 ---------------------------------------------------------------------

 SCF Done:  E(UB3LYP) =  -627.634365401     A.U. after   33 cycles
 SCF Done:  E(UB3LYP) =  -627.634365401     a.u. after    1 cycles

 The electronic state is 2-A.
 Alpha  occ. eigenvalues --  -19.03312 -18.97110 -14.24769 -14.23135 -14.19496
 Alpha  occ. eigenvalues --  -10.16132 -10.14709 -10.13882 -10.12869 -10.12034
 Alpha  occ. eigenvalues --  -10.07394 -10.06935 -10.04947  -0.93913  -0.92884
 Alpha  occ. eigenvalues --   -0.88198  -0.84397  -0.77534  -0.69354  -0.66429
 Alpha  occ. eigenvalues --   -0.62382  -0.59060  -0.55117  -0.52280  -0.50410
 Alpha  occ. eigenvalues --   -0.45145  -0.44271  -0.41735  -0.40090  -0.36650
 Alpha  occ. eigenvalues --   -0.36361  -0.35314  -0.34076  -0.32858  -0.31857
 Alpha  occ. eigenvalues --   -0.31089  -0.30901  -0.30362  -0.29869  -0.28812
 Alpha  occ. eigenvalues --   -0.27056  -0.26018  -0.24341  -0.22352  -0.19037
 Alpha  occ. eigenvalues --   -0.17794  -0.15291  -0.15040  -0.11666   0.04275
 Alpha virt. eigenvalues --    0.06119   0.06758   0.07885   0.08571   0.09442
 Alpha virt. eigenvalues --    0.09557   0.10136   0.10940   0.11576   0.11695
 Alpha virt. eigenvalues --    0.12032   0.12397   0.12997   0.13767   0.14859

  Beta  occ. eigenvalues --  -19.03309 -18.97106 -14.24680 -14.23110 -14.19531
  Beta  occ. eigenvalues --  -10.16133 -10.14488 -10.13737 -10.12851 -10.12030
  Beta  occ. eigenvalues --  -10.07368 -10.06884 -10.04904  -0.93901  -0.92821
  Beta  occ. eigenvalues --   -0.88049  -0.84266  -0.77434  -0.69205  -0.66329
  Beta  occ. eigenvalues --   -0.62256  -0.58999  -0.54947  -0.52183  -0.50287
  Beta  occ. eigenvalues --   -0.45045  -0.44181  -0.41678  -0.40022  -0.36597
  Beta  occ. eigenvalues --   -0.36126  -0.35008  -0.33961  -0.32774  -0.31790
  Beta  occ. eigenvalues --   -0.31047  -0.30772  -0.30265  -0.29828  -0.28723
  Beta  occ. eigenvalues --   -0.26890  -0.25840  -0.24298  -0.21907  -0.19013
  Beta  occ. eigenvalues --   -0.17784  -0.15109  -0.14981  -0.11345
  Beta virt. eigenvalues --    0.06706   0.07229   0.08004   0.08456   0.08942
  Beta virt. eigenvalues --    0.09685   0.09907   0.10825   0.11297   0.11745
  Beta virt. eigenvalues --    0.11965   0.12305   0.12620   0.13386   0.13870

 Mulliken charges and spin densities:
               1          2
     1  C    1.861866  -2.463851
     2  C   -1.089389   1.159912
     3  N   -0.154744  -0.028821
     4  C   -0.503656   0.073981
     5  C    0.865850  -0.385496
     6  C   -0.338076   0.302528
     7  O   -0.411343   0.006044
     8  N   -0.307025   0.124520
     9  N   -0.055521   0.025240
    10  C   -0.725607   0.761035
    11  C    0.755488  -1.261719
    12  C   -0.008731  -0.452958
    13  O   -0.252009   0.011490
    14  H   -0.070572   0.223613
    15  H   -0.713679   0.901335
    16  H   -0.104986   0.263339
    17  H    0.094449   0.106348
    18  H    0.105312   0.225371
    19  H    0.248791   0.024065
    20  H    0.247058  -0.090105
    21  H   -0.246250   0.402182
    22  H   -0.308578   0.444775
    23  H   -0.073453   0.233360
    24  H    0.042137   0.137729
    25  H   -0.095785   0.231100
    26  H    0.238453   0.024983
 Sum of Mulliken charges =  -1.00000   1.00000

 Dipole moment (field-independent basis, Debye):
    X=              2.8816    Y=             -0.5055    Z=              0.1743  Tot=              2.9308
 Quadrupole moment (field-independent basis, Debye-Ang):
   XX=           -152.6216   YY=           -121.2749   ZZ=           -108.2223
   XY=             -4.1690   XZ=            -12.2307   YZ=             -2.4862

 Summary of Natural Population Analysis:

                                       Natural Population
                Natural  -----------------------------------------------
    Atom  No    Charge         Core      Valence    Rydberg      Total
 -----------------------------------------------------------------------
      C    1   -0.30947      0.99963     2.30422    0.00562     3.30947
      C    2    0.28258      0.99963     1.70336    0.01443     2.71742
      N    3   -0.29821      0.99964     2.78846    0.01011     3.79821
      C    4    0.23539      0.99952     1.75033    0.01476     2.76461
      C    5   -0.21574      0.99947     2.20793    0.00834     3.21574
      C    6    0.31917      0.99963     1.65958    0.02162     2.68083
      O    7   -0.33681      0.99988     3.33076    0.00618     4.33681
      N    8   -0.29474      0.99963     2.78639    0.00872     3.79474
      N    9   -0.32331      0.99966     2.81086    0.01278     3.82331
      C   10   -0.02421      0.99960     2.01326    0.01136     3.02421
      C   11   -0.29408      0.99964     2.28882    0.00562     3.29408
      C   12   -0.00816      0.99957     1.99465    0.01393     3.00816
      O   13   -0.37099      0.99990     3.36478    0.00631     4.37099
      H   14    0.10489      0.00000     0.39413    0.00099     0.39511
      H   15    0.11494      0.00000     0.37782    0.00725     0.38506
      H   16    0.11315      0.00000     0.38539    0.00146     0.38685
      H   17    0.10762      0.00000     0.39124    0.00113     0.39238
      H   18    0.20079      0.00000     0.29685    0.00236     0.29921
      H   19    0.19216      0.00000     0.30491    0.00292     0.30784
      H   20    0.09829      0.00000     0.39972    0.00199     0.40171
      H   21    0.10003      0.00000     0.39834    0.00163     0.39997
      H   22    0.10203      0.00000     0.39645    0.00152     0.39797
      H   23    0.10877      0.00000     0.39016    0.00107     0.39123
      H   24    0.08877      0.00000     0.41014    0.00109     0.41123
      H   25    0.07385      0.00000     0.42472    0.00143     0.42615
      H   26    0.23331      0.00000     0.26381    0.00288     0.26669
 =======================================================================
   * Total *   -0.00000     12.99541    35.83708    0.16751    49.00000

 Normal termination of Gaussian 16 at Wed Dec  9 23:35:02 2020.
