 Gaussian 16, Revision A.03,

 -----------------------------------------------------------
 # opt freq B3LYP/6-31G(d) empiricaldispersion=gd3bj scf=xqc
 -----------------------------------------------------------

 -------------------------------
 CID_130663047_JID_1546_neutraal
 -------------------------------
 Symbolic Z-matrix:
 Charge =  0 Multiplicity = 1

 SCF Done:  E(RB3LYP) =  -484.414304963     A.U. after   13 cycles
 SCF Done:  E(RB3LYP) =  -484.416509661     A.U. after   10 cycles
 SCF Done:  E(RB3LYP) =  -484.416776176     A.U. after   10 cycles
 SCF Done:  E(RB3LYP) =  -484.416861682     A.U. after    9 cycles
 SCF Done:  E(RB3LYP) =  -484.416882732     A.U. after    9 cycles
 SCF Done:  E(RB3LYP) =  -484.416889960     A.U. after    8 cycles
 SCF Done:  E(RB3LYP) =  -484.416890900     A.U. after    7 cycles
 SCF Done:  E(RB3LYP) =  -484.416891238     A.U. after    7 cycles
 Optimization completed.
    -- Stationary point found.
 Normal termination of Gaussian 16 at Tue Dec  8 19:44:16 2020.

 --------------------------------------------------------------------
 #N Geom=AllCheck Guess=TCheck SCRF=Check GenChk RB3LYP/6-31G(d) Freq
 --------------------------------------------------------------------

 Structure from the checkpoint file:  "JID_1546.chk"
 -------------------------------
 CID_130663047_JID_1546_neutraal
 -------------------------------
 Charge =  0 Multiplicity = 1

 SCF Done:  E(RB3LYP) =  -484.416891238     A.U. after    1 cycles

  Exact polarizability: 115.751   1.014 102.774  -2.084   1.629  90.034
 Approx polarizability: 144.925   1.156 137.064  -2.259   2.815 138.269

                      1                      2                      3
                      A                      A                      A
 Frequencies --     62.4184                86.4755                99.3151
 Red. masses --      2.6086                 1.9351                 1.9007
 Frc consts  --      0.0060                 0.0085                 0.0110
 IR Inten    --      0.0471                 0.0104                 0.0560

                      4                      5                      6
                      A                      A                      A
 Frequencies --    123.0698               180.7966               189.3435
 Red. masses --      3.0597                 1.8339                 1.5880
 Frc consts  --      0.0273                 0.0353                 0.0335
 IR Inten    --      1.0047                 0.8892                 0.9958

                      7                      8                      9
                      A                      A                      A
 Frequencies --    230.2722               234.3033               263.0759
 Red. masses --      1.1196                 1.4311                 1.6678
 Frc consts  --      0.0350                 0.0463                 0.0680
 IR Inten    --      0.1003                 0.5631                 0.4203

                     10                     11                     12
                      A                      A                      A
 Frequencies --    278.0549               296.7625               336.9453
 Red. masses --      2.4355                 2.6271                 2.5556
 Frc consts  --      0.1109                 0.1363                 0.1709
 IR Inten    --      1.1124                 0.4118                 4.6395

                     13                     14                     15
                      A                      A                      A
 Frequencies --    368.1983               433.3027               482.3215
 Red. masses --      3.7106                 2.5316                 2.8133
 Frc consts  --      0.2964                 0.2800                 0.3856
 IR Inten    --      1.2839                 8.8051                 4.8541

                     16                     17                     18
                      A                      A                      A
 Frequencies --    490.3337               519.0202               561.5948
 Red. masses --      3.0541                 3.2133                 3.5211
 Frc consts  --      0.4326                 0.5100                 0.6543
 IR Inten    --      2.1055                 3.5380                 7.9043

                     19                     20                     21
                      A                      A                      A
 Frequencies --    734.1927               752.1513               800.0486
 Red. masses --      1.8788                 1.7795                 1.5411
 Frc consts  --      0.5967                 0.5931                 0.5812
 IR Inten    --      3.2234                 0.2389                96.8325

                     22                     23                     24
                      A                      A                      A
 Frequencies --    819.5362               844.8971               868.0066
 Red. masses --      1.7688                 1.8167                 1.6936
 Frc consts  --      0.6999                 0.7641                 0.7518
 IR Inten    --      3.5028                49.8569                 5.0886

                     25                     26                     27
                      A                      A                      A
 Frequencies --    897.2062               935.7890               957.3154
 Red. masses --      1.7631                 1.7512                 1.8290
 Frc consts  --      0.8362                 0.9035                 0.9876
 IR Inten    --      7.3726                14.3230                 2.6420

                     28                     29                     30
                      A                      A                      A
 Frequencies --    965.7030               997.9157              1040.6575
 Red. masses --      1.6620                 1.6739                 2.4152
 Frc consts  --      0.9132                 0.9821                 1.5410
 IR Inten    --      2.6228                 7.9895                22.3004

                     31                     32                     33
                      A                      A                      A
 Frequencies --   1056.6861              1070.4162              1084.2040
 Red. masses --      2.5629                 2.3388                 2.2177
 Frc consts  --      1.6861                 1.5789                 1.5359
 IR Inten    --      3.9230                 3.3977                58.8798

                     34                     35                     36
                      A                      A                      A
 Frequencies --   1103.2013              1137.0947              1145.4717
 Red. masses --      1.5250                 2.1071                 2.9610
 Frc consts  --      1.0935                 1.6052                 2.2890
 IR Inten    --      4.2373                 6.8263                27.8873

                     37                     38                     39
                      A                      A                      A
 Frequencies --   1152.6313              1180.8152              1182.4352
 Red. masses --      2.3167                 2.2580                 2.6937
 Frc consts  --      1.8134                 1.8550                 2.2190
 IR Inten    --     14.1867                27.6489                28.0239

                     40                     41                     42
                      A                      A                      A
 Frequencies --   1205.2273              1282.1034              1289.4071
 Red. masses --      2.2782                 1.2443                 1.2658
 Frc consts  --      1.9498                 1.2051                 1.2399
 IR Inten    --     14.3928                 1.6108                 1.6798

                     43                     44                     45
                      A                      A                      A
 Frequencies --   1299.3379              1340.2473              1345.0335
 Red. masses --      1.2268                 1.2308                 1.2680
 Frc consts  --      1.2203                 1.3026                 1.3516
 IR Inten    --      7.4258                 1.0002                 8.0333

                     46                     47                     48
                      A                      A                      A
 Frequencies --   1353.4938              1376.5839              1383.9851
 Red. masses --      1.3080                 1.3796                 1.3952
 Frc consts  --      1.4118                 1.5403                 1.5745
 IR Inten    --      0.1265                 2.4134                 0.3993

                     49                     50                     51
                      A                      A                      A
 Frequencies --   1398.3200              1419.5549              1421.4023
 Red. masses --      1.2311                 1.4321                 1.3454
 Frc consts  --      1.4183                 1.7004                 1.6015
 IR Inten    --      8.7071                 9.7226                 6.9147

                     52                     53                     54
                      A                      A                      A
 Frequencies --   1427.7123              1437.8320              1443.2911
 Red. masses --      1.4069                 1.4066                 1.2444
 Frc consts  --      1.6897                 1.7133                 1.5273
 IR Inten    --      1.5656                11.0109                 2.3472

                     55                     56                     57
                      A                      A                      A
 Frequencies --   1443.6584              1506.0512              1506.4541
 Red. masses --      1.2369                 1.1098                 1.1902
 Frc consts  --      1.5188                 1.4831                 1.5914
 IR Inten    --      2.0368                 0.3520                 4.7833

                     58                     59                     60
                      A                      A                      A
 Frequencies --   1514.7709              1522.6983              1525.0609
 Red. masses --      1.0554                 1.0633                 1.0616
 Frc consts  --      1.4268                 1.4526                 1.4547
 IR Inten    --      4.9788                 1.6008                 0.3960

                     61                     62                     63
                      A                      A                      A
 Frequencies --   1531.0827              1532.0954              1532.9031
 Red. masses --      1.0515                 1.0469                 1.0490
 Frc consts  --      1.4524                 1.4478                 1.4523
 IR Inten    --      1.5177                 4.8999                 6.8313

                     64                     65                     66
                      A                      A                      A
 Frequencies --   1537.0577              1539.2690              2975.6438
 Red. masses --      1.0713                 1.0752                 1.0823
 Frc consts  --      1.4912                 1.5010                 5.6462
 IR Inten    --     11.9412                 0.7018                41.2691

                     67                     68                     69
                      A                      A                      A
 Frequencies --   3041.2023              3043.6127              3046.2050
 Red. masses --      1.0642                 1.0423                 1.0530
 Frc consts  --      5.7992                 5.6886                 5.7572
 IR Inten    --     21.2967                 9.3728                 1.5376

                     70                     71                     72
                      A                      A                      A
 Frequencies --   3047.9152              3050.5757              3056.0589
 Red. masses --      1.0505                 1.0663                 1.0417
 Frc consts  --      5.7500                 5.8464                 5.7321
 IR Inten    --     29.4208                21.2801                24.6098

                     73                     74                     75
                      A                      A                      A
 Frequencies --   3060.1585              3061.6567              3081.2773
 Red. masses --      1.0600                 1.0794                 1.0999
 Frc consts  --      5.8484                 5.9614                 6.1525
 IR Inten    --     53.7178                73.0278                10.6280

                     76                     77                     78
                      A                      A                      A
 Frequencies --   3089.8720              3094.7146              3113.6414
 Red. masses --      1.1031                 1.1048                 1.1029
 Frc consts  --      6.2050                 6.2341                 6.2996
 IR Inten    --     16.2232                14.4592                 8.0034

                     79                     80                     81
                      A                      A                      A
 Frequencies --   3114.9163              3117.2126              3119.3545
 Red. masses --      1.1017                 1.1022                 1.1015
 Frc consts  --      6.2980                 6.3100                 6.3151
 IR Inten    --     75.0118                72.8052                32.4315

                     82                     83                     84
                      A                      A                      A
 Frequencies --   3125.5118              3134.0305              3477.1570
 Red. masses --      1.1025                 1.1027                 1.0737
 Frc consts  --      6.3458                 6.3816                 7.6486
 IR Inten    --     37.8438                24.1025                 4.1348

 - Thermochemistry -
 -------------------
 Temperature   298.150 Kelvin.  Pressure   1.00000 Atm.
 Atom     1 has atomic number  6 and mass  12.00000

 Molecular mass:   157.14666 amu.
 Principal axes and moments of inertia in atomic units:
                           1         2         3
     Eigenvalues --  1452.815102025.026562685.98504
           X            0.99994   0.00976  -0.00531
           Y           -0.00960   0.99957   0.02772
           Z            0.00558  -0.02766   0.99960
 This molecule is an asymmetric top.
 Rotational symmetry number  1.
 Warning -- assumption of classical behavior for rotation
           may cause significant error
 Rotational temperatures (Kelvin)      0.05962     0.04277     0.03225
 Rotational constants (GHZ):           1.24224     0.89122     0.67191
 Zero-point vibrational energy     729287.4 (Joules/Mol)
                                  174.30387 (Kcal/Mol)
 Warning -- explicit consideration of  18 degrees of freedom as
           vibrations may cause significant error
 Vibrational temperatures:     89.81   124.42   142.89   177.07   260.13
          (Kelvin)            272.42   331.31   337.11   378.51   400.06
                              426.98   484.79   529.76   623.43   693.95
                              705.48   746.75   808.01  1056.34  1082.18
                             1151.09  1179.13  1215.62  1248.87  1290.88
                             1346.39  1377.36  1389.43  1435.78  1497.27
                             1520.34  1540.09  1559.93  1587.26  1636.03
                             1648.08  1658.38  1698.93  1701.26  1734.05
                             1844.66  1855.17  1869.46  1928.32  1935.20
                             1947.38  1980.60  1991.25  2011.87  2042.42
                             2045.08  2054.16  2068.72  2076.57  2077.10
                             2166.87  2167.45  2179.42  2190.82  2194.22
                             2202.89  2204.34  2205.51  2211.48  2214.66
                             4281.29  4375.61  4379.08  4382.81  4385.27
                             4389.10  4396.99  4402.89  4405.04  4433.27
                             4445.64  4452.60  4479.84  4481.67  4484.97
                             4488.06  4496.91  4509.17  5002.85

 Zero-point correction=                           0.277771 (Hartree/Particle)
 Thermal correction to Energy=                    0.290113
 Thermal correction to Enthalpy=                  0.291057
 Thermal correction to Gibbs Free Energy=         0.239932
 Sum of electronic and zero-point Energies=           -484.139120
 Sum of electronic and thermal Energies=              -484.126778
 Sum of electronic and thermal Enthalpies=            -484.125834
 Sum of electronic and thermal Free Energies=         -484.176959

                     E (Thermal)             CV                S
                      KCal/Mol        Cal/Mol-Kelvin    Cal/Mol-Kelvin
 Total                  182.049             47.030            107.602
 Electronic               0.000              0.000              0.000
 Translational            0.889              2.981             41.065
 Rotational               0.889              2.981             30.447
 Vibrational            180.271             41.069             36.089
 Vibration     1          0.597              1.972              4.379
 Vibration     2          0.601              1.959              3.738
 Vibration     3          0.604              1.950              3.468
 Vibration     4          0.610              1.930              3.052
 Vibration     5          0.630              1.866              2.320
 Vibration     6          0.633              1.855              2.234
 Vibration     7          0.652              1.795              1.877
 Vibration     8          0.654              1.788              1.846
 Vibration     9          0.670              1.741              1.641
 Vibration    10          0.679              1.714              1.546
 Vibration    11          0.690              1.680              1.435
 Vibration    12          0.718              1.602              1.227
 Vibration    13          0.741              1.538              1.087
 Vibration    14          0.794              1.398              0.848
 Vibration    15          0.839              1.289              0.704
 Vibration    16          0.846              1.271              0.683
 Vibration    17          0.874              1.208              0.612
 Vibration    18          0.917              1.114              0.521

 Optimization completed.
    -- Stationary point found.
 Normal termination of Gaussian 16 at Tue Dec  8 19:52:03 2020.

 ----------------------------------------------------------------------
 # B3LYP/6-311++G(d,p) empiricaldispersion=gd3bj scf=xqc pop=npa geom=c
 heck
 ----------------------------------------------------------------------

 ---------------------------------------
 CID_130663047_JID_1546_Energie_neutraal
 ---------------------------------------
 Structure from the checkpoint file:  "JID_1546.chk"
 Charge =  0 Multiplicity = 1

 SCF Done:  E(RB3LYP) =  -484.557218426     A.U. after   14 cycles
 Normal termination of Gaussian 16 at Tue Dec  8 19:55:33 2020.

 ----------------------------------------------------------------------
 # B3LYP/6-311++G(d,p) empiricaldispersion=gd3bj scf=xqc pop=npa geom=c
 heck
 ----------------------------------------------------------------------

 -------------------------------------
 CID_130663047_JID_1546_Energie_kation
 -------------------------------------
 Structure from the checkpoint file:  "JID_1546.chk"
 Charge =  1 Multiplicity = 2

 SCF Done:  E(UB3LYP) =  -484.266388651     A.U. after   18 cycles
 Normal termination of Gaussian 16 at Tue Dec  8 20:02:04 2020.
 Gaussian 16:  ES64L-G16RevA.03 25-Dec-2016

 ----------------------------------------------------------------------
 # B3LYP/6-311++G(d,p) empiricaldispersion=gd3bj scf=xqc pop=npa geom=c
 heck
 ----------------------------------------------------------------------

 ------------------------------------
 CID_130663047_JID_1546_Energie_anion
 ------------------------------------
 Structure from the checkpoint file:  "JID_1546.chk"
 Charge = -1 Multiplicity = 2

                         Standard orientation:
 ---------------------------------------------------------------------
 Center     Atomic      Atomic             Coordinates (Angstroms)
 Number     Number       Type             X           Y           Z
 ---------------------------------------------------------------------
      1          6           0        2.407128   -1.997370   -0.779706
      2          6           0        1.045597   -1.891474   -0.087488
      3          6           0        0.802993   -0.521532    0.567429
      4          6           0        0.471559    0.561965   -0.484016
      5          8           0       -0.841683    0.340014   -1.017073
      6          6           0       -1.891596    0.309212   -0.045149
      7          6           0       -1.588268   -0.753385    1.014024
      8          7           0       -0.248971   -0.624468    1.597219
      9          6           0       -3.179640    0.041389   -0.805887
     10          6           0        0.649484    2.000668    0.024512
     11          6           0        2.119747    2.409919    0.153196
     12          1           0        2.514858   -1.264678   -1.587822
     13          1           0        2.545949   -2.990532   -1.220388
     14          1           0        3.225889   -1.829980   -0.069048
     15          1           0        0.248871   -2.092552   -0.813021
     16          1           0        0.968296   -2.651942    0.697713
     17          1           0        1.721343   -0.234843    1.095340
     18          1           0        1.125573    0.437066   -1.354936
     19          1           0       -1.959462    1.292415    0.450962
     20          1           0       -1.671576   -1.745886    0.554447
     21          1           0       -2.327389   -0.707368    1.822754
     22          1           0       -0.225209    0.213866    2.176354
     23          1           0       -4.038130    0.039311   -0.125025
     24          1           0       -3.339085    0.809499   -1.568694
     25          1           0       -3.126822   -0.931872   -1.305926
     26          1           0        0.138856    2.664408   -0.683306
     27          1           0        0.147417    2.132890    0.991897
     28          1           0        2.641820    2.306746   -0.805627
     29          1           0        2.210330    3.453686    0.472070
     30          1           0        2.652716    1.794583    0.886819
 ---------------------------------------------------------------------

 SCF Done:  E(UB3LYP) =  -484.539916726     A.U. after   28 cycles

 The electronic state is 2-A.
 Alpha  occ. eigenvalues --  -19.01415 -14.19253 -10.11244 -10.11009 -10.09135
 Alpha  occ. eigenvalues --  -10.08464 -10.06359 -10.06237 -10.05960 -10.05840
 Alpha  occ. eigenvalues --  -10.05390  -0.92962  -0.79996  -0.70553  -0.66772
 Alpha  occ. eigenvalues --   -0.65355  -0.59396  -0.56187  -0.54402  -0.50768
 Alpha  occ. eigenvalues --   -0.49311  -0.43713  -0.39727  -0.38573  -0.37359
 Alpha  occ. eigenvalues --   -0.35896  -0.35555  -0.33207  -0.31845  -0.30795
 Alpha  occ. eigenvalues --   -0.29566  -0.28514  -0.28002  -0.27693  -0.26780
 Alpha  occ. eigenvalues --   -0.25638  -0.25032  -0.24578  -0.24188  -0.23497
 Alpha  occ. eigenvalues --   -0.21960  -0.20171  -0.16593  -0.11250   0.04807
 Alpha virt. eigenvalues --    0.06748   0.07125   0.08147   0.09155   0.09410
 Alpha virt. eigenvalues --    0.09690   0.10114   0.10693   0.12003   0.12133
 Alpha virt. eigenvalues --    0.12406   0.12533   0.13084   0.13625   0.14679

  Beta  occ. eigenvalues --  -19.01411 -14.19235 -10.11232 -10.11003 -10.09125
  Beta  occ. eigenvalues --  -10.08447 -10.06340 -10.06232 -10.05937 -10.05815
  Beta  occ. eigenvalues --  -10.05347  -0.92950  -0.79959  -0.70527  -0.66744
  Beta  occ. eigenvalues --   -0.65317  -0.59353  -0.56135  -0.54347  -0.50703
  Beta  occ. eigenvalues --   -0.49253  -0.43663  -0.39675  -0.38543  -0.37322
  Beta  occ. eigenvalues --   -0.35866  -0.35524  -0.33183  -0.31808  -0.30765
  Beta  occ. eigenvalues --   -0.29514  -0.28486  -0.27960  -0.27663  -0.26736
  Beta  occ. eigenvalues --   -0.25591  -0.24980  -0.24545  -0.24161  -0.23453
  Beta  occ. eigenvalues --   -0.21934  -0.20149  -0.16566  -0.11230
  Beta virt. eigenvalues --    0.06919   0.07591   0.07896   0.08785   0.09693
  Beta virt. eigenvalues --    0.09795   0.10229   0.10586   0.11085   0.12266
  Beta virt. eigenvalues --    0.12566   0.12820   0.12985   0.13423   0.13833

 Mulliken charges and spin densities:
               1          2
     1  C    0.479635  -1.176756
     2  C   -0.353677   0.334147
     3  C    0.689453  -1.128987
     4  C   -1.296412   1.034420
     5  O   -0.048696   0.017115
     6  C   -0.357727   0.283813
     7  C   -0.077769  -0.299809
     8  N   -0.175245   0.158074
     9  C    0.959666  -1.553887
    10  C   -0.312094   0.416686
    11  C    1.558155  -2.226568
    12  H   -0.029144   0.153665
    13  H   -0.025126   0.159742
    14  H   -0.145827   0.281855
    15  H    0.201421  -0.053977
    16  H    0.001311   0.161206
    17  H    0.390765  -0.161978
    18  H    0.030756   0.190042
    19  H   -0.094432   0.268968
    20  H    0.159222   0.017326
    21  H   -0.534657   0.701811
    22  H   -0.154433   0.420314
    23  H   -0.301082   0.448259
    24  H   -0.090979   0.242454
    25  H    0.060277   0.065777
    26  H   -0.219407   0.384085
    27  H   -0.177140   0.307582
    28  H   -0.154685   0.283976
    29  H   -0.501011   0.658517
    30  H   -0.481116   0.612127
 Sum of Mulliken charges =  -1.00000   1.00000

 Dipole moment (field-independent basis, Debye):
    X=             -0.3922    Y=             -4.4685    Z=             -3.2324  Tot=              5.5290
 Quadrupole moment (field-independent basis, Debye-Ang):
   XX=           -130.9558   YY=           -118.0657   ZZ=           -110.5505
   XY=             -3.4577   XZ=              2.7036   YZ=             -2.3917

 Summary of Natural Population Analysis:

                                       Natural Population
                Natural  -----------------------------------------------
    Atom  No    Charge         Core      Valence    Rydberg      Total
 -----------------------------------------------------------------------
      C    1   -0.28462      0.99967     2.28021    0.00474     3.28462
      C    2   -0.19529      0.99961     2.18801    0.00766     3.19529
      C    3   -0.02238      0.99955     2.00868    0.01414     3.02238
      C    4    0.06361      0.99950     1.92185    0.01504     2.93639
      O    5   -0.31198      0.99988     3.30213    0.00996     4.31198
      C    6    0.05316      0.99955     1.93258    0.01472     2.94684
      C    7   -0.10007      0.99959     2.08841    0.01207     3.10007
      N    8   -0.33919      0.99975     2.82600    0.01344     3.83919
      C    9   -0.28887      0.99964     2.28271    0.00651     3.28887
      C   10   -0.20474      0.99961     2.19579    0.00934     3.20474
      C   11   -0.28392      0.99966     2.27919    0.00507     3.28392
      H   12    0.09602      0.00000     0.40283    0.00115     0.40398
      H   13    0.09637      0.00000     0.40292    0.00071     0.40363
      H   14    0.09684      0.00000     0.40207    0.00109     0.40316
      H   15    0.09777      0.00000     0.40062    0.00161     0.40223
      H   16    0.10037      0.00000     0.39829    0.00135     0.39963
      H   17    0.09853      0.00000     0.39927    0.00221     0.40147
      H   18    0.09012      0.00000     0.40815    0.00173     0.40988
      H   19    0.08010      0.00000     0.41700    0.00290     0.41990
      H   20    0.08883      0.00000     0.40974    0.00142     0.41117
      H   21    0.09988      0.00000     0.39885    0.00127     0.40012
      H   22    0.17614      0.00000     0.32038    0.00348     0.32386
      H   23    0.10144      0.00000     0.39753    0.00103     0.39856
      H   24    0.10314      0.00000     0.39572    0.00115     0.39686
      H   25    0.09713      0.00000     0.40182    0.00105     0.40287
      H   26    0.10150      0.00000     0.39723    0.00128     0.39850
      H   27    0.09568      0.00000     0.40184    0.00247     0.40432
      H   28    0.09487      0.00000     0.40384    0.00129     0.40513
      H   29    0.10247      0.00000     0.39608    0.00145     0.39753
      H   30    0.09709      0.00000     0.40117    0.00174     0.40291
 =======================================================================
   * Total *    0.00000     10.99601    32.86093    0.14306    44.00000

 Normal termination of Gaussian 16 at Tue Dec  8 20:12:04 2020.
