 Gaussian 16, Revision A.03,

 -----------------------------------------------------------
 # opt freq B3LYP/6-31G(d) empiricaldispersion=gd3bj scf=xqc
 -----------------------------------------------------------

 -------------------------------
 CID_141519110_JID_8685_neutraal
 -------------------------------
 Symbolic Z-matrix:
 Charge =  0 Multiplicity = 1

 SCF Done:  E(RB3LYP) =  -853.779943319     A.U. after   15 cycles
 SCF Done:  E(RB3LYP) =  -853.786681058     A.U. after   14 cycles
 SCF Done:  E(RB3LYP) =  -853.787566390     A.U. after   14 cycles
 SCF Done:  E(RB3LYP) =  -853.783690958     A.U. after   16 cycles
 SCF Done:  E(RB3LYP) =  -853.788726798     A.U. after   14 cycles
 SCF Done:  E(RB3LYP) =  -853.789001148     A.U. after   14 cycles
 SCF Done:  E(RB3LYP) =  -853.789205973     A.U. after   12 cycles
 SCF Done:  E(RB3LYP) =  -853.789352905     A.U. after   12 cycles
 SCF Done:  E(RB3LYP) =  -853.789560070     A.U. after   13 cycles
 SCF Done:  E(RB3LYP) =  -853.788434737     A.U. after   16 cycles
 SCF Done:  E(RB3LYP) =  -853.790521724     A.U. after    9 cycles
 SCF Done:  E(RB3LYP) =  -853.790522117     A.U. after    9 cycles
 SCF Done:  E(RB3LYP) =  -853.790522636     A.U. after    8 cycles
 SCF Done:  E(RB3LYP) =  -853.790522937     A.U. after    9 cycles
 SCF Done:  E(RB3LYP) =  -853.790523002     A.U. after    7 cycles
 SCF Done:  E(RB3LYP) =  -853.790523010     A.U. after    7 cycles
 Optimization completed.
    -- Stationary point found.
 Normal termination of Gaussian 16 at Fri Dec 11 21:44:14 2020.

 --------------------------------------------------------------------
 #N Geom=AllCheck Guess=TCheck SCRF=Check GenChk RB3LYP/6-31G(d) Freq
 --------------------------------------------------------------------

 Structure from the checkpoint file:  "JID_8685.chk"
 -------------------------------
 CID_141519110_JID_8685_neutraal
 -------------------------------
 Charge =  0 Multiplicity = 1

 SCF Done:  E(RB3LYP) =  -853.790523010     A.U. after    1 cycles

  Exact polarizability: 233.103 -15.098 122.238  -7.698  -4.914 115.138
 Approx polarizability: 315.394 -31.078 237.894 -11.554 -12.986 188.136

                      1                      2                      3
                      A                      A                      A
 Frequencies --     25.9848                28.6492                37.1092
 Red. masses --      1.2596                 2.5873                 6.5997
 Frc consts  --      0.0005                 0.0013                 0.0054
 IR Inten    --      0.1028                 0.2159                 0.0148

                      4                      5                      6
                      A                      A                      A
 Frequencies --     49.8426                72.3385                96.1147
 Red. masses --      5.4587                 7.4922                 6.2516
 Frc consts  --      0.0080                 0.0231                 0.0340
 IR Inten    --      0.2304                 0.0348                 2.0559

                      7                      8                      9
                      A                      A                      A
 Frequencies --    136.7784               145.4669               202.9190
 Red. masses --      3.6829                 1.1584                 6.9053
 Frc consts  --      0.0406                 0.0144                 0.1675
 IR Inten    --      0.3340                 0.5684                 1.8173

                     10                     11                     12
                      A                      A                      A
 Frequencies --    208.2589               264.3572               273.3681
 Red. masses --      2.7836                 8.4312                 3.1661
 Frc consts  --      0.0711                 0.3472                 0.1394
 IR Inten    --      1.3844                10.5645                 1.8003

                     13                     14                     15
                      A                      A                      A
 Frequencies --    309.5811               323.8013               345.8347
 Red. masses --      5.4507                 4.5947                 5.3538
 Frc consts  --      0.3078                 0.2838                 0.3773
 IR Inten    --      1.5878                 0.5905                 2.2656

                     16                     17                     18
                      A                      A                      A
 Frequencies --    418.4267               426.1878               454.8920
 Red. masses --      7.2415                 4.1044                 3.2921
 Frc consts  --      0.7470                 0.4392                 0.4014
 IR Inten    --      0.1601                 0.0292                 3.0655

                     19                     20                     21
                      A                      A                      A
 Frequencies --    476.5810               515.6544               521.4186
 Red. masses --      3.3577                 3.3998                 5.6138
 Frc consts  --      0.4493                 0.5326                 0.8993
 IR Inten    --      1.3441                 0.3409                 2.4704

                     22                     23                     24
                      A                      A                      A
 Frequencies --    550.3626               580.7824               593.4607
 Red. masses --      4.4154                 5.0499                 4.5059
 Frc consts  --      0.7880                 1.0036                 0.9350
 IR Inten    --      2.5462                 0.9674                 5.8422

                     25                     26                     27
                      A                      A                      A
 Frequencies --    646.2923               690.2973               732.0468
 Red. masses --      8.0520                 6.2249                 4.9521
 Frc consts  --      1.9816                 1.7476                 1.5636
 IR Inten    --      5.2934                 8.6817                 5.2519

                     28                     29                     30
                      A                      A                      A
 Frequencies --    745.0744               748.0634               797.6332
 Red. masses --      4.9509                10.8561                 3.4033
 Frc consts  --      1.6193                 3.5793                 1.2757
 IR Inten    --     10.1103                 5.4297                17.4986

                     31                     32                     33
                      A                      A                      A
 Frequencies --    815.5017               844.1343               861.2181
 Red. masses --     10.5972                 1.7842                10.9930
 Frc consts  --      4.1523                 0.7491                 4.8039
 IR Inten    --     24.1013                17.5507                20.5173

                     34                     35                     36
                      A                      A                      A
 Frequencies --    896.2529               920.5045               949.0032
 Red. masses --      1.2860                 4.9344                 1.3325
 Frc consts  --      0.6086                 2.4634                 0.7071
 IR Inten    --      2.1459                17.0518                 1.5126

                     37                     38                     39
                      A                      A                      A
 Frequencies --    960.4256               992.6336              1001.5186
 Red. masses --      3.9991                 1.5347                 1.3764
 Frc consts  --      2.1734                 0.8910                 0.8134
 IR Inten    --      3.0513                 8.5991                 0.0857

                     40                     41                     42
                      A                      A                      A
 Frequencies --   1016.9679              1045.2444              1049.7340
 Red. masses --      1.4829                 3.9876                 1.4955
 Frc consts  --      0.9036                 2.5669                 0.9710
 IR Inten    --      1.7487                 7.2705                 3.3627

                     43                     44                     45
                      A                      A                      A
 Frequencies --   1076.2684              1077.7506              1150.2251
 Red. masses --      1.5145                 1.5015                 2.1525
 Frc consts  --      1.0336                 1.0275                 1.6779
 IR Inten    --     13.0667                 2.0582                80.9003

                     46                     47                     48
                      A                      A                      A
 Frequencies --   1180.0633              1183.9499              1232.5615
 Red. masses --      1.6146                 3.0506                 2.0399
 Frc consts  --      1.3247                 2.5195                 1.8259
 IR Inten    --     16.5662                68.7210               189.6760

                     49                     50                     51
                      A                      A                      A
 Frequencies --   1283.7528              1290.5571              1306.8706
 Red. masses --      3.5702                 2.6521                 2.3756
 Frc consts  --      3.4666                 2.6026                 2.3905
 IR Inten    --     15.7302                12.1425                 9.6972

                     52                     53                     54
                      A                      A                      A
 Frequencies --   1322.9818              1353.3760              1390.7354
 Red. masses --      1.5345                 7.8444                 5.2582
 Frc consts  --      1.5824                 8.4654                 5.9921
 IR Inten    --      0.4505                 0.6675               812.5016

                     55                     56                     57
                      A                      A                      A
 Frequencies --   1399.6357              1439.7682              1442.3797
 Red. masses --      4.5533                 1.4111                 2.8946
 Frc consts  --      5.2554                 1.7234                 3.5481
 IR Inten    --    240.0155                 2.4165                 2.7055

                     58                     59                     60
                      A                      A                      A
 Frequencies --   1443.6017              1456.5938              1476.6059
 Red. masses --      1.2634                 2.8396                 4.2367
 Frc consts  --      1.5513                 3.5497                 5.4426
 IR Inten    --      0.6726                13.6543               490.0578

                     61                     62                     63
                      A                      A                      A
 Frequencies --   1513.7539              1518.3314              1521.7500
 Red. masses --      1.0630                 1.0583                 1.1436
 Frc consts  --      1.4351                 1.4374                 1.5603
 IR Inten    --     11.3374                 7.1845                 0.5316

                     64                     65                     66
                      A                      A                      A
 Frequencies --   1529.7825              1553.6984              1588.6334
 Red. masses --      1.2428                 2.1363                 9.3119
 Frc consts  --      1.7137                 3.0384                13.8463
 IR Inten    --     13.5257                65.8437                 2.1665

                     67                     68                     69
                      A                      A                      A
 Frequencies --   1643.3343              1651.6697              1657.6644
 Red. masses --      6.1757                 6.4314                11.8062
 Frc consts  --      9.8263                10.3371                19.1142
 IR Inten    --    282.2883                30.1885               303.0521

                     70                     71                     72
                      A                      A                      A
 Frequencies --   1675.2934              3044.3304              3051.7543
 Red. masses --      6.4112                 1.0403                 1.0381
 Frc consts  --     10.6017                 5.6807                 5.6964
 IR Inten    --     17.3277                34.9185                19.7023

                     73                     74                     75
                      A                      A                      A
 Frequencies --   3102.0095              3109.3325              3128.6652
 Red. masses --      1.0960                 1.0986                 1.1028
 Frc consts  --      6.2138                 6.2580                 6.3599
 IR Inten    --     18.9152                13.2017                15.3423

                     76                     77                     78
                      A                      A                      A
 Frequencies --   3138.4869              3176.2992              3191.1953
 Red. masses --      1.1023                 1.0900                 1.0889
 Frc consts  --      6.3973                 6.4789                 6.5337
 IR Inten    --     16.2060                18.2092                14.5195

                     79                     80                     81
                      A                      A                      A
 Frequencies --   3218.3450              3225.9938              3226.7093
 Red. masses --      1.0941                 1.0927                 1.0928
 Frc consts  --      6.6768                 6.7000                 6.7038
 IR Inten    --      6.5550                 0.2075                 0.6354

 - Thermochemistry -
 -------------------
 Temperature   298.150 Kelvin.  Pressure   1.00000 Atm.
 Atom     1 has atomic number  6 and mass  12.00000

 Molecular mass:   245.08004 amu.
 Principal axes and moments of inertia in atomic units:
                           1         2         3
     Eigenvalues --  1546.039179781.96514**********
           X            0.99992  -0.01249  -0.00014
           Y            0.01249   0.99983   0.01384
           Z           -0.00003  -0.01384   0.99990
 This molecule is an asymmetric top.
 Rotational symmetry number  1.
 Warning -- assumption of classical behavior for rotation
           may cause significant error
 Rotational temperatures (Kelvin)      0.05602     0.00885     0.00860
 Rotational constants (GHZ):           1.16733     0.18450     0.17919
 Zero-point vibrational energy     578666.2 (Joules/Mol)
                                  138.30453 (Kcal/Mol)
 Warning -- explicit consideration of  24 degrees of freedom as
           vibrations may cause significant error
 Vibrational temperatures:     37.39    41.22    53.39    71.71   104.08
          (Kelvin)            138.29   196.79   209.29   291.96   299.64
                              380.35   393.32   445.42   465.88   497.58
                              602.02   613.19   654.49   685.69   741.91
                              750.21   791.85   835.62   853.86   929.87
                              993.18  1053.25  1072.00  1076.30  1147.62
                             1173.33  1214.52  1239.10  1289.51  1324.40
                             1365.40  1381.84  1428.18  1440.96  1463.19
                             1503.87  1510.33  1548.51  1550.64  1654.92
                             1697.85  1703.44  1773.38  1847.03  1856.82
                             1880.30  1903.48  1947.21  2000.96  2013.76
                             2071.51  2075.26  2077.02  2095.71  2124.51
                             2177.95  2184.54  2189.46  2201.02  2235.43
                             2285.69  2364.39  2376.38  2385.01  2410.37
                             4380.11  4390.79  4463.10  4473.64  4501.45
                             4515.58  4569.99  4591.42  4630.48  4641.49
                             4642.52

 Zero-point correction=                           0.220402 (Hartree/Particle)
 Thermal correction to Energy=                    0.236211
 Thermal correction to Enthalpy=                  0.237155
 Thermal correction to Gibbs Free Energy=         0.174333
 Sum of electronic and zero-point Energies=           -853.570121
 Sum of electronic and thermal Energies=              -853.554312
 Sum of electronic and thermal Enthalpies=            -853.553368
 Sum of electronic and thermal Free Energies=         -853.616190

                     E (Thermal)             CV                S
                      KCal/Mol        Cal/Mol-Kelvin    Cal/Mol-Kelvin
 Total                  148.225             58.262            132.222
 Electronic               0.000              0.000              0.000
 Translational            0.889              2.981             42.390
 Rotational               0.889              2.981             33.387
 Vibrational            146.447             52.301             56.444
 Vibration     1          0.593              1.985              6.115
 Vibration     2          0.593              1.984              5.921
 Vibration     3          0.594              1.982              5.408
 Vibration     4          0.595              1.978              4.824
 Vibration     5          0.598              1.967              4.089
 Vibration     6          0.603              1.952              3.532
 Vibration     7          0.614              1.917              2.848
 Vibration     8          0.617              1.908              2.731
 Vibration     9          0.639              1.836              2.106
 Vibration    10          0.642              1.828              2.059
 Vibration    11          0.671              1.738              1.633
 Vibration    12          0.676              1.722              1.575
 Vibration    13          0.699              1.655              1.365
 Vibration    14          0.708              1.628              1.291
 Vibration    15          0.724              1.584              1.185
 Vibration    16          0.781              1.430              0.897
 Vibration    17          0.788              1.413              0.871
 Vibration    18          0.813              1.350              0.781
 Vibration    19          0.833              1.302              0.719
 Vibration    20          0.871              1.215              0.620
 Vibration    21          0.876              1.203              0.607
 Vibration    22          0.906              1.139              0.543
 Vibration    23          0.937              1.073              0.484
 Vibration    24          0.951              1.046              0.461

 Optimization completed.
    -- Stationary point found.
 Normal termination of Gaussian 16 at Fri Dec 11 21:54:07 2020.

 ----------------------------------------------------------------------
 # B3LYP/6-311++G(d,p) empiricaldispersion=gd3bj scf=xqc pop=npa geom=c
 heck
 ----------------------------------------------------------------------

 ---------------------------------------
 CID_141519110_JID_8685_Energie_neutraal
 ---------------------------------------
 Structure from the checkpoint file:  "JID_8685.chk"
 Charge =  0 Multiplicity = 1

 SCF Done:  E(RB3LYP) =  -854.019620214     A.U. after   16 cycles
 Normal termination of Gaussian 16 at Fri Dec 11 21:58:49 2020.

 ----------------------------------------------------------------------
 # B3LYP/6-311++G(d,p) empiricaldispersion=gd3bj scf=xqc pop=npa geom=c
 heck
 ----------------------------------------------------------------------

 -------------------------------------
 CID_141519110_JID_8685_Energie_kation
 -------------------------------------
 Structure from the checkpoint file:  "JID_8685.chk"
 Charge =  1 Multiplicity = 2

 SCF Done:  E(UB3LYP) =  -853.704418414     A.U. after   29 cycles
 Normal termination of Gaussian 16 at Fri Dec 11 22:11:33 2020.
 Gaussian 16:  ES64L-G16RevA.03 25-Dec-2016

 ----------------------------------------------------------------------
 # B3LYP/6-311++G(d,p) empiricaldispersion=gd3bj scf=xqc pop=npa geom=c
 heck
 ----------------------------------------------------------------------

 ------------------------------------
 CID_141519110_JID_8685_Energie_anion
 ------------------------------------
 Structure from the checkpoint file:  "JID_8685.chk"
 Charge = -1 Multiplicity = 2

                         Standard orientation:
 ---------------------------------------------------------------------
 Center     Atomic      Atomic             Coordinates (Angstroms)
 Number     Number       Type             X           Y           Z
 ---------------------------------------------------------------------
      1          6           0        5.474792   -1.317023   -0.257532
      2          6           0        4.144407   -0.604021   -0.249925
      3          6           0        3.436913   -0.427175    0.945293
      4          6           0        2.216956    0.251738    1.002951
      5          6           0        1.717927    0.755004   -0.200664
      6          6           0        2.388522    0.606723   -1.405166
      7          6           0        3.602158   -0.078244   -1.426881
      8          8           0        0.540065    1.525688   -0.197692
      9          6           0       -0.648479    0.915371   -0.164205
     10          7           0       -1.688366    1.765685   -0.156115
     11          6           0       -2.891699    1.207180   -0.128320
     12          6           0       -3.051120   -0.180966   -0.107474
     13          6           0       -1.903769   -0.970677   -0.114185
     14          7           0       -0.690914   -0.424626   -0.142587
     15          7           0       -4.372728   -0.782652   -0.075638
     16          8           0       -4.435596   -2.012237   -0.054014
     17          8           0       -5.341308   -0.022607   -0.072152
     18          6           0        1.461353    0.421892    2.293646
     19          1           0        6.294828   -0.629022   -0.013683
     20          1           0        5.499484   -2.125871    0.480198
     21          1           0        5.690995   -1.747632   -1.240367
     22          1           0        3.847556   -0.831016    1.868151
     23          1           0        1.957929    1.025160   -2.308942
     24          1           0        4.130891   -0.202398   -2.367982
     25          1           0       -3.757377    1.862429   -0.121429
     26          1           0       -1.974282   -2.053815   -0.095715
     27          1           0        2.091990    0.167907    3.149977
     28          1           0        1.108455    1.451227    2.417683
     29          1           0        0.580539   -0.231386    2.318118
 ---------------------------------------------------------------------

 SCF Done:  E(UB3LYP) =  -854.068803598     A.U. after   26 cycles

 The electronic state is 2-A.
 Alpha  occ. eigenvalues --  -19.05381 -18.94746 -18.94709 -14.32627 -14.19145
 Alpha  occ. eigenvalues --  -14.18900 -10.15685 -10.14092 -10.10249 -10.10071
 Alpha  occ. eigenvalues --  -10.09971 -10.09225 -10.09046 -10.08924 -10.08748
 Alpha  occ. eigenvalues --  -10.08302 -10.08038 -10.06795  -1.02946  -0.99091
 Alpha  occ. eigenvalues --   -0.85840  -0.85275  -0.78049  -0.76899  -0.70501
 Alpha  occ. eigenvalues --   -0.68661  -0.67259  -0.61762  -0.60748  -0.56108
 Alpha  occ. eigenvalues --   -0.54038  -0.52470  -0.49911  -0.47003  -0.44885
 Alpha  occ. eigenvalues --   -0.41081  -0.40614  -0.39001  -0.37382  -0.36031
 Alpha  occ. eigenvalues --   -0.35738  -0.35212  -0.33758  -0.33569  -0.33334
 Alpha  occ. eigenvalues --   -0.32401  -0.31742  -0.31702  -0.30373  -0.30199
 Alpha  occ. eigenvalues --   -0.28280  -0.27051  -0.26899  -0.25372  -0.23375
 Alpha  occ. eigenvalues --   -0.20871  -0.19671  -0.16874  -0.15434  -0.14018
 Alpha  occ. eigenvalues --   -0.13359  -0.12942  -0.12438  -0.10751   0.01950
 Alpha virt. eigenvalues --    0.05427   0.06530   0.07108   0.07304   0.07908
 Alpha virt. eigenvalues --    0.08212   0.09571   0.09628   0.10410   0.11607
 Alpha virt. eigenvalues --    0.12042   0.12212   0.12755   0.13350   0.13894

  Beta  occ. eigenvalues --  -19.05287 -18.94258 -18.94191 -14.31986 -14.19279
  Beta  occ. eigenvalues --  -14.19012 -10.15332 -10.14092 -10.10248 -10.10072
  Beta  occ. eigenvalues --  -10.09971 -10.09224 -10.09040 -10.08916 -10.08601
  Beta  occ. eigenvalues --  -10.08067 -10.08039 -10.06729  -1.01859  -0.98847
  Beta  occ. eigenvalues --   -0.85145  -0.84893  -0.78032  -0.76900  -0.70455
  Beta  occ. eigenvalues --   -0.68565  -0.66850  -0.61672  -0.60678  -0.55546
  Beta  occ. eigenvalues --   -0.53686  -0.52413  -0.49634  -0.46626  -0.44681
  Beta  occ. eigenvalues --   -0.40979  -0.40467  -0.38925  -0.36843  -0.35919
  Beta  occ. eigenvalues --   -0.35188  -0.33782  -0.33535  -0.33349  -0.32521
  Beta  occ. eigenvalues --   -0.32020  -0.31327  -0.31103  -0.30281  -0.29934
  Beta  occ. eigenvalues --   -0.28157  -0.27004  -0.26798  -0.25325  -0.22695
  Beta  occ. eigenvalues --   -0.20907  -0.19368  -0.16840  -0.15374  -0.13035
  Beta  occ. eigenvalues --   -0.12232  -0.11971  -0.10550  -0.10257
  Beta virt. eigenvalues --    0.05421   0.06532   0.07123   0.07288   0.07893
  Beta virt. eigenvalues --    0.08795   0.09199   0.09601   0.09727   0.10406
  Beta virt. eigenvalues --    0.11600   0.12052   0.12201   0.12749   0.13857

 Mulliken charges and spin densities:
               1          2
     1  C   -0.504123   0.000032
     2  C    0.656232   0.001521
     3  C   -0.431719   0.005257
     4  C    0.754617  -0.000105
     5  C   -0.645601   0.001460
     6  C    0.183100   0.009606
     7  C   -0.667823   0.000269
     8  O    0.030512   0.021428
     9  C   -0.782330   0.180468
    10  N   -0.145311  -0.056309
    11  C    0.328314   0.143869
    12  C   -0.657512  -0.023361
    13  C    0.258365   0.213180
    14  N    0.027020  -0.072788
    15  N   -0.254743   0.210760
    16  O   -0.215371   0.188988
    17  O   -0.212988   0.197445
    18  C   -0.528652  -0.004239
    19  H    0.155164   0.000214
    20  H    0.136605   0.000207
    21  H    0.136460  -0.000095
    22  H    0.119910  -0.000388
    23  H    0.158198  -0.000518
    24  H    0.125454   0.000264
    25  H    0.264660  -0.008436
    26  H    0.232568  -0.013285
    27  H    0.135871  -0.000636
    28  H    0.177114   0.001279
    29  H    0.166008   0.003914
 Sum of Mulliken charges =  -1.00000   1.00000

 Dipole moment (field-independent basis, Debye):
    X=             15.7570    Y=              1.0809    Z=              0.7306  Tot=             15.8109
 Quadrupole moment (field-independent basis, Debye-Ang):
   XX=           -196.7263   YY=           -126.2678   ZZ=           -103.8422
   XY=            -16.9522   XZ=             -1.1009   YZ=             -0.4627

 Summary of Natural Population Analysis:

                                       Natural Population
                Natural  -----------------------------------------------
    Atom  No    Charge         Core      Valence    Rydberg      Total
 -----------------------------------------------------------------------
      C    1   -0.29075      0.99964     2.28647    0.00464     3.29075
      C    2   -0.02549      0.99952     2.01835    0.00762     3.02549
      C    3   -0.09739      0.99948     2.09006    0.00784     3.09739
      C    4   -0.01973      0.99945     2.01266    0.00762     3.01973
      C    5    0.16144      0.99929     1.82694    0.01233     2.83856
      C    6   -0.10609      0.99950     2.09764    0.00894     3.10609
      C    7   -0.10316      0.99953     2.09559    0.00804     3.10316
      O    8   -0.26131      0.99982     3.25081    0.01068     4.26131
      C    9    0.40909      0.99954     1.57271    0.01866     2.59091
      N   10   -0.28173      0.99967     2.77232    0.00973     3.78173
      C   11    0.07988      0.99957     1.90569    0.01486     2.92012
      C   12   -0.00193      0.99940     1.99236    0.01016     3.00193
      C   13    0.09719      0.99957     1.88894    0.01430     2.90281
      N   14   -0.30495      0.99968     2.79294    0.01233     3.80495
      N   15    0.30558      0.99972     2.16703    0.02767     3.19442
      O   16   -0.19489      0.99990     3.18709    0.00790     4.19489
      O   17   -0.19090      0.99990     3.18309    0.00791     4.19090
      C   18   -0.29698      0.99964     2.29265    0.00469     3.29698
      H   19    0.10032      0.00000     0.39870    0.00098     0.39968
      H   20    0.10061      0.00000     0.39852    0.00088     0.39939
      H   21    0.09994      0.00000     0.39918    0.00088     0.40006
      H   22    0.09407      0.00000     0.40463    0.00131     0.40593
      H   23    0.10727      0.00000     0.39174    0.00099     0.39273
      H   24    0.09572      0.00000     0.40329    0.00099     0.40428
      H   25    0.10130      0.00000     0.39726    0.00144     0.39870
      H   26    0.10073      0.00000     0.39791    0.00136     0.39927
      H   27    0.09615      0.00000     0.40304    0.00081     0.40385
      H   28    0.10968      0.00000     0.38933    0.00099     0.39032
      H   29    0.11632      0.00000     0.38261    0.00107     0.38368
 =======================================================================
   * Total *   -0.00000     17.99284    45.79954    0.20762    64.00000

 Normal termination of Gaussian 16 at Fri Dec 11 22:22:28 2020.
