 Gaussian 16, Revision A.03,

 -----------------------------------------------------------
 # opt freq B3LYP/6-31G(d) empiricaldispersion=gd3bj scf=xqc
 -----------------------------------------------------------

 -------------------------------
 CID_130651235_JID_3295_neutraal
 -------------------------------
 Symbolic Z-matrix:
 Charge =  0 Multiplicity = 1

 SCF Done:  E(RB3LYP) =  -992.498224350     A.U. after   15 cycles
 SCF Done:  E(RB3LYP) =  -992.504241974     A.U. after   12 cycles
 SCF Done:  E(RB3LYP) =  -992.504633724     A.U. after   12 cycles
 SCF Done:  E(RB3LYP) =  -992.504855825     A.U. after   12 cycles
 SCF Done:  E(RB3LYP) =  -992.505291651     A.U. after   12 cycles
 SCF Done:  E(RB3LYP) =  -992.505422931     A.U. after   11 cycles
 SCF Done:  E(RB3LYP) =  -992.505538824     A.U. after   11 cycles
 SCF Done:  E(RB3LYP) =  -992.505601093     A.U. after   12 cycles
 SCF Done:  E(RB3LYP) =  -992.505630090     A.U. after   11 cycles
 SCF Done:  E(RB3LYP) =  -992.505665310     A.U. after   11 cycles
 SCF Done:  E(RB3LYP) =  -992.505677090     A.U. after    9 cycles
 SCF Done:  E(RB3LYP) =  -992.505681649     A.U. after    9 cycles
 SCF Done:  E(RB3LYP) =  -992.505685275     A.U. after   10 cycles
 SCF Done:  E(RB3LYP) =  -992.505687959     A.U. after   10 cycles
 SCF Done:  E(RB3LYP) =  -992.505688953     A.U. after    9 cycles
 SCF Done:  E(RB3LYP) =  -992.505688960     A.U. after    7 cycles
 Optimization completed.
    -- Stationary point found.
 Normal termination of Gaussian 16 at Wed Dec  9 22:55:13 2020.

 --------------------------------------------------------------------
 #N Geom=AllCheck Guess=TCheck SCRF=Check GenChk RB3LYP/6-31G(d) Freq
 --------------------------------------------------------------------

 Structure from the checkpoint file:  "JID_3295.chk"
 -------------------------------
 CID_130651235_JID_3295_neutraal
 -------------------------------
 Charge =  0 Multiplicity = 1

 SCF Done:  E(RB3LYP) =  -992.505688960     A.U. after    1 cycles

  Exact polarizability: 129.292   1.396 112.085  -3.121   0.566  93.713
 Approx polarizability: 160.406  -3.527 176.269  -4.748   4.654 154.922

                      1                      2                      3
                      A                      A                      A
 Frequencies --     22.2670                41.0455                68.0858
 Red. masses --      4.0015                 3.3421                 4.7976
 Frc consts  --      0.0012                 0.0033                 0.0131
 IR Inten    --      2.7821                 2.4142                 1.0197

                      4                      5                      6
                      A                      A                      A
 Frequencies --     72.5346               112.1344               184.8064
 Red. masses --      3.7800                 4.2049                 3.7651
 Frc consts  --      0.0117                 0.0312                 0.0758
 IR Inten    --      1.6454                 0.1125                 5.0220

                      7                      8                      9
                      A                      A                      A
 Frequencies --    200.0544               221.4797               229.9813
 Red. masses --      3.5427                 1.9811                 1.2397
 Frc consts  --      0.0835                 0.0573                 0.0386
 IR Inten    --      5.6986                 0.7332                 1.8690

                     10                     11                     12
                      A                      A                      A
 Frequencies --    248.1213               292.0406               307.7285
 Red. masses --      1.3144                 2.5343                 2.5643
 Frc consts  --      0.0477                 0.1273                 0.1431
 IR Inten    --      0.8451                 0.6879                 1.9274

                     13                     14                     15
                      A                      A                      A
 Frequencies --    338.4983               371.1573               386.3223
 Red. masses --      5.8164                 4.4559                 2.9933
 Frc consts  --      0.3927                 0.3617                 0.2632
 IR Inten    --      0.2148                 2.0422                 3.0927

                     16                     17                     18
                      A                      A                      A
 Frequencies --    405.7613               429.8351               450.6138
 Red. masses --      3.1827                 5.3145                 2.2529
 Frc consts  --      0.3087                 0.5785                 0.2695
 IR Inten    --      6.0358                17.5145                 8.9843

                     19                     20                     21
                      A                      A                      A
 Frequencies --    519.1371               557.4147               563.2289
 Red. masses --      5.4019                 2.6799                 6.7745
 Frc consts  --      0.8578                 0.4906                 1.2662
 IR Inten    --     69.2829                14.8699                43.8484

                     22                     23                     24
                      A                      A                      A
 Frequencies --    655.8348               711.9412               740.5702
 Red. masses --      4.6449                 3.5906                 4.2634
 Frc consts  --      1.1771                 1.0723                 1.3777
 IR Inten    --     10.2573                59.4584                 1.9546

                     25                     26                     27
                      A                      A                      A
 Frequencies --    845.4479               878.3599               893.5990
 Red. masses --      2.9018                 2.0367                 1.4171
 Frc consts  --      1.2221                 0.9258                 0.6667
 IR Inten    --      1.9132                 4.0501                11.1680

                     28                     29                     30
                      A                      A                      A
 Frequencies --    923.7205               933.5113               948.3898
 Red. masses --      1.9819                 1.7311                 1.3314
 Frc consts  --      0.9963                 0.8888                 0.7055
 IR Inten    --      2.1941                 1.6904                 1.0270

                     31                     32                     33
                      A                      A                      A
 Frequencies --    959.6974               981.7902              1006.9802
 Red. masses --      1.7879                 1.5606                 2.8055
 Frc consts  --      0.9702                 0.8863                 1.6761
 IR Inten    --      1.4782                 0.8055                14.3703

                     34                     35                     36
                      A                      A                      A
 Frequencies --   1051.6787              1053.8634              1079.5137
 Red. masses --      1.7647                 1.9725                 1.9730
 Frc consts  --      1.1500                 1.2907                 1.3547
 IR Inten    --     56.7620                 2.7158                77.2373

                     37                     38                     39
                      A                      A                      A
 Frequencies --   1121.4650              1151.7447              1165.3623
 Red. masses --      6.8228                 2.2843                 2.1713
 Frc consts  --      5.0558                 1.7853                 1.7373
 IR Inten    --     79.3348                 6.2873                68.5784

                     40                     41                     42
                      A                      A                      A
 Frequencies --   1183.2353              1206.4389              1228.2767
 Red. masses --      1.4512                 1.7747                 1.6645
 Frc consts  --      1.1971                 1.5219                 1.4796
 IR Inten    --     11.0819                 9.2854                 3.2938

                     43                     44                     45
                      A                      A                      A
 Frequencies --   1253.7086              1265.9958              1304.7778
 Red. masses --      1.6540                 1.2278                 1.6065
 Frc consts  --      1.5317                 1.1594                 1.6114
 IR Inten    --     64.0852                13.8023                68.5591

                     46                     47                     48
                      A                      A                      A
 Frequencies --   1318.6347              1331.1272              1352.7627
 Red. masses --      1.8757                 2.6298                 2.1075
 Frc consts  --      1.9216                 2.7454                 2.2723
 IR Inten    --     83.0884               104.2383               265.3041

                     49                     50                     51
                      A                      A                      A
 Frequencies --   1374.5249              1392.0257              1397.0444
 Red. masses --      1.4345                 1.3687                 1.4528
 Frc consts  --      1.5968                 1.5626                 1.6707
 IR Inten    --     18.7009                 3.2059                25.3506

                     52                     53                     54
                      A                      A                      A
 Frequencies --   1405.4812              1432.8561              1453.0635
 Red. masses --      1.3517                 1.2714                 1.2375
 Frc consts  --      1.5732                 1.5379                 1.5395
 IR Inten    --     32.3728                 7.4339                 2.6642

                     55                     56                     57
                      A                      A                      A
 Frequencies --   1487.9232              1514.8935              1518.5137
 Red. masses --      1.0937                 1.0725                 1.0535
 Frc consts  --      1.4266                 1.4502                 1.4313
 IR Inten    --      7.4313                 6.1656                 6.1444

                     58                     59                     60
                      A                      A                      A
 Frequencies --   1520.2612              1527.6729              1534.9841
 Red. masses --      1.0889                 1.0680                 1.0540
 Frc consts  --      1.4827                 1.4686                 1.4632
 IR Inten    --      3.8518                 4.6068                 4.7531

                     61                     62                     63
                      A                      A                      A
 Frequencies --   1538.6564              1545.5294              1778.5296
 Red. masses --      1.0512                 1.0838                11.1355
 Frc consts  --      1.4664                 1.5253                20.7531
 IR Inten    --     13.0927                 1.2325               221.3046

                     64                     65                     66
                      A                      A                      A
 Frequencies --   3040.0560              3046.7649              3068.3587
 Red. masses --      1.0362                 1.0384                 1.0809
 Frc consts  --      5.6425                 5.6792                 5.9960
 IR Inten    --     25.7620                24.9463                 1.6471

                     67                     68                     69
                      A                      A                      A
 Frequencies --   3069.9234              3084.1478              3091.5875
 Red. masses --      1.0683                 1.0614                 1.0612
 Frc consts  --      5.9318                 5.9485                 5.9760
 IR Inten    --     22.2009                 7.3059                11.4215

                     70                     71                     72
                      A                      A                      A
 Frequencies --   3104.8151              3104.9551              3113.7142
 Red. masses --      1.0596                 1.1012                 1.1002
 Frc consts  --      6.0180                 6.2551                 6.2848
 IR Inten    --      2.1092                 5.1746                45.3096

                     73                     74                     75
                      A                      A                      A
 Frequencies --   3118.0454              3126.8059              3136.0277
 Red. masses --      1.1026                 1.1014                 1.1048
 Frc consts  --      6.3161                 6.3446                 6.4017
 IR Inten    --     33.4220                29.4751                11.1702

                     76                     77                     78
                      A                      A                      A
 Frequencies --   3136.7547              3145.4927              3176.0454
 Red. masses --      1.1001                 1.1041                 1.1090
 Frc consts  --      6.3775                 6.4366                 6.5909
 IR Inten    --      7.6115                12.7857                 0.8765

 - Thermochemistry -
 -------------------
 Temperature   298.150 Kelvin.  Pressure   1.00000 Atm.
 Atom     1 has atomic number  6 and mass  12.00000

 Molecular mass:   205.07727 amu.
 Principal axes and moments of inertia in atomic units:
                           1         2         3
     Eigenvalues --  1617.951363300.837914055.40690
           X            0.99945   0.03313   0.00176
           Y           -0.03307   0.99911  -0.02609
           Z           -0.00263   0.02602   0.99966
 This molecule is an asymmetric top.
 Rotational symmetry number  1.
 Warning -- assumption of classical behavior for rotation
           may cause significant error
 Rotational temperatures (Kelvin)      0.05353     0.02624     0.02136
 Rotational constants (GHZ):           1.11545     0.54675     0.44502
 Zero-point vibrational energy     619403.2 (Joules/Mol)
                                  148.04092 (Kcal/Mol)
 Warning -- explicit consideration of  21 degrees of freedom as
           vibrations may cause significant error
 Vibrational temperatures:     32.04    59.06    97.96   104.36   161.34
          (Kelvin)            265.90   287.83   318.66   330.89   356.99
                              420.18   442.75   487.02   534.01   555.83
                              583.80   618.44   648.33   746.92   802.00
                              810.36   943.60  1024.32  1065.52  1216.41
                             1263.76  1285.69  1329.03  1343.11  1364.52
                             1380.79  1412.58  1448.82  1513.13  1516.27
                             1553.18  1613.54  1657.10  1676.70  1702.41
                             1735.80  1767.22  1803.81  1821.49  1877.28
                             1897.22  1915.20  1946.32  1977.63  2002.81
                             2010.04  2022.17  2061.56  2090.63  2140.79
                             2179.59  2184.80  2187.32  2197.98  2208.50
                             2213.78  2223.67  2558.91  4373.96  4383.62
                             4414.68  4416.94  4437.40  4448.10  4467.14
                             4467.34  4479.94  4486.17  4498.78  4512.04
                             4513.09  4525.66  4569.62

 Zero-point correction=                           0.235918 (Hartree/Particle)
 Thermal correction to Energy=                    0.249899
 Thermal correction to Enthalpy=                  0.250843
 Thermal correction to Gibbs Free Energy=         0.193950
 Sum of electronic and zero-point Energies=           -992.269771
 Sum of electronic and thermal Energies=              -992.255790
 Sum of electronic and thermal Enthalpies=            -992.254846
 Sum of electronic and thermal Free Energies=         -992.311739

                     E (Thermal)             CV                S
                      KCal/Mol        Cal/Mol-Kelvin    Cal/Mol-Kelvin
 Total                  156.814             51.518            119.743
 Electronic               0.000              0.000              0.000
 Translational            0.889              2.981             41.859
 Rotational               0.889              2.981             31.449
 Vibrational            155.037             45.557             46.435
 Vibration     1          0.593              1.985              6.421
 Vibration     2          0.594              1.981              5.208
 Vibration     3          0.598              1.969              4.208
 Vibration     4          0.599              1.967              4.083
 Vibration     5          0.607              1.939              3.232
 Vibration     6          0.631              1.861              2.279
 Vibration     7          0.638              1.840              2.133
 Vibration     8          0.648              1.808              1.947
 Vibration     9          0.652              1.795              1.879
 Vibration    10          0.662              1.766              1.744
 Vibration    11          0.687              1.689              1.462
 Vibration    12          0.698              1.659              1.375
 Vibration    13          0.719              1.599              1.219
 Vibration    14          0.743              1.531              1.075
 Vibration    15          0.755              1.499              1.014
 Vibration    16          0.771              1.458              0.942
 Vibration    17          0.791              1.405              0.859
 Vibration    18          0.809              1.360              0.794
 Vibration    19          0.874              1.208              0.612
 Vibration    20          0.913              1.123              0.529
 Vibration    21          0.919              1.111              0.517

 Optimization completed.
    -- Stationary point found.
 Normal termination of Gaussian 16 at Wed Dec  9 23:03:29 2020.

 ----------------------------------------------------------------------
 # B3LYP/6-311++G(d,p) empiricaldispersion=gd3bj scf=xqc pop=npa geom=c
 heck
 ----------------------------------------------------------------------

 ---------------------------------------
 CID_130651235_JID_3295_Energie_neutraal
 ---------------------------------------
 Structure from the checkpoint file:  "JID_3295.chk"
 Charge =  0 Multiplicity = 1

 SCF Done:  E(RB3LYP) =  -992.704120836     A.U. after   15 cycles
 Normal termination of Gaussian 16 at Wed Dec  9 23:07:28 2020.

 ----------------------------------------------------------------------
 # B3LYP/6-311++G(d,p) empiricaldispersion=gd3bj scf=xqc pop=npa geom=c
 heck
 ----------------------------------------------------------------------

 -------------------------------------
 CID_130651235_JID_3295_Energie_kation
 -------------------------------------
 Structure from the checkpoint file:  "JID_3295.chk"
 Charge =  1 Multiplicity = 2

 SCF Done:  E(UB3LYP) =  -992.358025623     A.U. after   26 cycles
 Normal termination of Gaussian 16 at Wed Dec  9 23:16:58 2020.
 Gaussian 16:  ES64L-G16RevA.03 25-Dec-2016

 ----------------------------------------------------------------------
 # B3LYP/6-311++G(d,p) empiricaldispersion=gd3bj scf=xqc pop=npa geom=c
 heck
 ----------------------------------------------------------------------

 ------------------------------------
 CID_130651235_JID_3295_Energie_anion
 ------------------------------------
 Structure from the checkpoint file:  "JID_3295.chk"
 Charge = -1 Multiplicity = 2

                         Standard orientation:
 ---------------------------------------------------------------------
 Center     Atomic      Atomic             Coordinates (Angstroms)
 Number     Number       Type             X           Y           Z
 ---------------------------------------------------------------------
      1          6           0       -3.396465   -1.390358   -0.034236
      2          6           0       -2.378101   -0.297565   -0.375586
      3          6           0       -3.044874    0.881287   -1.092562
      4          6           0       -1.661025    0.157842    0.921581
      5          6           0       -0.564853    1.160762    0.649774
      6          8           0       -0.704967    2.368222    0.758412
      7          7           0        0.664062    0.678827    0.179867
      8          6           0        1.717507    1.640024   -0.183884
      9          6           0        2.852691    0.827198   -0.824293
     10          6           0        2.917060   -0.493183   -0.060892
     11         16           0        1.173437   -0.968041    0.087118
     12          8           0        0.892646   -1.656063    1.349347
     13          8           0        0.725348   -1.561130   -1.176602
     14          1           0       -4.160777   -1.011834    0.656537
     15          1           0       -2.910693   -2.252548    0.435993
     16          1           0       -3.907215   -1.740899   -0.938120
     17          1           0       -1.625653   -0.733510   -1.043153
     18          1           0       -3.815811    1.336327   -0.458171
     19          1           0       -2.325255    1.665826   -1.346925
     20          1           0       -3.525124    0.545948   -2.018639
     21          1           0       -2.377733    0.659134    1.579186
     22          1           0       -1.260413   -0.713898    1.446699
     23          1           0        1.302573    2.384842   -0.865358
     24          1           0        2.055006    2.161822    0.718817
     25          1           0        3.801911    1.366065   -0.768645
     26          1           0        2.631697    0.628706   -1.877271
     27          1           0        3.303315   -0.380763    0.955777
     28          1           0        3.434874   -1.302616   -0.578349
 ---------------------------------------------------------------------

 SCF Done:  E(UB3LYP) =  -992.695157293     A.U. after   32 cycles

 The electronic state is 2-A.
 Alpha  occ. eigenvalues --  -88.97775 -19.03618 -19.03269 -19.01251 -14.26961
 Alpha  occ. eigenvalues --  -10.19577 -10.12049 -10.11900 -10.09458 -10.09169
 Alpha  occ. eigenvalues --  -10.08905 -10.07848 -10.07171  -8.04043  -6.00373
 Alpha  occ. eigenvalues --   -6.00247  -6.00081  -1.03511  -0.96306  -0.92452
 Alpha  occ. eigenvalues --   -0.85284  -0.73664  -0.71861  -0.65212  -0.63089
 Alpha  occ. eigenvalues --   -0.60232  -0.56278  -0.53161  -0.48998  -0.45980
 Alpha  occ. eigenvalues --   -0.42938  -0.41353  -0.39876  -0.38464  -0.37605
 Alpha  occ. eigenvalues --   -0.36872  -0.36551  -0.34696  -0.34412  -0.33068
 Alpha  occ. eigenvalues --   -0.31326  -0.30526  -0.30290  -0.29576  -0.28500
 Alpha  occ. eigenvalues --   -0.26940  -0.26037  -0.25860  -0.25604  -0.24535
 Alpha  occ. eigenvalues --   -0.23675  -0.22584  -0.21744  -0.17828  -0.17375
 Alpha  occ. eigenvalues --    0.04458
 Alpha virt. eigenvalues --    0.06153   0.07698   0.07995   0.08274   0.08778
 Alpha virt. eigenvalues --    0.09279   0.09593   0.10922   0.11322   0.11535
 Alpha virt. eigenvalues --    0.11959   0.12405   0.12721   0.12818   0.13187

  Beta  occ. eigenvalues --  -88.97774 -19.03615 -19.03255 -19.01243 -14.26961
  Beta  occ. eigenvalues --  -10.19561 -10.12019 -10.11846 -10.09454 -10.09103
  Beta  occ. eigenvalues --  -10.08902 -10.07839 -10.07159  -8.04042  -6.00372
  Beta  occ. eigenvalues --   -6.00245  -6.00080  -1.03496  -0.96286  -0.92436
  Beta  occ. eigenvalues --   -0.85263  -0.73635  -0.71813  -0.65151  -0.63052
  Beta  occ. eigenvalues --   -0.60211  -0.56227  -0.53032  -0.48975  -0.45947
  Beta  occ. eigenvalues --   -0.42876  -0.41320  -0.39830  -0.38435  -0.37573
  Beta  occ. eigenvalues --   -0.36845  -0.36517  -0.34660  -0.34390  -0.32978
  Beta  occ. eigenvalues --   -0.31295  -0.30502  -0.30243  -0.29553  -0.28440
  Beta  occ. eigenvalues --   -0.26883  -0.26016  -0.25839  -0.25577  -0.24515
  Beta  occ. eigenvalues --   -0.23661  -0.22554  -0.21698  -0.17815  -0.17358
  Beta virt. eigenvalues --    0.06186   0.07705   0.08017   0.08320   0.08738
  Beta virt. eigenvalues --    0.09219   0.09927   0.10108   0.10935   0.11830
  Beta virt. eigenvalues --    0.11936   0.12186   0.12744   0.12940   0.13048

 Mulliken charges and spin densities:
               1          2
     1  C   -0.439372  -0.181266
     2  C    0.050080   0.412053
     3  C   -0.205061  -0.427962
     4  C   -0.104945  -0.325304
     5  C   -0.384688   0.155928
     6  O   -0.260530   0.031148
     7  N   -0.460186   0.272914
     8  C    0.622444  -0.770059
     9  C    1.030640  -1.441104
    10  C   -0.304817  -0.390928
    11  S    1.420092  -0.923081
    12  O   -0.124447   0.032808
    13  O   -0.166808   0.022782
    14  H    0.073243   0.051732
    15  H    0.130108   0.024080
    16  H    0.016753   0.122294
    17  H    0.112934   0.090326
    18  H    0.101211   0.023910
    19  H    0.038665   0.150720
    20  H   -0.028925   0.163933
    21  H    0.111609   0.085499
    22  H    0.233987  -0.013719
    23  H   -0.103148   0.297191
    24  H   -0.181344   0.417849
    25  H   -1.417797   1.655964
    26  H    0.007373   0.193532
    27  H   -0.220181   0.466946
    28  H   -0.546892   0.801815
 Sum of Mulliken charges =  -1.00000   1.00000

 Dipole moment (field-independent basis, Debye):
    X=             -9.4775    Y=             -2.8342    Z=              1.0258  Tot=              9.9452
 Quadrupole moment (field-independent basis, Debye-Ang):
   XX=           -168.3840   YY=           -131.2220   ZZ=           -117.4373
   XY=             -8.6448   XZ=              0.0671   YZ=             -1.6498

 Summary of Natural Population Analysis:

                                       Natural Population
                Natural  -----------------------------------------------
    Atom  No    Charge         Core      Valence    Rydberg      Total
 -----------------------------------------------------------------------
      C    1   -0.28173      0.99965     2.27730    0.00478     3.28173
      C    2   -0.12044      0.99961     2.11048    0.01035     3.12044
      C    3   -0.28586      0.99965     2.28103    0.00518     3.28586
      C    4   -0.23906      0.99957     2.23126    0.00823     3.23906
      C    5    0.36116      0.99964     1.61574    0.02346     2.63884
      O    6   -0.30495      0.99988     3.29956    0.00551     4.30495
      N    7   -0.36652      0.99964     2.85548    0.01141     3.86652
      C    8   -0.08062      0.99961     2.06811    0.01289     3.08062
      C    9   -0.20618      0.99963     2.19548    0.01108     3.20618
      C   10   -0.27836      0.99960     2.26491    0.01385     3.27836
      S   11    1.08852      4.99929     1.81621    0.09598     6.91148
      O   12   -0.45440      0.99990     3.44895    0.00554     4.45440
      O   13   -0.45300      0.99990     3.44758    0.00552     4.45300
      H   14    0.09345      0.00000     0.40560    0.00096     0.40655
      H   15    0.10142      0.00000     0.39773    0.00085     0.39858
      H   16    0.09909      0.00000     0.40001    0.00090     0.40091
      H   17    0.10745      0.00000     0.39019    0.00236     0.39255
      H   18    0.09482      0.00000     0.40422    0.00096     0.40518
      H   19    0.10641      0.00000     0.39262    0.00097     0.39359
      H   20    0.09774      0.00000     0.40136    0.00090     0.40226
      H   21    0.10809      0.00000     0.39090    0.00101     0.39191
      H   22    0.11980      0.00000     0.37889    0.00131     0.38020
      H   23    0.10977      0.00000     0.38898    0.00125     0.39023
      H   24    0.10448      0.00000     0.39366    0.00186     0.39552
      H   25    0.12554      0.00000     0.35559    0.01887     0.37446
      H   26    0.10648      0.00000     0.39166    0.00186     0.39352
      H   27    0.12213      0.00000     0.37508    0.00279     0.37787
      H   28    0.12477      0.00000     0.37306    0.00217     0.37523
 =======================================================================
   * Total *   -0.00000     16.99558    37.75162    0.25281    55.00000

 Normal termination of Gaussian 16 at Wed Dec  9 23:28:33 2020.
