 Gaussian 16, Revision A.03,

 -----------------------------------------------------------
 # opt freq B3LYP/6-31G(d) empiricaldispersion=gd3bj scf=xqc
 -----------------------------------------------------------

 ------------------------------
 CID_55037254_JID_8449_neutraal
 ------------------------------
 Symbolic Z-matrix:
 Charge =  0 Multiplicity = 1

 SCF Done:  E(RB3LYP) =  -806.732513391     A.U. after   14 cycles
 SCF Done:  E(RB3LYP) =  -806.738062430     A.U. after   13 cycles
 SCF Done:  E(RB3LYP) =  -806.734357562     A.U. after   14 cycles
 SCF Done:  E(RB3LYP) =  -806.737304449     A.U. after   12 cycles
 SCF Done:  E(RB3LYP) =  -806.740022541     A.U. after   10 cycles
 SCF Done:  E(RB3LYP) =  -806.741217513     A.U. after   12 cycles
 SCF Done:  E(RB3LYP) =  -806.741607853     A.U. after   11 cycles
 SCF Done:  E(RB3LYP) =  -806.741734963     A.U. after   10 cycles
 SCF Done:  E(RB3LYP) =  -806.741769698     A.U. after   11 cycles
 SCF Done:  E(RB3LYP) =  -806.741796982     A.U. after    9 cycles
 SCF Done:  E(RB3LYP) =  -806.744538739     A.U. after    8 cycles
 SCF Done:  E(RB3LYP) =  -806.744539110     A.U. after    7 cycles
 SCF Done:  E(RB3LYP) =  -806.744539230     A.U. after    7 cycles
 SCF Done:  E(RB3LYP) =  -806.744539231     A.U. after    6 cycles
 SCF Done:  E(RB3LYP) =  -806.744539273     A.U. after    7 cycles
 Optimization completed.
    -- Stationary point found.
 Normal termination of Gaussian 16 at Sun Dec 13 16:51:45 2020.

 --------------------------------------------------------------------
 #N Geom=AllCheck Guess=TCheck SCRF=Check GenChk RB3LYP/6-31G(d) Freq
 --------------------------------------------------------------------

 Structure from the checkpoint file:  "JID_8449.chk"
 ------------------------------
 CID_55037254_JID_8449_neutraal
 ------------------------------
 Charge =  0 Multiplicity = 1

 SCF Done:  E(RB3LYP) =  -806.744539273     A.U. after    1 cycles

  Exact polarizability: 209.318   6.942 177.734 -15.813   4.965 116.136
 Approx polarizability: 279.564   4.307 266.576 -30.197   9.779 182.456

                      1                      2                      3
                      A                      A                      A
 Frequencies --     12.2653                38.6009                42.9414
 Red. masses --      4.1291                 1.0425                 3.0891
 Frc consts  --      0.0004                 0.0009                 0.0034
 IR Inten    --      0.0580                 0.1378                 0.1787

                      4                      5                      6
                      A                      A                      A
 Frequencies --     59.7972                92.8501                96.5583
 Red. masses --      4.0131                 4.4067                 4.3646
 Frc consts  --      0.0085                 0.0224                 0.0240
 IR Inten    --      0.2676                 1.8333                 3.3088

                      7                      8                      9
                      A                      A                      A
 Frequencies --    133.8437               151.7355               181.7882
 Red. masses --      1.0508                 3.7140                 3.3513
 Frc consts  --      0.0111                 0.0504                 0.0653
 IR Inten    --      0.1071                 0.8392                 3.9216

                     10                     11                     12
                      A                      A                      A
 Frequencies --    203.6835               234.1301               243.6036
 Red. masses --      3.8517                 2.7725                 3.2007
 Frc consts  --      0.0941                 0.0895                 0.1119
 IR Inten    --      0.3490                 0.5271                 0.1963

                     13                     14                     15
                      A                      A                      A
 Frequencies --    264.8070               273.4838               295.0455
 Red. masses --      1.8164                 2.5533                 2.9420
 Frc consts  --      0.0750                 0.1125                 0.1509
 IR Inten    --      0.3953                 1.4905                 3.1415

                     16                     17                     18
                      A                      A                      A
 Frequencies --    321.4318               338.2713               356.0113
 Red. masses --      3.3591                 3.9605                 2.2394
 Frc consts  --      0.2045                 0.2670                 0.1672
 IR Inten    --      2.9739                 3.5842                11.6459

                     19                     20                     21
                      A                      A                      A
 Frequencies --    412.0187               414.3764               438.2724
 Red. masses --      2.1980                 3.2896                 2.2068
 Frc consts  --      0.2198                 0.3328                 0.2497
 IR Inten    --     32.6746                 3.0788                 2.8530

                     22                     23                     24
                      A                      A                      A
 Frequencies --    447.4117               472.3276               499.2611
 Red. masses --      1.6291                 3.0650                 2.7395
 Frc consts  --      0.1921                 0.4029                 0.4023
 IR Inten    --     45.1637                 7.8488                 0.3190

                     25                     26                     27
                      A                      A                      A
 Frequencies --    514.5230               538.7579               566.2892
 Red. masses --      3.8401                 3.1461                 3.7025
 Frc consts  --      0.5990                 0.5380                 0.6995
 IR Inten    --      1.1569                 2.7246                 2.7551

                     28                     29                     30
                      A                      A                      A
 Frequencies --    592.4563               597.7600               612.0238
 Red. masses --      4.2953                 4.3192                 3.2848
 Frc consts  --      0.8883                 0.9093                 0.7249
 IR Inten    --      1.0972                14.7073                 3.2980

                     31                     32                     33
                      A                      A                      A
 Frequencies --    615.4498               722.3000               756.8615
 Red. masses --      1.9665                 2.1791                 1.8765
 Frc consts  --      0.4389                 0.6698                 0.6333
 IR Inten    --      4.6128                43.0860               104.0792

                     34                     35                     36
                      A                      A                      A
 Frequencies --    781.5563               787.0642               835.2053
 Red. masses --      3.0300                 2.9124                 1.2501
 Frc consts  --      1.0905                 1.0630                 0.5138
 IR Inten    --     15.4612                23.1633                19.8700

                     37                     38                     39
                      A                      A                      A
 Frequencies --    847.2055               874.2531               881.6638
 Red. masses --      1.4071                 1.5659                 3.1678
 Frc consts  --      0.5951                 0.7052                 1.4508
 IR Inten    --      3.6786                 0.8925                10.0305

                     40                     41                     42
                      A                      A                      A
 Frequencies --    914.8840               933.0084               959.5838
 Red. masses --      2.5741                 2.2141                 2.3088
 Frc consts  --      1.2694                 1.1356                 1.2526
 IR Inten    --     20.2020                12.8345                60.5212

                     43                     44                     45
                      A                      A                      A
 Frequencies --    986.7159               991.3886              1043.8405
 Red. masses --      3.1479                 2.1932                 2.2858
 Frc consts  --      1.8058                 1.2700                 1.4675
 IR Inten    --      0.5304                 3.0553                10.4639

                     46                     47                     48
                      A                      A                      A
 Frequencies --   1044.9578              1058.4643              1070.4521
 Red. masses --      1.4499                 2.2104                 1.5615
 Frc consts  --      0.9328                 1.4591                 1.0542
 IR Inten    --      0.5082                14.0318                23.7464

                     49                     50                     51
                      A                      A                      A
 Frequencies --   1075.5845              1076.6040              1092.1798
 Red. masses --      1.5302                 3.1472                 2.4532
 Frc consts  --      1.0430                 2.1492                 1.7241
 IR Inten    --      3.5833                25.6503                 8.9389

                     52                     53                     54
                      A                      A                      A
 Frequencies --   1105.7125              1112.1883              1155.0622
 Red. masses --      1.9285                 2.0167                 4.1248
 Frc consts  --      1.3891                 1.4698                 3.2424
 IR Inten    --      7.5349                 0.7427                80.7897

                     55                     56                     57
                      A                      A                      A
 Frequencies --   1159.0793              1164.1507              1174.6590
 Red. masses --      2.2412                 2.0124                 2.9650
 Frc consts  --      1.7740                 1.6069                 2.4105
 IR Inten    --     21.7204                30.9495                32.5098

                     58                     59                     60
                      A                      A                      A
 Frequencies --   1199.7833              1212.0633              1247.5974
 Red. masses --      1.6189                 2.2267                 1.0708
 Frc consts  --      1.3730                 1.9274                 0.9820
 IR Inten    --     25.7244                10.8980                 3.7533

                     61                     62                     63
                      A                      A                      A
 Frequencies --   1253.6060              1284.3774              1299.7183
 Red. masses --      2.6539                 1.2904                 1.4492
 Frc consts  --      2.4573                 1.2542                 1.4424
 IR Inten    --    144.7320                17.9091                 5.7596

                     64                     65                     66
                      A                      A                      A
 Frequencies --   1309.2916              1320.8242              1345.3250
 Red. masses --      1.2144                 1.2944                 1.3033
 Frc consts  --      1.2265                 1.3305                 1.3898
 IR Inten    --     29.9579                19.4966                30.7983

                     67                     68                     69
                      A                      A                      A
 Frequencies --   1351.6333              1368.9858              1380.1854
 Red. masses --      1.2460                 5.2795                 1.2731
 Frc consts  --      1.3411                 5.8296                 1.4288
 IR Inten    --      6.2654                13.3139                 3.4256

                     70                     71                     72
                      A                      A                      A
 Frequencies --   1392.7701              1407.3972              1416.0182
 Red. masses --      3.6982                 1.3337                 1.3670
 Frc consts  --      4.2267                 1.5565                 1.6150
 IR Inten    --     53.2925                26.1156                11.9332

                     73                     74                     75
                      A                      A                      A
 Frequencies --   1433.4287              1438.8391              1442.4372
 Red. masses --      1.3698                 1.2494                 1.3170
 Frc consts  --      1.6583                 1.5240                 1.6144
 IR Inten    --      7.2974                 0.3482                 0.4735

                     76                     77                     78
                      A                      A                      A
 Frequencies --   1442.5508              1452.0816              1482.9772
 Red. masses --      1.3621                 1.4986                 2.6622
 Frc consts  --      1.6700                 1.8618                 3.4496
 IR Inten    --      2.6245                 2.7900                29.3962

                     79                     80                     81
                      A                      A                      A
 Frequencies --   1505.5774              1512.0178              1513.0856
 Red. masses --      1.0915                 1.0830                 1.0584
 Frc consts  --      1.4578                 1.4587                 1.4276
 IR Inten    --      4.6763                 1.9086                 7.1959

                     82                     83                     84
                      A                      A                      A
 Frequencies --   1515.3590              1518.2304              1518.7912
 Red. masses --      1.0901                 1.2412                 1.0704
 Frc consts  --      1.4749                 1.6857                 1.4548
 IR Inten    --      0.6399                 8.6834                 4.8022

                     85                     86                     87
                      A                      A                      A
 Frequencies --   1525.0075              1531.7678              1532.5042
 Red. masses --      1.1108                 1.2744                 1.1342
 Frc consts  --      1.5221                 1.7617                 1.5694
 IR Inten    --     12.2955                17.2315                 8.2763

                     88                     89                     90
                      A                      A                      A
 Frequencies --   1537.3912              1557.0659              1648.7913
 Red. masses --      1.1124                 2.0647                 5.0293
 Frc consts  --      1.5490                 2.9494                 8.0554
 IR Inten    --     24.7452                74.6301                38.4560

                     91                     92                     93
                      A                      A                      A
 Frequencies --   1661.6417              1705.7645              2947.7698
 Red. masses --      5.4296                 1.2191                 1.0722
 Frc consts  --      8.8327                 2.0899                 5.4894
 IR Inten    --     26.0319               128.9693                16.4070

                     94                     95                     96
                      A                      A                      A
 Frequencies --   2949.4448              2958.9570              2996.3278
 Red. masses --      1.0725                 1.0715                 1.0702
 Frc consts  --      5.4972                 5.5276                 5.6611
 IR Inten    --     25.5059               157.6608                16.2547

                     97                     98                     99
                      A                      A                      A
 Frequencies --   3003.3343              3031.4398              3039.2993
 Red. masses --      1.0702                 1.0598                 1.0398
 Frc consts  --      5.6873                 5.7383                 5.6589
 IR Inten    --    105.0855                35.3432                57.8730

                    100                    101                    102
                      A                      A                      A
 Frequencies --   3040.8794              3075.4875              3089.6705
 Red. masses --      1.0444                 1.1015                 1.0910
 Frc consts  --      5.6899                 6.1383                 6.1360
 IR Inten    --     45.3673                17.4465                13.1209

                    103                    104                    105
                      A                      A                      A
 Frequencies --   3093.9957              3098.7166              3098.9350
 Red. masses --      1.0971                 1.0894                 1.0915
 Frc consts  --      6.1877                 6.1629                 6.1761
 IR Inten    --     23.4216                31.9508                18.8716

                    106                    107                    108
                      A                      A                      A
 Frequencies --   3103.3151              3118.7365              3120.7336
 Red. masses --      1.0905                 1.0932                 1.0948
 Frc consts  --      6.1874                 6.2647                 6.2820
 IR Inten    --     43.3681                43.3932                40.0659

                    109                    110                    111
                      A                      A                      A
 Frequencies --   3121.6091              3133.4698              3161.8399
 Red. masses --      1.1019                 1.1030                 1.0895
 Frc consts  --      6.3266                 6.3810                 6.4175
 IR Inten    --     18.0204                17.4009                23.6488

                    112                    113                    114
                      A                      A                      A
 Frequencies --   3176.8921              3423.7452              3625.5957
 Red. masses --      1.0899                 1.0606                 1.0877
 Frc consts  --      6.4808                 7.3250                 8.4237
 IR Inten    --     19.4095               431.0402                36.4946

 - Thermochemistry -
 -------------------
 Temperature   298.150 Kelvin.  Pressure   1.00000 Atm.
 Atom     1 has atomic number  6 and mass  12.00000

 Molecular mass:   250.16813 amu.
 Principal axes and moments of inertia in atomic units:
                           1         2         3
     Eigenvalues --  2353.390617698.102669191.90993
           X            0.99995   0.00833  -0.00619
           Y           -0.00827   0.99993   0.00892
           Z            0.00626  -0.00887   0.99994
 This molecule is an asymmetric top.
 Rotational symmetry number  1.
 Warning -- assumption of classical behavior for rotation
           may cause significant error
 Rotational temperatures (Kelvin)      0.03680     0.01125     0.00942
 Rotational constants (GHZ):           0.76687     0.23444     0.19634
 Zero-point vibrational energy     923167.1 (Joules/Mol)
                                  220.64223 (Kcal/Mol)
 Warning -- explicit consideration of  31 degrees of freedom as
           vibrations may cause significant error
 Vibrational temperatures:     17.65    55.54    61.78    86.03   133.59
          (Kelvin)            138.93   192.57   218.31   261.55   293.06
                              336.86   350.49   381.00   393.48   424.50
                              462.47   486.70   512.22   592.80   596.20
                              630.58   643.73   679.57   718.33   740.28
                              775.15   814.76   852.41   860.04   880.57
                              885.49  1039.23  1088.95  1124.49  1132.41
                             1201.67  1218.94  1257.86  1268.52  1316.31
                             1342.39  1380.63  1419.66  1426.39  1501.85
                             1503.46  1522.89  1540.14  1547.53  1548.99
                             1571.40  1590.87  1600.19  1661.88  1667.66
                             1674.95  1690.07  1726.22  1743.89  1795.01
                             1803.66  1847.93  1870.00  1883.78  1900.37
                             1935.62  1944.70  1969.67  1985.78  2003.89
                             2024.93  2037.33  2062.38  2070.17  2075.35
                             2075.51  2089.22  2133.67  2166.19  2175.46
                             2176.99  2180.26  2184.39  2185.20  2194.15
                             2203.87  2204.93  2211.96  2240.27  2372.24
                             2390.73  2454.21  4241.18  4243.59  4257.28
                             4311.05  4321.13  4361.57  4372.87  4375.15
                             4424.94  4445.35  4451.57  4458.36  4458.68
                             4464.98  4487.17  4490.04  4491.30  4508.36
                             4549.18  4570.84  4926.01  5216.42

 Zero-point correction=                           0.351616 (Hartree/Particle)
 Thermal correction to Energy=                    0.369545
 Thermal correction to Enthalpy=                  0.370489
 Thermal correction to Gibbs Free Energy=         0.304258
 Sum of electronic and zero-point Energies=           -806.392924
 Sum of electronic and thermal Energies=              -806.374994
 Sum of electronic and thermal Enthalpies=            -806.374050
 Sum of electronic and thermal Free Energies=         -806.440281

                     E (Thermal)             CV                S
                      KCal/Mol        Cal/Mol-Kelvin    Cal/Mol-Kelvin
 Total                  231.893             69.012            139.395
 Electronic               0.000              0.000              0.000
 Translational            0.889              2.981             42.451
 Rotational               0.889              2.981             33.476
 Vibrational            230.116             63.051             63.468
 Vibration     1          0.593              1.987              7.605
 Vibration     2          0.594              1.981              5.330
 Vibration     3          0.595              1.980              5.119
 Vibration     4          0.597              1.973              4.464
 Vibration     5          0.602              1.954              3.599
 Vibration     6          0.603              1.952              3.523
 Vibration     7          0.613              1.920              2.890
 Vibration     8          0.619              1.901              2.650
 Vibration     9          0.630              1.865              2.310
 Vibration    10          0.639              1.835              2.100
 Vibration    11          0.654              1.789              1.847
 Vibration    12          0.659              1.773              1.776
 Vibration    13          0.671              1.738              1.630
 Vibration    14          0.676              1.722              1.574
 Vibration    15          0.689              1.683              1.445
 Vibration    16          0.707              1.632              1.303
 Vibration    17          0.719              1.599              1.220
 Vibration    18          0.732              1.563              1.139
 Vibration    19          0.776              1.444              0.920
 Vibration    20          0.778              1.439              0.911
 Vibration    21          0.798              1.387              0.832
 Vibration    22          0.807              1.367              0.804
 Vibration    23          0.829              1.311              0.731
 Vibration    24          0.855              1.252              0.660
 Vibration    25          0.870              1.218              0.623
 Vibration    26          0.894              1.164              0.568
 Vibration    27          0.922              1.104              0.511
 Vibration    28          0.950              1.048              0.463
 Vibration    29          0.956              1.037              0.454
 Vibration    30          0.971              1.006              0.429
 Vibration    31          0.975              0.999              0.424

                           ! Non-Optimized Parameters !
 Normal termination of Gaussian 16 at Sun Dec 13 17:10:58 2020.

 ----------------------------------------------------------------------
 # B3LYP/6-311++G(d,p) empiricaldispersion=gd3bj scf=xqc pop=npa geom=c
 heck
 ----------------------------------------------------------------------

 --------------------------------------
 CID_55037254_JID_8449_Energie_neutraal
 --------------------------------------
 Structure from the checkpoint file:  "JID_8449.chk"
 Charge =  0 Multiplicity = 1

 SCF Done:  E(RB3LYP) =  -806.970700827     A.U. after   14 cycles
 Normal termination of Gaussian 16 at Sun Dec 13 17:19:30 2020.

 ----------------------------------------------------------------------
 # B3LYP/6-311++G(d,p) empiricaldispersion=gd3bj scf=xqc pop=npa geom=c
 heck
 ----------------------------------------------------------------------

 ------------------------------------
 CID_55037254_JID_8449_Energie_kation
 ------------------------------------
 Structure from the checkpoint file:  "JID_8449.chk"
 Charge =  1 Multiplicity = 2

 SCF Done:  E(UB3LYP) =  -806.711322099     A.U. after   24 cycles
 Normal termination of Gaussian 16 at Sun Dec 13 17:40:31 2020.
 Gaussian 16:  ES64L-G16RevA.03 25-Dec-2016

 ----------------------------------------------------------------------
 # B3LYP/6-311++G(d,p) empiricaldispersion=gd3bj scf=xqc pop=npa geom=c
 heck
 ----------------------------------------------------------------------

 -----------------------------------
 CID_55037254_JID_8449_Energie_anion
 -----------------------------------
 Structure from the checkpoint file:  "JID_8449.chk"
 Charge = -1 Multiplicity = 2

                         Standard orientation:
 ---------------------------------------------------------------------
 Center     Atomic      Atomic             Coordinates (Angstroms)
 Number     Number       Type             X           Y           Z
 ---------------------------------------------------------------------
      1          6           0        4.649769    2.239360   -0.346946
      2          6           0        3.537994    1.246333   -0.103771
      3          6           0        3.755993   -0.124028   -0.273810
      4          6           0        2.741864   -1.055366   -0.021239
      5          6           0        1.496130   -0.591715    0.404373
      6          6           0        1.244580    0.782955    0.592583
      7          6           0        2.284422    1.686234    0.325857
      8          7           0        0.010522    1.195443    1.072498
      9          8           0        0.467441   -1.476251    0.699007
     10          6           0       -0.262165   -1.992937   -0.413669
     11          6           0       -1.749664   -1.947664   -0.089298
     12          7           0       -2.279613   -0.586987    0.001687
     13          6           0       -2.458064    0.035385   -1.313633
     14          6           0       -2.977685    1.460561   -1.152638
     15          8           0       -4.191171    1.493469   -0.418686
     16          6           0       -4.015426    0.907821    0.863440
     17          6           0       -3.537803   -0.536042    0.751531
     18          6           0        2.974662   -2.534788   -0.198990
     19          1           0        4.273044    3.159570   -0.807589
     20          1           0        5.140608    2.525893    0.592596
     21          1           0        5.419818    1.822699   -1.004224
     22          1           0        4.729842   -0.477620   -0.603748
     23          1           0        2.103581    2.750839    0.463955
     24          1           0       -0.216761    2.163982    0.890199
     25          1           0       -0.764130    0.554694    0.893250
     26          1           0       -0.024735   -1.420046   -1.317720
     27          1           0        0.030401   -3.036085   -0.596790
     28          1           0       -2.303704   -2.549131   -0.835130
     29          1           0       -1.888948   -2.427949    0.884870
     30          1           0       -3.168090   -0.545237   -1.932449
     31          1           0       -1.497149    0.061637   -1.837255
     32          1           0       -2.211253    2.072080   -0.648925
     33          1           0       -3.190699    1.903350   -2.129467
     34          1           0       -4.986722    0.955280    1.363374
     35          1           0       -3.287075    1.490836    1.450997
     36          1           0       -4.324605   -1.139861    0.261438
     37          1           0       -3.366721   -0.948312    1.752121
     38          1           0        2.516852   -3.103412    0.617014
     39          1           0        2.537458   -2.906334   -1.135419
     40          1           0        4.044833   -2.760471   -0.225705
 ---------------------------------------------------------------------

 SCF Done:  E(UB3LYP) =  -806.956497706     A.U. after   33 cycles
 SCF Done:  E(UB3LYP) =  -806.956497706     a.u. after    1 cycles

 The electronic state is 2-A.
 Alpha  occ. eigenvalues --  -19.04034 -19.03964 -14.22809 -14.21004 -10.13102
 Alpha  occ. eigenvalues --  -10.12923 -10.12903 -10.11736 -10.11421 -10.10970
 Alpha  occ. eigenvalues --  -10.10797 -10.10715 -10.08464 -10.08419 -10.07826
 Alpha  occ. eigenvalues --  -10.07288 -10.06670 -10.06400  -0.95838  -0.95683
 Alpha  occ. eigenvalues --   -0.84460  -0.81561  -0.74977  -0.69161  -0.68847
 Alpha  occ. eigenvalues --   -0.67104  -0.64382  -0.60643  -0.59426  -0.57499
 Alpha  occ. eigenvalues --   -0.57016  -0.52138  -0.50353  -0.48284  -0.48177
 Alpha  occ. eigenvalues --   -0.43592  -0.42776  -0.41917  -0.39500  -0.39420
 Alpha  occ. eigenvalues --   -0.38563  -0.37909  -0.36951  -0.36668  -0.35561
 Alpha  occ. eigenvalues --   -0.34480  -0.33508  -0.32689  -0.32183  -0.31733
 Alpha  occ. eigenvalues --   -0.31455  -0.31083  -0.30128  -0.29553  -0.28470
 Alpha  occ. eigenvalues --   -0.27906  -0.27403  -0.27264  -0.26071  -0.25313
 Alpha  occ. eigenvalues --   -0.23823  -0.22767  -0.20519  -0.18413  -0.17736
 Alpha  occ. eigenvalues --   -0.14828  -0.13742  -0.10567   0.04197
 Alpha virt. eigenvalues --    0.05889   0.06158   0.06782   0.07311   0.07730
 Alpha virt. eigenvalues --    0.08185   0.08771   0.09119   0.09333   0.09587
 Alpha virt. eigenvalues --    0.09773   0.10333   0.10977   0.11228   0.11393

  Beta  occ. eigenvalues --  -19.04028 -19.03959 -14.22795 -14.20993 -10.13087
  Beta  occ. eigenvalues --  -10.12903 -10.12881 -10.11734 -10.11421 -10.10954
  Beta  occ. eigenvalues --  -10.10777 -10.10692 -10.08465 -10.08418 -10.07810
  Beta  occ. eigenvalues --  -10.07265 -10.06660 -10.06393  -0.95824  -0.95673
  Beta  occ. eigenvalues --   -0.84429  -0.81545  -0.74966  -0.69140  -0.68815
  Beta  occ. eigenvalues --   -0.67075  -0.64362  -0.60614  -0.59397  -0.57463
  Beta  occ. eigenvalues --   -0.56968  -0.52086  -0.50331  -0.48226  -0.48150
  Beta  occ. eigenvalues --   -0.43564  -0.42731  -0.41892  -0.39476  -0.39397
  Beta  occ. eigenvalues --   -0.38527  -0.37875  -0.36916  -0.36643  -0.35538
  Beta  occ. eigenvalues --   -0.34457  -0.33481  -0.32664  -0.32155  -0.31697
  Beta  occ. eigenvalues --   -0.31424  -0.31051  -0.30103  -0.29523  -0.28449
  Beta  occ. eigenvalues --   -0.27875  -0.27366  -0.27245  -0.26045  -0.25298
  Beta  occ. eigenvalues --   -0.23795  -0.22742  -0.20505  -0.18392  -0.17696
  Beta  occ. eigenvalues --   -0.14746  -0.13725  -0.10556
  Beta virt. eigenvalues --    0.06042   0.06564   0.06869   0.07463   0.07709
  Beta virt. eigenvalues --    0.08082   0.08352   0.08941   0.09569   0.09644
  Beta virt. eigenvalues --    0.09971   0.10026   0.10487   0.11142   0.11486

 Mulliken charges and spin densities:
               1          2
     1  C    0.501395  -0.943671
     2  C    0.173963   0.476431
     3  C   -0.611068  -0.590570
     4  C   -0.008597   0.769238
     5  C   -0.568372   0.211550
     6  C    0.324099  -0.447486
     7  C   -0.319574   0.205244
     8  N   -0.301699  -0.005322
     9  O   -0.113619   0.017263
    10  C   -0.960911   0.836073
    11  C    1.113091  -1.650180
    12  N   -0.183435   0.139786
    13  C    0.103680  -0.205484
    14  C    0.262199  -0.720777
    15  O   -0.160793   0.058343
    16  C    0.279151  -0.791471
    17  C    0.093192  -0.172958
    18  C    0.407262  -0.966801
    19  H   -0.053690   0.192772
    20  H    0.094323   0.065322
    21  H   -0.098283   0.241479
    22  H    0.045831   0.051653
    23  H   -0.280455   0.408842
    24  H    0.138380   0.073067
    25  H    0.675412  -0.177911
    26  H    0.167016  -0.031278
    27  H   -0.277115   0.442396
    28  H   -0.312898   0.452379
    29  H   -0.031683   0.226538
    30  H   -0.101198   0.271608
    31  H   -0.141746   0.234809
    32  H    0.027698   0.103054
    33  H   -0.264543   0.456253
    34  H   -0.226758   0.420432
    35  H    0.005809   0.134989
    36  H   -0.073174   0.234259
    37  H   -0.061391   0.200590
    38  H    0.107574   0.082228
    39  H   -0.198553   0.379891
    40  H   -0.170519   0.317420
 Sum of Mulliken charges =  -1.00000   1.00000

 Dipole moment (field-independent basis, Debye):
    X=              1.5877    Y=              1.2546    Z=              1.6682  Tot=              2.6225
 Quadrupole moment (field-independent basis, Debye-Ang):
   XX=           -195.8457   YY=           -163.2412   ZZ=           -149.5295
   XY=              0.2424   XZ=             -1.1189   YZ=             -1.0027

 Summary of Natural Population Analysis:

                                       Natural Population
                Natural  -----------------------------------------------
    Atom  No    Charge         Core      Valence    Rydberg      Total
 -----------------------------------------------------------------------
      C    1   -0.28981      0.99964     2.28523    0.00495     3.28981
      C    2   -0.01127      0.99953     2.00357    0.00817     3.01127
      C    3   -0.12153      0.99948     2.11378    0.00828     3.12153
      C    4   -0.02301      0.99948     2.01347    0.01006     3.02301
      C    5    0.12802      0.99927     1.85996    0.01274     2.87198
      C    6    0.07909      0.99945     1.91042    0.01103     2.92091
      C    7   -0.12854      0.99949     2.12016    0.00889     3.12854
      N    8   -0.40300      0.99970     2.89357    0.00973     3.90300
      O    9   -0.29683      0.99986     3.28797    0.00900     4.29683
      C   10   -0.01337      0.99955     2.00140    0.01241     3.01337
      C   11   -0.09113      0.99960     2.07980    0.01174     3.09113
      N   12   -0.29456      0.99971     2.78096    0.01389     3.79456
      C   13   -0.09971      0.99960     2.08902    0.01109     3.09971
      C   14   -0.01359      0.99957     2.00101    0.01301     3.01359
      O   15   -0.29705      0.99989     3.28782    0.00934     4.29705
      C   16   -0.01416      0.99957     2.00214    0.01244     3.01416
      C   17   -0.09590      0.99961     2.08560    0.01070     3.09590
      C   18   -0.29510      0.99964     2.28960    0.00587     3.29510
      H   19    0.10185      0.00000     0.39698    0.00118     0.39815
      H   20    0.10112      0.00000     0.39760    0.00127     0.39888
      H   21    0.10046      0.00000     0.39854    0.00100     0.39954
      H   22    0.09520      0.00000     0.40355    0.00125     0.40480
      H   23    0.09544      0.00000     0.40309    0.00147     0.40456
      H   24    0.18079      0.00000     0.31705    0.00216     0.31921
      H   25    0.20326      0.00000     0.29251    0.00423     0.29674
      H   26    0.08773      0.00000     0.41033    0.00194     0.41227
      H   27    0.08793      0.00000     0.41061    0.00146     0.41207
      H   28    0.08927      0.00000     0.40894    0.00178     0.41073
      H   29    0.10115      0.00000     0.39729    0.00155     0.39885
      H   30    0.08677      0.00000     0.41156    0.00168     0.41323
      H   31    0.10329      0.00000     0.39508    0.00163     0.39671
      H   32    0.07817      0.00000     0.41990    0.00193     0.42183
      H   33    0.09464      0.00000     0.40408    0.00128     0.40536
      H   34    0.09351      0.00000     0.40526    0.00123     0.40649
      H   35    0.07947      0.00000     0.41891    0.00162     0.42053
      H   36    0.08578      0.00000     0.41271    0.00151     0.41422
      H   37    0.10151      0.00000     0.39717    0.00132     0.39849
      H   38    0.10790      0.00000     0.39102    0.00108     0.39210
      H   39    0.10550      0.00000     0.39321    0.00129     0.39450
      H   40    0.10070      0.00000     0.39850    0.00080     0.39930
 =======================================================================
   * Total *    0.00000     17.99264    49.78937    0.21799    68.00000

 Normal termination of Gaussian 16 at Sun Dec 13 18:09:34 2020.
