 Gaussian 16, Revision A.03,

 -----------------------------------------------------------
 # opt freq B3LYP/6-31G(d) empiricaldispersion=gd3bj scf=xqc
 -----------------------------------------------------------

 -------------------------------
 CID_149721591_JID_2769_neutraal
 -------------------------------
 Symbolic Z-matrix:
 Charge =  0 Multiplicity = 1

 SCF Done:  E(RB3LYP) =  -553.284453815     A.U. after   16 cycles
 SCF Done:  E(RB3LYP) =  -553.288278292     A.U. after   14 cycles
 SCF Done:  E(RB3LYP) =  -553.288677593     A.U. after   12 cycles
 SCF Done:  E(RB3LYP) =  -553.288802142     A.U. after   12 cycles
 SCF Done:  E(RB3LYP) =  -553.288822184     A.U. after   11 cycles
 SCF Done:  E(RB3LYP) =  -553.288823249     A.U. after   10 cycles
 SCF Done:  E(RB3LYP) =  -553.288825979     A.U. after   10 cycles
 SCF Done:  E(RB3LYP) =  -553.288826291     A.U. after    9 cycles
 SCF Done:  E(RB3LYP) =  -553.288826637     A.U. after    9 cycles
 SCF Done:  E(RB3LYP) =  -553.288827028     A.U. after    9 cycles
 SCF Done:  E(RB3LYP) =  -553.288827512     A.U. after   11 cycles
 SCF Done:  E(RB3LYP) =  -553.288828037     A.U. after   11 cycles
 SCF Done:  E(RB3LYP) =  -553.288828123     A.U. after    9 cycles
 SCF Done:  E(RB3LYP) =  -553.288828122     A.U. after    7 cycles
 Optimization completed.
    -- Stationary point found.
 Normal termination of Gaussian 16 at Wed Dec  9 18:00:11 2020.

 --------------------------------------------------------------------
 #N Geom=AllCheck Guess=TCheck SCRF=Check GenChk RB3LYP/6-31G(d) Freq
 --------------------------------------------------------------------

 Structure from the checkpoint file:  "JID_2769.chk"
 -------------------------------
 CID_149721591_JID_2769_neutraal
 -------------------------------
 Charge =  0 Multiplicity = 1

 SCF Done:  E(RB3LYP) =  -553.288828122     A.U. after    1 cycles

  Exact polarizability: 157.730   0.785  88.497 -11.488   0.071  87.201
 Approx polarizability: 214.164   2.951 123.525 -32.421  -2.669 144.064

                      1                      2                      3
                      A                      A                      A
 Frequencies --     20.3569                49.9937                59.4575
 Red. masses --      5.7285                 4.3714                 3.3907
 Frc consts  --      0.0014                 0.0064                 0.0071
 IR Inten    --      1.2845                 0.3566                 1.2390

                      4                      5                      6
                      A                      A                      A
 Frequencies --     98.4479               145.4131               224.2292
 Red. masses --      2.9087                 2.7161                 2.4523
 Frc consts  --      0.0166                 0.0338                 0.0726
 IR Inten    --      1.1303                 2.1974                 0.2553

                      7                      8                      9
                      A                      A                      A
 Frequencies --    239.0281               249.6606               267.8614
 Red. masses --      1.9154                 1.8876                 1.9109
 Frc consts  --      0.0645                 0.0693                 0.0808
 IR Inten    --      0.0148                 2.9131                 0.4479

                     10                     11                     12
                      A                      A                      A
 Frequencies --    284.4905               345.9065               396.9962
 Red. masses --      1.9806                 3.9094                 2.6478
 Frc consts  --      0.0944                 0.2756                 0.2459
 IR Inten    --      0.7798                 4.2154                 6.4821

                     13                     14                     15
                      A                      A                      A
 Frequencies --    424.1333               446.1522               467.9412
 Red. masses --      3.0636                 2.1483                 2.2125
 Frc consts  --      0.3247                 0.2519                 0.2854
 IR Inten    --      5.7537                 1.0034                37.5103

                     16                     17                     18
                      A                      A                      A
 Frequencies --    516.4498               533.3603               545.1146
 Red. masses --      2.7397                 3.0501                 8.7906
 Frc consts  --      0.4305                 0.5112                 1.5390
 IR Inten    --     10.4869                 0.8144                 1.5081

                     19                     20                     21
                      A                      A                      A
 Frequencies --    555.3928               619.5663               788.6418
 Red. masses --      3.6927                 2.6840                 1.9128
 Frc consts  --      0.6711                 0.6070                 0.7009
 IR Inten    --     11.6294                 1.6738                11.2567

                     22                     23                     24
                      A                      A                      A
 Frequencies --    821.2197               821.6260               881.8337
 Red. masses --      1.4496                 1.4677                 2.3498
 Frc consts  --      0.5760                 0.5838                 1.0766
 IR Inten    --      3.1089                 0.0443                 3.4430

                     25                     26                     27
                      A                      A                      A
 Frequencies --    900.6128               943.8791               966.9410
 Red. masses --      2.4770                 1.8048                 2.9974
 Frc consts  --      1.1837                 0.9473                 1.6512
 IR Inten    --     11.2226                 4.3589                 3.7914

                     28                     29                     30
                      A                      A                      A
 Frequencies --   1009.4193              1014.9886              1044.7011
 Red. masses --      2.9327                 1.4473                 2.1476
 Frc consts  --      1.7606                 0.8785                 1.3810
 IR Inten    --      4.8595                 0.2047                 1.2998

                     31                     32                     33
                      A                      A                      A
 Frequencies --   1079.1694              1100.8235              1106.6291
 Red. masses --      3.6383                 3.2785                 2.9111
 Frc consts  --      2.4964                 2.3408                 2.1004
 IR Inten    --     89.6848                 4.0195                 0.2085

                     34                     35                     36
                      A                      A                      A
 Frequencies --   1129.4465              1166.2208              1171.5503
 Red. masses --      2.1097                 2.4231                 2.0070
 Frc consts  --      1.5856                 1.9417                 1.6230
 IR Inten    --     41.0677                 8.1443                 6.7112

                     37                     38                     39
                      A                      A                      A
 Frequencies --   1199.3309              1207.9383              1226.5814
 Red. masses --      1.4560                 1.7121                 1.6285
 Frc consts  --      1.2339                 1.4719                 1.4436
 IR Inten    --      1.3914                 3.5980                 1.1736

                     40                     41                     42
                      A                      A                      A
 Frequencies --   1281.0145              1292.5334              1308.7923
 Red. masses --      1.4195                 1.7016                 1.2506
 Frc consts  --      1.3724                 1.6749                 1.2621
 IR Inten    --      7.5688                13.1087                 0.7338

                     43                     44                     45
                      A                      A                      A
 Frequencies --   1330.0928              1335.2795              1339.3322
 Red. masses --      1.2661                 1.2320                 1.1833
 Frc consts  --      1.3197                 1.2942                 1.2506
 IR Inten    --      2.0235                 0.4380                 0.1884

                     46                     47                     48
                      A                      A                      A
 Frequencies --   1377.1710              1386.6506              1403.7395
 Red. masses --      1.3562                 1.3340                 1.4520
 Frc consts  --      1.5155                 1.5113                 1.6857
 IR Inten    --      4.7726                 0.4740                 3.0026

                     49                     50                     51
                      A                      A                      A
 Frequencies --   1409.0175              1419.0045              1435.8000
 Red. masses --      1.2730                 1.4488                 1.3191
 Frc consts  --      1.4891                 1.7188                 1.6022
 IR Inten    --      5.3791                31.2911                40.4810

                     52                     53                     54
                      A                      A                      A
 Frequencies --   1465.9160              1502.1199              1511.3502
 Red. masses --      2.3484                 1.0896                 1.0662
 Frc consts  --      2.9733                 1.4485                 1.4348
 IR Inten    --     16.1310                 1.6202                 1.8604

                     55                     56                     57
                      A                      A                      A
 Frequencies --   1516.0112              1517.1551              1527.6354
 Red. masses --      1.0626                 1.0924                 1.0829
 Frc consts  --      1.4388                 1.4815                 1.4890
 IR Inten    --      0.3259                10.5410                 0.2628

                     58                     59                     60
                      A                      A                      A
 Frequencies --   1539.0633              1547.1947              2195.3483
 Red. masses --      1.0637                 1.0941                13.4319
 Frc consts  --      1.4845                 1.5431                38.1411
 IR Inten    --      2.1192                 2.9761               556.3738

                     61                     62                     63
                      A                      A                      A
 Frequencies --   2969.4126              2977.0261              3028.6511
 Red. masses --      1.0731                 1.0714                 1.0655
 Frc consts  --      5.5751                 5.5946                 5.7586
 IR Inten    --     20.6891                75.0363                48.7312

                     64                     65                     66
                      A                      A                      A
 Frequencies --   3033.5425              3049.0442              3054.0746
 Red. masses --      1.0822                 1.0623                 1.0361
 Frc consts  --      5.8677                 5.8184                 5.6939
 IR Inten    --      3.1495                14.3834                17.2953

                     67                     68                     69
                      A                      A                      A
 Frequencies --   3054.9108              3092.4669              3099.2342
 Red. masses --      1.0635                 1.0983                 1.0954
 Frc consts  --      5.8478                 6.1884                 6.1990
 IR Inten    --     39.8051                27.2666                54.6742

                     70                     71                     72
                      A                      A                      A
 Frequencies --   3100.0230              3102.7807              3111.2185
 Red. masses --      1.0973                 1.1030                 1.0908
 Frc consts  --      6.2133                 6.2565                 6.2207
 IR Inten    --      3.2975                41.5180                32.0006

                     73                     74                     75
                      A                      A                      A
 Frequencies --   3120.8899              3140.6777              3223.5477
 Red. masses --      1.1017                 1.1028                 1.0865
 Frc consts  --      6.3220                 6.4089                 6.6521
 IR Inten    --     36.9855                35.6153                 4.2313

 - Thermochemistry -
 -------------------
 Temperature   298.150 Kelvin.  Pressure   1.00000 Atm.
 Atom     1 has atomic number  6 and mass  12.00000

 Molecular mass:   169.12151 amu.
 Principal axes and moments of inertia in atomic units:
                           1         2         3
     Eigenvalues --   615.461004854.137185084.71754
           X            0.99997   0.00598  -0.00379
           Y           -0.00597   0.99998   0.00254
           Z            0.00381  -0.00252   0.99999
 This molecule is an asymmetric top.
 Rotational symmetry number  1.
 Warning -- assumption of classical behavior for rotation
           may cause significant error
 Rotational temperatures (Kelvin)      0.14073     0.01784     0.01703
 Rotational constants (GHZ):           2.93234     0.37179     0.35493
 Zero-point vibrational energy     615294.6 (Joules/Mol)
                                  147.05894 (Kcal/Mol)
 Warning -- explicit consideration of  20 degrees of freedom as
           vibrations may cause significant error
 Vibrational temperatures:     29.29    71.93    85.55   141.64   209.22
          (Kelvin)            322.62   343.91   359.21   385.39   409.32
                              497.68   571.19   610.23   641.91   673.26
                              743.06   767.39   784.30   799.09   891.42
                             1134.68  1181.55  1182.14  1268.76  1295.78
                             1358.03  1391.21  1452.33  1460.34  1503.09
                             1552.68  1583.84  1592.19  1625.02  1677.93
                             1685.60  1725.57  1737.95  1764.78  1843.09
                             1859.67  1883.06  1913.71  1921.17  1927.00
                             1981.44  1995.08  2019.67  2027.26  2041.63
                             2065.80  2109.13  2161.22  2174.50  2181.20
                             2182.85  2197.93  2214.37  2226.07  3158.62
                             4272.32  4283.28  4357.55  4364.59  4386.89
                             4394.13  4395.34  4449.37  4459.11  4460.24
                             4464.21  4476.35  4490.26  4518.73  4637.97

 Zero-point correction=                           0.234353 (Hartree/Particle)
 Thermal correction to Energy=                    0.246816
 Thermal correction to Enthalpy=                  0.247761
 Thermal correction to Gibbs Free Energy=         0.194289
 Sum of electronic and zero-point Energies=           -553.054475
 Sum of electronic and thermal Energies=              -553.042012
 Sum of electronic and thermal Enthalpies=            -553.041068
 Sum of electronic and thermal Free Energies=         -553.094539

                     E (Thermal)             CV                S
                      KCal/Mol        Cal/Mol-Kelvin    Cal/Mol-Kelvin
 Total                  154.880             46.412            112.539
 Electronic               0.000              0.000              0.000
 Translational            0.889              2.981             41.284
 Rotational               0.889              2.981             31.097
 Vibrational            153.102             40.451             40.158
 Vibration     1          0.593              1.986              6.599
 Vibration     2          0.595              1.978              4.818
 Vibration     3          0.597              1.974              4.475
 Vibration     4          0.604              1.950              3.485
 Vibration     5          0.617              1.908              2.731
 Vibration     6          0.649              1.804              1.925
 Vibration     7          0.657              1.781              1.810
 Vibration     8          0.662              1.763              1.733
 Vibration     9          0.673              1.732              1.610
 Vibration    10          0.683              1.702              1.507
 Vibration    11          0.724              1.584              1.185
 Vibration    12          0.763              1.477              0.974
 Vibration    13          0.786              1.418              0.878
 Vibration    14          0.805              1.369              0.807
 Vibration    15          0.825              1.321              0.743
 Vibration    16          0.871              1.214              0.618
 Vibration    17          0.888              1.176              0.580
 Vibration    18          0.900              1.150              0.554
 Vibration    19          0.911              1.128              0.533
 Vibration    20          0.980              0.991              0.417

 Optimization completed.
    -- Stationary point found.
 Normal termination of Gaussian 16 at Wed Dec  9 18:06:17 2020.

 ----------------------------------------------------------------------
 # B3LYP/6-311++G(d,p) empiricaldispersion=gd3bj scf=xqc pop=npa geom=c
 heck
 ----------------------------------------------------------------------

 ---------------------------------------
 CID_149721591_JID_2769_Energie_neutraal
 ---------------------------------------
 Structure from the checkpoint file:  "JID_2769.chk"
 Charge =  0 Multiplicity = 1

 SCF Done:  E(RB3LYP) =  -553.443918914     A.U. after   15 cycles
 Normal termination of Gaussian 16 at Wed Dec  9 18:09:47 2020.

 ----------------------------------------------------------------------
 # B3LYP/6-311++G(d,p) empiricaldispersion=gd3bj scf=xqc pop=npa geom=c
 heck
 ----------------------------------------------------------------------

 -------------------------------------
 CID_149721591_JID_2769_Energie_kation
 -------------------------------------
 Structure from the checkpoint file:  "JID_2769.chk"
 Charge =  1 Multiplicity = 2

 SCF Done:  E(UB3LYP) =  -553.151955329     A.U. after   25 cycles
 Normal termination of Gaussian 16 at Wed Dec  9 18:16:32 2020.
 Gaussian 16:  ES64L-G16RevA.03 25-Dec-2016

 ----------------------------------------------------------------------
 # B3LYP/6-311++G(d,p) empiricaldispersion=gd3bj scf=xqc pop=npa geom=c
 heck
 ----------------------------------------------------------------------

 ------------------------------------
 CID_149721591_JID_2769_Energie_anion
 ------------------------------------
 Structure from the checkpoint file:  "JID_2769.chk"
 Charge = -1 Multiplicity = 2

                         Standard orientation:
 ---------------------------------------------------------------------
 Center     Atomic      Atomic             Coordinates (Angstroms)
 Number     Number       Type             X           Y           Z
 ---------------------------------------------------------------------
      1          6           0       -3.965990   -0.952168    0.693151
      2          6           0       -3.661126    0.422329    0.113712
      3          8           0       -2.564796    0.414429   -0.799863
      4          7           0       -1.343264    0.172806   -0.068085
      5          6           0       -0.675667   -0.938692   -0.745973
      6          6           0        0.659506   -1.227372   -0.056026
      7          6           0        1.565943    0.019535   -0.043227
      8          6           0        0.784217    1.211411    0.544010
      9          6           0       -0.554070    1.401758   -0.173218
     10          6           0        2.849587   -0.231232    0.708569
     11          7           0        3.998646   -0.147516    0.123794
     12          7           0        5.010840   -0.067612   -0.416060
     13          1           0       -4.181726   -1.668634   -0.106849
     14          1           0       -4.835301   -0.904485    1.359464
     15          1           0       -3.109819   -1.315480    1.269125
     16          1           0       -4.500589    0.793215   -0.485113
     17          1           0       -3.468784    1.147116    0.917305
     18          1           0       -0.513374   -0.705459   -1.813511
     19          1           0       -1.336445   -1.808268   -0.693730
     20          1           0        1.166481   -2.056308   -0.561907
     21          1           0        0.468117   -1.543045    0.977687
     22          1           0        1.824745    0.262318   -1.083189
     23          1           0        0.597728    1.029258    1.610178
     24          1           0        1.380308    2.127369    0.468098
     25          1           0       -1.128836    2.210294    0.288870
     26          1           0       -0.389235    1.670101   -1.231724
     27          1           0        2.867146   -0.490583    1.760689
 ---------------------------------------------------------------------

 SCF Done:  E(UB3LYP) =  -553.438201209     A.U. after   29 cycles

 The electronic state is 2-A.
 Alpha  occ. eigenvalues --  -19.04476 -14.27051 -14.25137 -14.20432 -10.11517
 Alpha  occ. eigenvalues --  -10.09137 -10.09096 -10.07262 -10.06171 -10.06161
 Alpha  occ. eigenvalues --  -10.05844 -10.05838  -0.96656  -0.93738  -0.78487
 Alpha  occ. eigenvalues --   -0.71531  -0.66628  -0.65560  -0.63415  -0.54182
 Alpha  occ. eigenvalues --   -0.52737  -0.49872  -0.45788  -0.41648  -0.40919
 Alpha  occ. eigenvalues --   -0.38084  -0.36727  -0.36409  -0.33837  -0.32855
 Alpha  occ. eigenvalues --   -0.32258  -0.31841  -0.30527  -0.29367  -0.28880
 Alpha  occ. eigenvalues --   -0.28251  -0.27754  -0.26493  -0.25142  -0.24362
 Alpha  occ. eigenvalues --   -0.22509  -0.22210  -0.21586  -0.16894  -0.13671
 Alpha  occ. eigenvalues --   -0.06709   0.04709
 Alpha virt. eigenvalues --    0.06257   0.08006   0.08348   0.08517   0.09737
 Alpha virt. eigenvalues --    0.10181   0.10254   0.11496   0.11580   0.12466
 Alpha virt. eigenvalues --    0.12940   0.13391   0.14344   0.14814   0.14879

  Beta  occ. eigenvalues --  -19.04471 -14.26709 -14.25132 -14.19868 -10.11499
  Beta  occ. eigenvalues --  -10.09134 -10.09093 -10.07221 -10.06162 -10.06152
  Beta  occ. eigenvalues --  -10.05899 -10.05807  -0.96644  -0.92906  -0.78469
  Beta  occ. eigenvalues --   -0.71215  -0.66333  -0.65540  -0.63309  -0.54073
  Beta  occ. eigenvalues --   -0.52713  -0.49791  -0.45719  -0.41531  -0.40736
  Beta  occ. eigenvalues --   -0.37950  -0.36649  -0.36055  -0.33700  -0.32663
  Beta  occ. eigenvalues --   -0.31867  -0.31580  -0.30335  -0.28980  -0.28441
  Beta  occ. eigenvalues --   -0.27799  -0.27550  -0.25916  -0.25120  -0.24172
  Beta  occ. eigenvalues --   -0.22377  -0.22162  -0.20969  -0.16864  -0.13651
  Beta  occ. eigenvalues --   -0.06498
  Beta virt. eigenvalues --    0.06993   0.08219   0.08409   0.08662   0.09897
  Beta virt. eigenvalues --    0.10297   0.10524   0.11557   0.11604   0.11828
  Beta virt. eigenvalues --    0.12821   0.13194   0.13466   0.14398   0.14863

 Mulliken charges and spin densities:
               1          2
     1  C    0.561134  -1.035488
     2  C    0.014131  -0.110302
     3  O    0.068870   0.031991
     4  N   -0.260642   0.088900
     5  C   -0.192810  -0.282542
     6  C    0.098186  -0.467955
     7  C   -0.122349   0.413754
     8  C   -0.289674  -0.135479
     9  C    0.102054  -0.479287
    10  C   -0.516243  -0.228738
    11  N    0.456779   0.032274
    12  N   -0.488757   0.426407
    13  H    0.032653   0.103509
    14  H   -0.571196   0.704223
    15  H   -0.125263   0.289789
    16  H   -0.200069   0.346317
    17  H    0.012373   0.105604
    18  H    0.130158  -0.000263
    19  H    0.114852   0.056912
    20  H    0.124537   0.042095
    21  H    0.026082   0.124308
    22  H    0.190508  -0.014139
    23  H   -0.017734   0.173794
    24  H    0.132406   0.037455
    25  H   -0.023576   0.191087
    26  H    0.146133  -0.017547
    27  H   -0.402539   0.603322
 Sum of Mulliken charges =  -1.00000   1.00000

 Dipole moment (field-independent basis, Debye):
    X=             -2.2524    Y=              0.9588    Z=             -2.9808  Tot=              3.8572
 Quadrupole moment (field-independent basis, Debye-Ang):
   XX=           -181.6337   YY=            -92.0092   ZZ=            -99.7842
   XY=             -0.7887   XZ=              6.5459   YZ=              2.5129

 Summary of Natural Population Analysis:

                                       Natural Population
                Natural  -----------------------------------------------
    Atom  No    Charge         Core      Valence    Rydberg      Total
 -----------------------------------------------------------------------
      C    1   -0.30268      0.99967     2.29753    0.00549     3.30268
      C    2   -0.00704      0.99961     1.99373    0.01370     3.00704
      O    3   -0.23356      0.99990     3.22421    0.00944     4.23356
      N    4   -0.12753      0.99969     2.61373    0.01412     3.62753
      C    5   -0.08812      0.99961     2.07712    0.01139     3.08812
      C    6   -0.19304      0.99960     2.18370    0.00974     3.19304
      C    7   -0.11606      0.99958     2.10627    0.01020     3.11606
      C    8   -0.19328      0.99960     2.18381    0.00988     3.19328
      C    9   -0.08880      0.99961     2.07722    0.01197     3.08880
      C   10   -0.14129      0.99955     2.12761    0.01413     3.14129
      N   11    0.04253      0.99967     2.44189    0.01591     3.45747
      N   12    0.01459      0.99982     2.47041    0.01517     3.48541
      H   13    0.09614      0.00000     0.40279    0.00107     0.40386
      H   14    0.10064      0.00000     0.39758    0.00178     0.39936
      H   15    0.10449      0.00000     0.39381    0.00170     0.39551
      H   16    0.08572      0.00000     0.41296    0.00132     0.41428
      H   17    0.08063      0.00000     0.41774    0.00163     0.41937
      H   18    0.08177      0.00000     0.41690    0.00134     0.41823
      H   19    0.09952      0.00000     0.39923    0.00124     0.40048
      H   20    0.10192      0.00000     0.39734    0.00075     0.39808
      H   21    0.10028      0.00000     0.39784    0.00188     0.39972
      H   22    0.09590      0.00000     0.40252    0.00158     0.40410
      H   23    0.10037      0.00000     0.39769    0.00195     0.39963
      H   24    0.10181      0.00000     0.39744    0.00075     0.39819
      H   25    0.09814      0.00000     0.40062    0.00124     0.40186
      H   26    0.08190      0.00000     0.41675    0.00135     0.41810
      H   27    0.10505      0.00000     0.39210    0.00285     0.39495
 =======================================================================
   * Total *   -0.00000     11.99589    33.84053    0.16358    46.00000

 Normal termination of Gaussian 16 at Wed Dec  9 18:24:05 2020.
