 Gaussian 16, Revision A.03,

 -----------------------------------------------------------
 # opt freq B3LYP/6-31G(d) empiricaldispersion=gd3bj scf=xqc
 -----------------------------------------------------------

 -------------------------------
 CID_143396206_JID_6479_neutraal
 -------------------------------
 Symbolic Z-matrix:
 Charge =  0 Multiplicity = 1

 SCF Done:  E(RB3LYP) =  -669.859582829     A.U. after   15 cycles
 SCF Done:  E(RB3LYP) =  -669.870550050     A.U. after   13 cycles
 SCF Done:  E(RB3LYP) =  -669.872331131     A.U. after   13 cycles
 SCF Done:  E(RB3LYP) =  -669.872942739     A.U. after   12 cycles
 SCF Done:  E(RB3LYP) =  -669.873260542     A.U. after   12 cycles
 SCF Done:  E(RB3LYP) =  -669.873386760     A.U. after   12 cycles
 SCF Done:  E(RB3LYP) =  -669.873429624     A.U. after   10 cycles
 SCF Done:  E(RB3LYP) =  -669.873440464     A.U. after    9 cycles
 SCF Done:  E(RB3LYP) =  -669.873443734     A.U. after    8 cycles
 SCF Done:  E(RB3LYP) =  -669.873445269     A.U. after    8 cycles
 SCF Done:  E(RB3LYP) =  -669.873445837     A.U. after    8 cycles
 SCF Done:  E(RB3LYP) =  -669.873446115     A.U. after    8 cycles
 SCF Done:  E(RB3LYP) =  -669.873446202     A.U. after    7 cycles
 SCF Done:  E(RB3LYP) =  -669.873446220     A.U. after    7 cycles
 Optimization completed.
    -- Stationary point found.
 Normal termination of Gaussian 16 at Thu Dec 10 23:12:25 2020.

 --------------------------------------------------------------------
 #N Geom=AllCheck Guess=TCheck SCRF=Check GenChk RB3LYP/6-31G(d) Freq
 --------------------------------------------------------------------

 Structure from the checkpoint file:  "JID_6479.chk"
 -------------------------------
 CID_143396206_JID_6479_neutraal
 -------------------------------
 Charge =  0 Multiplicity = 1

 SCF Done:  E(RB3LYP) =  -669.873446220     A.U. after    1 cycles

  Exact polarizability: 239.165   6.079 157.373 -11.926   2.901 103.971
 Approx polarizability: 313.955   4.978 266.488 -26.990  12.403 164.168

                      1                      2                      3
                      A                      A                      A
 Frequencies --     34.6438                54.1169                67.1577
 Red. masses --      3.4724                 4.0210                 3.5834
 Frc consts  --      0.0025                 0.0069                 0.0095
 IR Inten    --      0.8526                 0.2558                 0.9921

                      4                      5                      6
                      A                      A                      A
 Frequencies --     92.4034               115.4286               135.1077
 Red. masses --      2.5388                 2.0115                 3.3079
 Frc consts  --      0.0128                 0.0158                 0.0356
 IR Inten    --      2.9131                 2.6338                 0.9943

                      7                      8                      9
                      A                      A                      A
 Frequencies --    160.6231               178.4877               203.1429
 Red. masses --      1.7380                 2.8359                 2.5708
 Frc consts  --      0.0264                 0.0532                 0.0625
 IR Inten    --      1.8731                 0.1088                 2.2313

                     10                     11                     12
                      A                      A                      A
 Frequencies --    230.5415               256.7649               275.8124
 Red. masses --      2.4754                 4.7805                 2.5247
 Frc consts  --      0.0775                 0.1857                 0.1132
 IR Inten    --     10.1977                 0.6844                 0.9336

                     13                     14                     15
                      A                      A                      A
 Frequencies --    296.7604               337.5055               351.0217
 Red. masses --      2.7855                 2.0890                 2.8835
 Frc consts  --      0.1445                 0.1402                 0.2093
 IR Inten    --      3.2288                 4.4190                 1.0446

                     16                     17                     18
                      A                      A                      A
 Frequencies --    376.1959               402.9462               432.1050
 Red. masses --      3.5526                 4.3458                 4.0806
 Frc consts  --      0.2962                 0.4157                 0.4489
 IR Inten    --      3.5042                 5.3216                 5.1845

                     19                     20                     21
                      A                      A                      A
 Frequencies --    480.9027               518.8393               539.6555
 Red. masses --      2.2854                 1.4675                 2.9318
 Frc consts  --      0.3114                 0.2328                 0.5031
 IR Inten    --     15.8667                68.7591                22.5904

                     22                     23                     24
                      A                      A                      A
 Frequencies --    559.5566               587.3948               650.4184
 Red. masses --      3.2396                 3.2478                 2.0283
 Frc consts  --      0.5976                 0.6602                 0.5056
 IR Inten    --     19.2612                 7.3792                 0.9817

                     25                     26                     27
                      A                      A                      A
 Frequencies --    655.9076               683.5775               738.2288
 Red. masses --      2.9010                 3.0684                 1.5168
 Frc consts  --      0.7353                 0.8448                 0.4870
 IR Inten    --      5.5032                 4.1017                14.9347

                     28                     29                     30
                      A                      A                      A
 Frequencies --    746.2446               774.1227               798.1226
 Red. masses --      2.3695                 3.3304                 3.7266
 Frc consts  --      0.7775                 1.1759                 1.3986
 IR Inten    --     19.0939                16.2831                 8.7422

                     31                     32                     33
                      A                      A                      A
 Frequencies --    831.3015               856.7868               884.4745
 Red. masses --      1.7585                 1.2886                 3.3213
 Frc consts  --      0.7160                 0.5573                 1.5308
 IR Inten    --     23.8046                22.9536                 4.3677

                     34                     35                     36
                      A                      A                      A
 Frequencies --    901.2757               920.4292               950.7870
 Red. masses --      1.3137                 1.3843                 2.4430
 Frc consts  --      0.6287                 0.6909                 1.3012
 IR Inten    --     11.0896                37.7720                22.1993

                     37                     38                     39
                      A                      A                      A
 Frequencies --    956.4139               962.9696               997.8710
 Red. masses --      2.3261                 2.1036                 2.4503
 Frc consts  --      1.2537                 1.1493                 1.4375
 IR Inten    --      1.3618                 9.4118                16.4652

                     40                     41                     42
                      A                      A                      A
 Frequencies --   1031.1537              1042.0767              1058.2044
 Red. masses --      1.6799                 1.1271                 1.9374
 Frc consts  --      1.0524                 0.7211                 1.2782
 IR Inten    --     10.4149                13.3167                 6.1540

                     43                     44                     45
                      A                      A                      A
 Frequencies --   1086.9875              1092.8594              1098.7236
 Red. masses --      1.6596                 1.7013                 1.7345
 Frc consts  --      1.1553                 1.1972                 1.2337
 IR Inten    --      2.2934                13.9251                12.1104

                     46                     47                     48
                      A                      A                      A
 Frequencies --   1104.0413              1137.6394              1167.6071
 Red. masses --      1.8068                 1.9060                 2.3574
 Frc consts  --      1.2976                 1.4534                 1.8935
 IR Inten    --      9.5618                 9.1260                 6.4530

                     49                     50                     51
                      A                      A                      A
 Frequencies --   1184.0190              1226.3983              1242.4038
 Red. masses --      2.7698                 1.1053                 1.5825
 Frc consts  --      2.2878                 0.9795                 1.4392
 IR Inten    --     18.3480                 3.9407                 1.2459

                     52                     53                     54
                      A                      A                      A
 Frequencies --   1244.4015              1261.2323              1291.7029
 Red. masses --      1.6093                 2.8466                 1.2689
 Frc consts  --      1.4682                 2.6679                 1.2474
 IR Inten    --      2.2201                 3.2517                 5.5035

                     55                     56                     57
                      A                      A                      A
 Frequencies --   1337.1955              1346.0580              1352.8259
 Red. masses --      1.3315                 1.4698                 1.5844
 Frc consts  --      1.4028                 1.5691                 1.7084
 IR Inten    --      2.5634                 2.7532                10.1638

                     58                     59                     60
                      A                      A                      A
 Frequencies --   1363.4440              1396.0434              1403.8629
 Red. masses --      1.6483                 2.0810                 2.1495
 Frc consts  --      1.8053                 2.3895                 2.4960
 IR Inten    --      5.7200                 5.4365                17.8844

                     61                     62                     63
                      A                      A                      A
 Frequencies --   1417.4507              1441.3862              1446.2966
 Red. masses --      1.6638                 1.7703                 1.5429
 Frc consts  --      1.9696                 2.1670                 1.9015
 IR Inten    --      2.4595                14.9027                23.8873

                     64                     65                     66
                      A                      A                      A
 Frequencies --   1458.4646              1499.5822              1501.3298
 Red. masses --      1.5873                 1.2821                 1.2254
 Frc consts  --      1.9893                 1.6987                 1.6273
 IR Inten    --     21.3889                 5.7425                 1.9961

                     67                     68                     69
                      A                      A                      A
 Frequencies --   1504.3437              1506.5339              1509.2938
 Red. masses --      1.1024                 1.1163                 1.9250
 Frc consts  --      1.4699                 1.4927                 2.5836
 IR Inten    --     11.1625                 4.4419                21.1247

                     70                     71                     72
                      A                      A                      A
 Frequencies --   1522.1995              1537.4746              1540.4231
 Red. masses --      1.1051                 1.1204                 4.3847
 Frc consts  --      1.5087                 1.5605                 6.1301
 IR Inten    --      2.0354                 2.3508                15.9219

                     73                     74                     75
                      A                      A                      A
 Frequencies --   1595.7512              1703.2973              1719.7820
 Red. masses --      4.5727                 4.6412                 6.5168
 Frc consts  --      6.8605                 7.9334                11.3561
 IR Inten    --      2.6800                24.8628                28.9735

                     76                     77                     78
                      A                      A                      A
 Frequencies --   1737.9046              2887.1055              2924.3352
 Red. masses --      7.1572                 1.0749                 1.0737
 Frc consts  --     12.7364                 5.2789                 5.4099
 IR Inten    --      2.3166               105.3047               103.3478

                     79                     80                     81
                      A                      A                      A
 Frequencies --   3034.6870              3043.0052              3051.4710
 Red. masses --      1.0393                 1.0840                 1.0628
 Frc consts  --      5.6393                 5.9139                 5.8305
 IR Inten    --     33.9791                47.9250                21.5410

                     82                     83                     84
                      A                      A                      A
 Frequencies --   3077.3558              3081.6271              3082.3892
 Red. masses --      1.0857                 1.0991                 1.0902
 Frc consts  --      6.0578                 6.1494                 6.1028
 IR Inten    --     29.2765                17.5446                41.4332

                     85                     86                     87
                      A                      A                      A
 Frequencies --   3092.6767              3138.7955              3152.3367
 Red. masses --      1.0976                 1.0849                 1.0998
 Frc consts  --      6.1852                 6.2974                 6.4391
 IR Inten    --     25.9109                13.8501                14.5186

                     88                     89                     90
                      A                      A                      A
 Frequencies --   3171.9325              3177.1916              3254.2214
 Red. masses --      1.0618                 1.0900                 1.1168
 Frc consts  --      6.2940                 6.4827                 6.9682
 IR Inten    --      6.1332                17.0463                13.5770

                     91                     92                     93
                      A                      A                      A
 Frequencies --   3282.2582              3504.2112              3663.8838
 Red. masses --      1.0967                 1.0746                 1.0803
 Frc consts  --      6.9609                 7.7748                 8.5447
 IR Inten    --      0.6208                 3.1245                81.5032

 - Thermochemistry -
 -------------------
 Temperature   298.150 Kelvin.  Pressure   1.00000 Atm.
 Atom     1 has atomic number  6 and mass  12.00000

 Molecular mass:   215.14225 amu.
 Principal axes and moments of inertia in atomic units:
                           1         2         3
     Eigenvalues --  1402.380326817.144947580.36297
           X            0.99995   0.00926   0.00241
           Y           -0.00924   0.99993  -0.00761
           Z           -0.00248   0.00759   0.99997
 This molecule is an asymmetric top.
 Rotational symmetry number  1.
 Warning -- assumption of classical behavior for rotation
           may cause significant error
 Rotational temperatures (Kelvin)      0.06176     0.01271     0.01143
 Rotational constants (GHZ):           1.28691     0.26474     0.23808
 Zero-point vibrational energy     740045.4 (Joules/Mol)
                                  176.87509 (Kcal/Mol)
 Warning -- explicit consideration of  23 degrees of freedom as
           vibrations may cause significant error
 Vibrational temperatures:     49.84    77.86    96.62   132.95   166.08
          (Kelvin)            194.39   231.10   256.80   292.28   331.70
                              369.43   396.83   426.97   485.60   505.04
                              541.26   579.75   621.70   691.91   746.49
                              776.44   805.08   845.13   935.81   943.70
                              983.52  1062.15  1073.68  1113.79  1148.32
                             1196.06  1232.73  1272.56  1296.73  1324.29
                             1367.97  1376.07  1385.50  1435.71  1483.60
                             1499.32  1522.52  1563.93  1572.38  1580.82
                             1588.47  1636.81  1679.93  1703.54  1764.51
                             1787.54  1790.42  1814.63  1858.47  1923.93
                             1936.68  1946.41  1961.69  2008.60  2019.85
                             2039.40  2073.83  2080.90  2098.41  2157.56
                             2160.08  2164.42  2167.57  2171.54  2190.11
                             2212.08  2216.33  2295.93  2450.66  2474.38
                             2500.46  4153.90  4207.47  4366.24  4378.21
                             4390.39  4427.63  4433.77  4434.87  4449.67
                             4516.03  4535.51  4563.70  4571.27  4682.10
                             4722.44  5041.78  5271.51

 Zero-point correction=                           0.281868 (Hartree/Particle)
 Thermal correction to Energy=                    0.297262
 Thermal correction to Enthalpy=                  0.298207
 Thermal correction to Gibbs Free Energy=         0.238946
 Sum of electronic and zero-point Energies=           -669.591578
 Sum of electronic and thermal Energies=              -669.576184
 Sum of electronic and thermal Enthalpies=            -669.575240
 Sum of electronic and thermal Free Energies=         -669.634500

                     E (Thermal)             CV                S
                      KCal/Mol        Cal/Mol-Kelvin    Cal/Mol-Kelvin
 Total                  186.535             59.002            124.725
 Electronic               0.000              0.000              0.000
 Translational            0.889              2.981             42.002
 Rotational               0.889              2.981             32.649
 Vibrational            184.758             53.040             50.074
 Vibration     1          0.594              1.983              5.544
 Vibration     2          0.596              1.976              4.661
 Vibration     3          0.598              1.970              4.235
 Vibration     4          0.602              1.955              3.609
 Vibration     5          0.608              1.937              3.176
 Vibration     6          0.613              1.918              2.872
 Vibration     7          0.622              1.891              2.542
 Vibration     8          0.629              1.869              2.344
 Vibration     9          0.639              1.835              2.104
 Vibration    10          0.652              1.794              1.875
 Vibration    11          0.666              1.751              1.684
 Vibration    12          0.677              1.718              1.560
 Vibration    13          0.690              1.680              1.435
 Vibration    14          0.718              1.601              1.224
 Vibration    15          0.728              1.573              1.162
 Vibration    16          0.747              1.521              1.054
 Vibration    17          0.768              1.464              0.952
 Vibration    18          0.793              1.400              0.852
 Vibration    19          0.837              1.292              0.708
 Vibration    20          0.874              1.208              0.613
 Vibration    21          0.895              1.162              0.566
 Vibration    22          0.915              1.119              0.525
 Vibration    23          0.945              1.059              0.472

                           ! Non-Optimized Parameters !
 Normal termination of Gaussian 16 at Thu Dec 10 23:22:47 2020.

 ----------------------------------------------------------------------
 # B3LYP/6-311++G(d,p) empiricaldispersion=gd3bj scf=xqc pop=npa geom=c
 heck
 ----------------------------------------------------------------------

 ---------------------------------------
 CID_143396206_JID_6479_Energie_neutraal
 ---------------------------------------
 Structure from the checkpoint file:  "JID_6479.chk"
 Charge =  0 Multiplicity = 1

 SCF Done:  E(RB3LYP) =  -670.057269577     A.U. after   16 cycles
 Normal termination of Gaussian 16 at Thu Dec 10 23:27:25 2020.

 ----------------------------------------------------------------------
 # B3LYP/6-311++G(d,p) empiricaldispersion=gd3bj scf=xqc pop=npa geom=c
 heck
 ----------------------------------------------------------------------

 -------------------------------------
 CID_143396206_JID_6479_Energie_kation
 -------------------------------------
 Structure from the checkpoint file:  "JID_6479.chk"
 Charge =  1 Multiplicity = 2

 SCF Done:  E(UB3LYP) =  -669.800464171     A.U. after   27 cycles
 Normal termination of Gaussian 16 at Thu Dec 10 23:38:21 2020.
 Gaussian 16:  ES64L-G16RevA.03 25-Dec-2016

 ----------------------------------------------------------------------
 # B3LYP/6-311++G(d,p) empiricaldispersion=gd3bj scf=xqc pop=npa geom=c
 heck
 ----------------------------------------------------------------------

 ------------------------------------
 CID_143396206_JID_6479_Energie_anion
 ------------------------------------
 Structure from the checkpoint file:  "JID_6479.chk"
 Charge = -1 Multiplicity = 2

                         Standard orientation:
 ---------------------------------------------------------------------
 Center     Atomic      Atomic             Coordinates (Angstroms)
 Number     Number       Type             X           Y           Z
 ---------------------------------------------------------------------
      1          6           0        5.467960    0.705873    0.092204
      2          6           0        3.996995    0.484311    0.251023
      3          7           0        3.424127   -0.549890   -0.244368
      4          6           0        2.057742   -0.730278   -0.155239
      5          6           0        0.943735    0.118247   -0.051993
      6          6           0       -0.218381   -0.732320   -0.006059
      7          6           0        0.226391   -2.039130   -0.083663
      8          7           0        1.592169   -2.025229   -0.194494
      9          6           0       -1.641268   -0.336564    0.020499
     10          6           0       -2.456987   -0.735295    1.007412
     11          6           0       -3.915628   -0.373669    1.074906
     12          7           0       -4.230390    0.707693    0.143604
     13          6           0       -3.702570    0.430005   -1.191619
     14          6           0       -2.174914    0.479224   -1.141623
     15          6           0        0.992737    1.574557   -0.024253
     16          6           0        0.097399    2.389330    0.553218
     17          1           0        5.921613   -0.128114   -0.448779
     18          1           0        5.953371    0.813461    1.071521
     19          1           0        5.662926    1.636806   -0.457656
     20          1           0        3.440150    1.237954    0.820728
     21          1           0       -0.338555   -2.959043   -0.105437
     22          1           0        2.206914   -2.822710   -0.254315
     23          1           0       -2.064235   -1.343037    1.819693
     24          1           0       -4.163195   -0.041612    2.092396
     25          1           0       -4.517551   -1.290151    0.894444
     26          1           0       -5.239014    0.831234    0.099516
     27          1           0       -4.020633   -0.559235   -1.576610
     28          1           0       -4.084589    1.188012   -1.883962
     29          1           0       -1.756113    0.087094   -2.077141
     30          1           0       -1.833206    1.516927   -1.057376
     31          1           0        1.847820    2.024065   -0.530283
     32          1           0        0.206340    3.468241    0.497106
     33          1           0       -0.762656    2.006353    1.094084
 ---------------------------------------------------------------------

 SCF Done:  E(UB3LYP) =  -670.048219289     A.U. after   33 cycles
 SCF Done:  E(UB3LYP) =  -670.048219289     a.u. after    1 cycles

 The electronic state is 2-A.
 Alpha  occ. eigenvalues --  -14.23204 -14.18738 -14.17470 -10.09576 -10.08581
 Alpha  occ. eigenvalues --  -10.08029 -10.07488 -10.06711 -10.06219 -10.05877
 Alpha  occ. eigenvalues --  -10.05219 -10.05066 -10.04931 -10.04719 -10.03922
 Alpha  occ. eigenvalues --  -10.03143  -0.86784  -0.80344  -0.78831  -0.70269
 Alpha  occ. eigenvalues --   -0.66710  -0.64037  -0.63623  -0.62295  -0.58117
 Alpha  occ. eigenvalues --   -0.53601  -0.51338  -0.49811  -0.46691  -0.45976
 Alpha  occ. eigenvalues --   -0.41478  -0.40703  -0.39938  -0.37719  -0.35421
 Alpha  occ. eigenvalues --   -0.34454  -0.34068  -0.33661  -0.31920  -0.31143
 Alpha  occ. eigenvalues --   -0.30824  -0.29928  -0.29142  -0.28400  -0.28110
 Alpha  occ. eigenvalues --   -0.27801  -0.26808  -0.26213  -0.23184  -0.22920
 Alpha  occ. eigenvalues --   -0.21317  -0.20291  -0.18156  -0.14290  -0.13442
 Alpha  occ. eigenvalues --   -0.12039  -0.10288  -0.07669   0.04828
 Alpha virt. eigenvalues --    0.06270   0.07567   0.08108   0.08601   0.09310
 Alpha virt. eigenvalues --    0.09445   0.10335   0.10671   0.10791   0.11296
 Alpha virt. eigenvalues --    0.11640   0.11801   0.11981   0.12505   0.12891

  Beta  occ. eigenvalues --  -14.23109 -14.18712 -14.17353 -10.09496 -10.08563
  Beta  occ. eigenvalues --  -10.08009 -10.07497 -10.06245 -10.06212 -10.05914
  Beta  occ. eigenvalues --  -10.05205 -10.05058 -10.04923 -10.04720 -10.03859
  Beta  occ. eigenvalues --  -10.03054  -0.86609  -0.80308  -0.78383  -0.70197
  Beta  occ. eigenvalues --   -0.66586  -0.63994  -0.63313  -0.62162  -0.58037
  Beta  occ. eigenvalues --   -0.53535  -0.51294  -0.49532  -0.46337  -0.45909
  Beta  occ. eigenvalues --   -0.41193  -0.40648  -0.39742  -0.37655  -0.35329
  Beta  occ. eigenvalues --   -0.34330  -0.34029  -0.33601  -0.31525  -0.30929
  Beta  occ. eigenvalues --   -0.30671  -0.29768  -0.29065  -0.28210  -0.27985
  Beta  occ. eigenvalues --   -0.27750  -0.26705  -0.26142  -0.23146  -0.22848
  Beta  occ. eigenvalues --   -0.21181  -0.19270  -0.17778  -0.14098  -0.13195
  Beta  occ. eigenvalues --   -0.11966  -0.10016  -0.06919
  Beta virt. eigenvalues --    0.07186   0.07518   0.08116   0.08888   0.09376
  Beta virt. eigenvalues --    0.09464   0.09832   0.10514   0.10702   0.11121
  Beta virt. eigenvalues --    0.11397   0.11745   0.11886   0.12159   0.12606

 Mulliken charges and spin densities:
               1          2
     1  C   -0.617530  -0.013541
     2  C    0.107033   0.330809
     3  N   -0.064312   0.034716
     4  C   -0.457806  -0.006757
     5  C    0.801158  -0.051043
     6  C    0.414300  -0.158908
     7  C   -0.420983  -0.054234
     8  N   -0.134585   0.023220
     9  C    1.005226  -0.299980
    10  C   -1.039654   0.889902
    11  C    0.774311  -1.383828
    12  N   -0.335804   0.214229
    13  C    0.448256  -0.977596
    14  C   -1.063859   0.530604
    15  C   -0.397605   0.027883
    16  C   -0.842554   0.055561
    17  H    0.111681   0.009916
    18  H    0.107180   0.022138
    19  H    0.124063   0.014826
    20  H    0.107929  -0.022623
    21  H    0.108550   0.037110
    22  H    0.276128   0.011129
    23  H    0.105621   0.073478
    24  H    0.027772   0.113641
    25  H   -0.306054   0.439201
    26  H   -0.204543   0.467804
    27  H   -0.056926   0.152531
    28  H   -0.293515   0.464154
    29  H    0.092970   0.079345
    30  H    0.230053  -0.047120
    31  H    0.167415  -0.002232
    32  H    0.078865   0.014422
    33  H    0.147220   0.011242
 Sum of Mulliken charges =  -1.00000   1.00000

 Dipole moment (field-independent basis, Debye):
    X=              4.7002    Y=             -1.9295    Z=              0.3201  Tot=              5.0909
 Quadrupole moment (field-independent basis, Debye-Ang):
   XX=           -189.1899   YY=           -113.7161   ZZ=           -114.9375
   XY=              3.8254   XZ=             -0.8377   YZ=             -1.0333

 Summary of Natural Population Analysis:

                                       Natural Population
                Natural  -----------------------------------------------
    Atom  No    Charge         Core      Valence    Rydberg      Total
 -----------------------------------------------------------------------
      C    1   -0.31301      0.99967     2.30911    0.00423     3.31301
      C    2    0.15384      0.99966     1.83411    0.01239     2.84616
      N    3   -0.25116      0.99962     2.73887    0.01266     3.75116
      C    4    0.18244      0.99948     1.80016    0.01792     2.81756
      C    5   -0.07229      0.99940     2.06388    0.00902     3.07229
      C    6   -0.05577      0.99947     2.04522    0.01108     3.05577
      C    7   -0.02654      0.99953     2.01385    0.01316     3.02654
      N    8   -0.25626      0.99966     2.74792    0.00868     3.75626
      C    9   -0.00724      0.99946     1.99607    0.01171     3.00724
      C   10   -0.10112      0.99946     2.09224    0.00941     3.10112
      C   11   -0.09890      0.99961     2.08683    0.01247     3.09890
      N   12   -0.33883      0.99974     2.82637    0.01272     3.83883
      C   13   -0.08474      0.99963     2.07307    0.01204     3.08474
      C   14   -0.20601      0.99958     2.19680    0.00964     3.20601
      C   15   -0.09546      0.99957     2.08724    0.00865     3.09546
      C   16   -0.19345      0.99959     2.18598    0.00788     3.19345
      H   17    0.10163      0.00000     0.39719    0.00118     0.39837
      H   18    0.09909      0.00000     0.39996    0.00095     0.40091
      H   19    0.10070      0.00000     0.39839    0.00091     0.39930
      H   20    0.06465      0.00000     0.43327    0.00207     0.43535
      H   21    0.09656      0.00000     0.40254    0.00089     0.40344
      H   22    0.19675      0.00000     0.30181    0.00144     0.30325
      H   23    0.09644      0.00000     0.40245    0.00111     0.40356
      H   24    0.09466      0.00000     0.40422    0.00112     0.40534
      H   25    0.08212      0.00000     0.41587    0.00201     0.41788
      H   26    0.17541      0.00000     0.31994    0.00464     0.32459
      H   27    0.07473      0.00000     0.42336    0.00190     0.42527
      H   28    0.09393      0.00000     0.40495    0.00112     0.40607
      H   29    0.10049      0.00000     0.39842    0.00109     0.39951
      H   30    0.11203      0.00000     0.38643    0.00154     0.38797
      H   31    0.09407      0.00000     0.40428    0.00165     0.40593
      H   32    0.08601      0.00000     0.41271    0.00128     0.41399
      H   33    0.09522      0.00000     0.40366    0.00112     0.40478
 =======================================================================
   * Total *    0.00000     15.99313    41.80719    0.19968    58.00000

 Normal termination of Gaussian 16 at Thu Dec 10 23:52:35 2020.
