 Gaussian 16, Revision A.03,

 -----------------------------------------------------------
 # opt freq B3LYP/6-31G(d) empiricaldispersion=gd3bj scf=xqc
 -----------------------------------------------------------

 -------------------------------
 CID_136299532_JID_5034_neutraal
 -------------------------------
 Symbolic Z-matrix:
 Charge =  0 Multiplicity = 1

 SCF Done:  E(RB3LYP) =  -1049.03788001     A.U. after   16 cycles
 SCF Done:  E(RB3LYP) =  -1049.04350734     A.U. after   13 cycles
 SCF Done:  E(RB3LYP) =  -1049.04314460     A.U. after   13 cycles
 SCF Done:  E(RB3LYP) =  -1049.04374647     A.U. after   13 cycles
 SCF Done:  E(RB3LYP) =  -1049.04436232     A.U. after   12 cycles
 SCF Done:  E(RB3LYP) =  -1049.04437417     A.U. after   13 cycles
 SCF Done:  E(RB3LYP) =  -1049.04457484     A.U. after   12 cycles
 SCF Done:  E(RB3LYP) =  -1049.04460064     A.U. after   11 cycles
 SCF Done:  E(RB3LYP) =  -1049.04463936     A.U. after   12 cycles
 SCF Done:  E(RB3LYP) =  -1049.04466764     A.U. after   12 cycles
 SCF Done:  E(RB3LYP) =  -1049.04470236     A.U. after   10 cycles
 SCF Done:  E(RB3LYP) =  -1049.04470514     A.U. after   10 cycles
 SCF Done:  E(RB3LYP) =  -1049.04470545     A.U. after    8 cycles
 SCF Done:  E(RB3LYP) =  -1049.04470583     A.U. after   10 cycles
 SCF Done:  E(RB3LYP) =  -1049.04470585     A.U. after    7 cycles
 SCF Done:  E(RB3LYP) =  -1049.04470586     A.U. after    7 cycles
 Optimization completed.
    -- Stationary point found.
 Normal termination of Gaussian 16 at Thu Dec 10 14:47:11 2020.

 --------------------------------------------------------------------
 #N Geom=AllCheck Guess=TCheck SCRF=Check GenChk RB3LYP/6-31G(d) Freq
 --------------------------------------------------------------------

 Structure from the checkpoint file:  "JID_5034.chk"
 -------------------------------
 CID_136299532_JID_5034_neutraal
 -------------------------------
 Charge =  0 Multiplicity = 1

 SCF Done:  E(RB3LYP) =  -1049.04470586     A.U. after    1 cycles

  Exact polarizability: 197.977  19.212 168.874   2.746  -1.445  86.143
 Approx polarizability: 290.974  52.794 320.722  13.528 -13.597 140.094

                      1                      2                      3
                      A                      A                      A
 Frequencies --     16.3796                31.9954                79.7256
 Red. masses --      5.3812                 4.5216                 7.5943
 Frc consts  --      0.0009                 0.0027                 0.0284
 IR Inten    --      0.1633                 0.3377                 1.2793

                      4                      5                      6
                      A                      A                      A
 Frequencies --     91.2172               148.7788               154.2736
 Red. masses --      2.6488                 5.0169                 4.3983
 Frc consts  --      0.0130                 0.0654                 0.0617
 IR Inten    --      2.4564                 1.0129                 3.2917

                      7                      8                      9
                      A                      A                      A
 Frequencies --    160.2154               167.7232               199.3736
 Red. masses --      3.9664                 5.2298                 3.1925
 Frc consts  --      0.0600                 0.0867                 0.0748
 IR Inten    --      0.8832                 4.7564                 2.5794

                     10                     11                     12
                      A                      A                      A
 Frequencies --    211.7553               269.4715               287.8590
 Red. masses --      4.6875                 3.9049                 2.7823
 Frc consts  --      0.1238                 0.1671                 0.1358
 IR Inten    --      0.1919                 2.7301                 7.6915

                     13                     14                     15
                      A                      A                      A
 Frequencies --    315.0807               317.2047               369.9443
 Red. masses --      3.5796                 3.3792                 4.4654
 Frc consts  --      0.2094                 0.2003                 0.3601
 IR Inten    --      5.9850                 3.8593                 6.2321

                     16                     17                     18
                      A                      A                      A
 Frequencies --    387.1900               425.7473               440.8454
 Red. masses --      8.4900                 8.9150                 2.4622
 Frc consts  --      0.7499                 0.9521                 0.2819
 IR Inten    --      2.9631                 4.9114                 1.0815

                     19                     20                     21
                      A                      A                      A
 Frequencies --    486.9433               498.4346               579.8249
 Red. masses --      9.5933                 3.6143                 4.1009
 Frc consts  --      1.3402                 0.5290                 0.8123
 IR Inten    --     12.2524                 1.6966                 8.2281

                     22                     23                     24
                      A                      A                      A
 Frequencies --    613.5404               654.6493               662.9746
 Red. masses --      3.6041                 2.6318                 3.3202
 Frc consts  --      0.7993                 0.6645                 0.8598
 IR Inten    --      3.0240                25.7970                13.8717

                     25                     26                     27
                      A                      A                      A
 Frequencies --    681.9006               728.7175               747.7515
 Red. masses --      7.5055                 4.6461                 4.1097
 Frc consts  --      2.0562                 1.4537                 1.3539
 IR Inten    --     34.3021                 0.0720                 0.6314

                     28                     29                     30
                      A                      A                      A
 Frequencies --    860.6316               877.0562               933.1976
 Red. masses --      1.8458                 1.1100                 1.3841
 Frc consts  --      0.8055                 0.5031                 0.7102
 IR Inten    --      4.6270               108.7564                34.7947

                     31                     32                     33
                      A                      A                      A
 Frequencies --    940.6630               987.0198               989.9681
 Red. masses --      1.8784                 1.1657                 1.6893
 Frc consts  --      0.9793                 0.6691                 0.9754
 IR Inten    --      0.4739                 7.1990                 2.9137

                     34                     35                     36
                      A                      A                      A
 Frequencies --    999.3134              1011.2347              1016.3138
 Red. masses --      1.7614                 3.6422                 1.8457
 Frc consts  --      1.0364                 2.1944                 1.1232
 IR Inten    --      1.3797                 9.7848                 2.2912

                     37                     38                     39
                      A                      A                      A
 Frequencies --   1051.2676              1068.1336              1086.0895
 Red. masses --      1.1052                 4.2825                 3.3510
 Frc consts  --      0.7197                 2.8787                 2.3289
 IR Inten    --     24.1911                32.2212                 2.9544

                     40                     41                     42
                      A                      A                      A
 Frequencies --   1184.7779              1234.1826              1249.4871
 Red. masses --      1.5512                 1.8755                 3.4072
 Frc consts  --      1.2829                 1.6832                 3.1341
 IR Inten    --      9.1134                 8.8155               169.8983

                     43                     44                     45
                      A                      A                      A
 Frequencies --   1304.2235              1333.0759              1346.2639
 Red. masses --      1.2839                 1.3738                 1.3135
 Frc consts  --      1.2867                 1.4384                 1.4027
 IR Inten    --      8.8949                 2.8034                 4.0160

                     46                     47                     48
                      A                      A                      A
 Frequencies --   1358.3397              1362.3483              1388.6581
 Red. masses --      1.7087                 1.9584                 2.1382
 Frc consts  --      1.8575                 2.1415                 2.4294
 IR Inten    --     40.8938                36.4329                87.3718

                     49                     50                     51
                      A                      A                      A
 Frequencies --   1422.6383              1440.9541              1477.0323
 Red. masses --      1.4380                 2.1576                 1.2554
 Frc consts  --      1.7148                 2.6395                 1.6137
 IR Inten    --     16.1865                20.4053                 3.7930

                     52                     53                     54
                      A                      A                      A
 Frequencies --   1483.9750              1518.8347              1552.4293
 Red. masses --      4.2914                 1.1520                 2.4909
 Frc consts  --      5.5681                 1.5657                 3.5369
 IR Inten    --     32.9831                58.6982               384.4783

                     55                     56                     57
                      A                      A                      A
 Frequencies --   1600.2706              1690.3314              1708.6049
 Red. masses --      4.2711                 4.2670                 5.9635
 Frc consts  --      6.4444                 7.1833                10.2573
 IR Inten    --    219.1714                 2.5289               399.2930

                     58                     59                     60
                      A                      A                      A
 Frequencies --   1738.7618              1760.9013              2950.5777
 Red. masses --      5.2453                 9.6426                 1.0832
 Frc consts  --      9.3433                17.6163                 5.5562
 IR Inten    --      1.1340               270.4463                89.8464

                     61                     62                     63
                      A                      A                      A
 Frequencies --   3006.8638              3039.4214              3093.9700
 Red. masses --      1.0863                 1.0699                 1.0692
 Frc consts  --      5.7867                 5.8235                 6.0304
 IR Inten    --    106.3705                29.5246               281.2947

                     64                     65                     66
                      A                      A                      A
 Frequencies --   3116.4323              3143.3868              3155.3922
 Red. masses --      1.0920                 1.0891                 1.0870
 Frc consts  --      6.2488                 6.3402                 6.3765
 IR Inten    --      7.5532                 3.8592                 0.2525

                     67                     68                     69
                      A                      A                      A
 Frequencies --   3161.2570              3167.8018              3251.5850
 Red. masses --      1.0814                 1.0703                 1.1156
 Frc consts  --      6.3675                 6.3279                 6.9497
 IR Inten    --     39.3703                 4.8105                13.3028

 - Thermochemistry -
 -------------------
 Temperature   298.150 Kelvin.  Pressure   1.00000 Atm.
 Atom     1 has atomic number  6 and mass  12.00000

 Molecular mass:   222.03507 amu.
 Principal axes and moments of inertia in atomic units:
                           1         2         3
     Eigenvalues --  2666.357645342.069327326.19311
           X            0.99998  -0.00067  -0.00572
           Y            0.00070   0.99999   0.00541
           Z            0.00571  -0.00541   0.99997
 This molecule is an asymmetric top.
 Rotational symmetry number  1.
 Warning -- assumption of classical behavior for rotation
           may cause significant error
 Rotational temperatures (Kelvin)      0.03248     0.01621     0.01182
 Rotational constants (GHZ):           0.67686     0.33784     0.24634
 Zero-point vibrational energy     489231.9 (Joules/Mol)
                                  116.92923 (Kcal/Mol)
 Warning -- explicit consideration of  22 degrees of freedom as
           vibrations may cause significant error
 Vibrational temperatures:     23.57    46.03   114.71   131.24   214.06
          (Kelvin)            221.97   230.51   241.32   286.85   304.67
                              387.71   414.16   453.33   456.39   532.27
                              557.08   612.56   634.28   700.60   717.14
                              834.24   882.75   941.89   953.87   981.10
                             1048.46  1075.85  1238.26  1261.89  1342.66
                             1353.40  1420.10  1424.34  1437.79  1454.94
                             1462.25  1512.54  1536.81  1562.64  1704.63
                             1775.71  1797.73  1876.49  1918.00  1936.97
                             1954.35  1960.12  1997.97  2046.86  2073.21
                             2125.12  2135.11  2185.26  2233.60  2302.43
                             2432.01  2458.30  2501.69  2533.54  4245.22
                             4326.21  4373.05  4451.53  4483.85  4522.63
                             4539.91  4548.34  4557.76  4678.31

 Zero-point correction=                           0.186339 (Hartree/Particle)
 Thermal correction to Energy=                    0.201006
 Thermal correction to Enthalpy=                  0.201950
 Thermal correction to Gibbs Free Energy=         0.142646
 Sum of electronic and zero-point Energies=          -1048.858367
 Sum of electronic and thermal Energies=             -1048.843700
 Sum of electronic and thermal Enthalpies=           -1048.842756
 Sum of electronic and thermal Free Energies=        -1048.902060

                     E (Thermal)             CV                S
                      KCal/Mol        Cal/Mol-Kelvin    Cal/Mol-Kelvin
 Total                  126.133             53.238            124.816
 Electronic               0.000              0.000              0.000
 Translational            0.889              2.981             42.096
 Rotational               0.889              2.981             33.012
 Vibrational            124.356             47.276             49.708
 Vibration     1          0.593              1.986              7.031
 Vibration     2          0.594              1.983              5.702
 Vibration     3          0.600              1.963              3.898
 Vibration     4          0.602              1.955              3.634
 Vibration     5          0.618              1.904              2.688
 Vibration     6          0.620              1.898              2.619
 Vibration     7          0.622              1.891              2.547
 Vibration     8          0.624              1.882              2.461
 Vibration     9          0.637              1.841              2.139
 Vibration    10          0.643              1.823              2.028
 Vibration    11          0.674              1.729              1.600
 Vibration    12          0.685              1.696              1.487
 Vibration    13          0.702              1.645              1.336
 Vibration    14          0.704              1.641              1.324
 Vibration    15          0.742              1.534              1.080
 Vibration    16          0.756              1.498              1.011
 Vibration    17          0.788              1.414              0.873
 Vibration    18          0.801              1.381              0.824
 Vibration    19          0.843              1.279              0.692
 Vibration    20          0.854              1.253              0.662
 Vibration    21          0.936              1.075              0.486
 Vibration    22          0.973              1.003              0.427

 Optimization completed.
    -- Stationary point found.
 Normal termination of Gaussian 16 at Thu Dec 10 14:53:56 2020.

 ----------------------------------------------------------------------
 # B3LYP/6-311++G(d,p) empiricaldispersion=gd3bj scf=xqc pop=npa geom=c
 heck
 ----------------------------------------------------------------------

 ---------------------------------------
 CID_136299532_JID_5034_Energie_neutraal
 ---------------------------------------
 Structure from the checkpoint file:  "JID_5034.chk"
 Charge =  0 Multiplicity = 1

 SCF Done:  E(RB3LYP) =  -1049.26200285     A.U. after   16 cycles
 Normal termination of Gaussian 16 at Thu Dec 10 14:56:34 2020.

 ----------------------------------------------------------------------
 # B3LYP/6-311++G(d,p) empiricaldispersion=gd3bj scf=xqc pop=npa geom=c
 heck
 ----------------------------------------------------------------------

 -------------------------------------
 CID_136299532_JID_5034_Energie_kation
 -------------------------------------
 Structure from the checkpoint file:  "JID_5034.chk"
 Charge =  1 Multiplicity = 2

 SCF Done:  E(UB3LYP) =  -1048.95610323     A.U. after   30 cycles
 Normal termination of Gaussian 16 at Thu Dec 10 15:06:09 2020.
 Gaussian 16:  ES64L-G16RevA.03 25-Dec-2016

 ----------------------------------------------------------------------
 # B3LYP/6-311++G(d,p) empiricaldispersion=gd3bj scf=xqc pop=npa geom=c
 heck
 ----------------------------------------------------------------------

 ------------------------------------
 CID_136299532_JID_5034_Energie_anion
 ------------------------------------
 Structure from the checkpoint file:  "JID_5034.chk"
 Charge = -1 Multiplicity = 2

                         Standard orientation:
 ---------------------------------------------------------------------
 Center     Atomic      Atomic             Coordinates (Angstroms)
 Number     Number       Type             X           Y           Z
 ---------------------------------------------------------------------
      1          6           0        5.404274   -0.353053   -0.926811
      2          6           0        4.189425   -0.895205   -0.764890
      3          6           0        3.211742   -0.425830    0.204240
      4          6           0        1.996177   -0.967092    0.373041
      5          6           0        0.977673   -0.468526    1.366857
      6          6           0       -0.283231    0.001202    0.674393
      7          6           0       -0.539380    1.303178    0.306158
      8         16           0       -2.083963    1.491672   -0.550898
      9          6           0       -2.364228   -0.209713   -0.407962
     10          6           0       -1.329904   -0.887552    0.263069
     11          6           0       -1.440244   -2.309772    0.448778
     12          8           0       -2.410117   -2.966492    0.038051
     13          8           0       -3.452601   -0.768779   -0.891448
     14          6           0        0.261743    2.495221    0.496366
     15          8           0       -0.069292    3.606288    0.110447
     16          1           0        5.734724    0.490742   -0.325429
     17          1           0        6.105373   -0.731435   -1.663847
     18          1           0        3.890073   -1.739616   -1.385508
     19          1           0        3.508574    0.421756    0.823748
     20          1           0        1.691681   -1.805768   -0.253029
     21          1           0        0.715636   -1.267545    2.073750
     22          1           0        1.408455    0.340459    1.962443
     23          1           0       -0.623587   -2.830730    0.978167
     24          1           0       -3.359726   -1.747682   -0.675503
     25          1           0        1.224008    2.337780    1.023740
 ---------------------------------------------------------------------

 SCF Done:  E(UB3LYP) =  -1049.29644397     A.U. after   31 cycles

 The electronic state is 2-A.
 Alpha  occ. eigenvalues --  -88.76118 -19.05419 -18.97493 -18.95610 -10.16111
 Alpha  occ. eigenvalues --  -10.10616 -10.10209 -10.08063 -10.07257 -10.06933
 Alpha  occ. eigenvalues --  -10.06602 -10.06537 -10.06478 -10.05903 -10.05502
 Alpha  occ. eigenvalues --   -7.84728  -5.81020  -5.80668  -5.80289  -0.97937
 Alpha  occ. eigenvalues --   -0.90326  -0.89225  -0.76142  -0.71341  -0.67476
 Alpha  occ. eigenvalues --   -0.63716  -0.62136  -0.57360  -0.51423  -0.50160
 Alpha  occ. eigenvalues --   -0.48964  -0.46523  -0.45485  -0.40637  -0.38402
 Alpha  occ. eigenvalues --   -0.36909  -0.35753  -0.35334  -0.32833  -0.32455
 Alpha  occ. eigenvalues --   -0.31533  -0.30799  -0.30008  -0.29273  -0.28277
 Alpha  occ. eigenvalues --   -0.26983  -0.26568  -0.26379  -0.24856  -0.24148
 Alpha  occ. eigenvalues --   -0.23366  -0.22037  -0.21087  -0.14420  -0.13880
 Alpha  occ. eigenvalues --   -0.12983  -0.11630  -0.10345   0.02095
 Alpha virt. eigenvalues --    0.05515   0.06610   0.07517   0.08962   0.09140
 Alpha virt. eigenvalues --    0.10709   0.11178   0.11201   0.12286   0.12810
 Alpha virt. eigenvalues --    0.13138   0.13755   0.14033   0.14395   0.14617

  Beta  occ. eigenvalues --  -88.76128 -19.05456 -18.97049 -18.95222 -10.16161
  Beta  occ. eigenvalues --  -10.10256 -10.10028 -10.08060 -10.07292 -10.06834
  Beta  occ. eigenvalues --  -10.06542 -10.06518 -10.06436 -10.05569 -10.05489
  Beta  occ. eigenvalues --   -7.84737  -5.81024  -5.80673  -5.80319  -0.97992
  Beta  occ. eigenvalues --   -0.89508  -0.88540  -0.75951  -0.71200  -0.67283
  Beta  occ. eigenvalues --   -0.63459  -0.61862  -0.57184  -0.50543  -0.49986
  Beta  occ. eigenvalues --   -0.48704  -0.46305  -0.45380  -0.40403  -0.38220
  Beta  occ. eigenvalues --   -0.36699  -0.35493  -0.35168  -0.32749  -0.32365
  Beta  occ. eigenvalues --   -0.31398  -0.30457  -0.29782  -0.29048  -0.27932
  Beta  occ. eigenvalues --   -0.26841  -0.25525  -0.24533  -0.24346  -0.23956
  Beta  occ. eigenvalues --   -0.23282  -0.21744  -0.20210  -0.13686  -0.13418
  Beta  occ. eigenvalues --   -0.12452  -0.11291  -0.09414
  Beta virt. eigenvalues --    0.06617   0.07095   0.07479   0.08447   0.09036
  Beta virt. eigenvalues --    0.09545   0.10752   0.11156   0.11256   0.12334
  Beta virt. eigenvalues --    0.12794   0.13133   0.13806   0.14093   0.14428

 Mulliken charges and spin densities:
               1          2
     1  C   -0.637057   0.074590
     2  C    0.070436  -0.003082
     3  C   -0.492159   0.016308
     4  C    0.151195   0.012865
     5  C   -0.199371  -0.025379
     6  C   -0.007262   0.188226
     7  C    0.628811  -0.017184
     8  S   -0.339352  -0.007488
     9  C   -0.043265  -0.007415
    10  C   -0.261769   0.033205
    11  C   -0.394033   0.280850
    12  O   -0.421178   0.140490
    13  O   -0.230169  -0.008637
    14  C    0.333052   0.129336
    15  O   -0.373360   0.124641
    16  H    0.097337  -0.003569
    17  H    0.112024  -0.003154
    18  H    0.121435  -0.001193
    19  H    0.083190  -0.006054
    20  H    0.152314  -0.001813
    21  H    0.140909   0.036266
    22  H    0.073396   0.064648
    23  H    0.086519  -0.005244
    24  H    0.312024  -0.003356
    25  H    0.036333  -0.007857
 Sum of Mulliken charges =  -1.00000   1.00000

 Dipole moment (field-independent basis, Debye):
    X=              2.1996    Y=             -2.2579    Z=              0.6221  Tot=              3.2130
 Quadrupole moment (field-independent basis, Debye-Ang):
   XX=           -134.7907   YY=           -143.6388   ZZ=           -102.7226
   XY=             -6.1516   XZ=              0.3366   YZ=              2.6899

 Summary of Natural Population Analysis:

                                       Natural Population
                Natural  -----------------------------------------------
    Atom  No    Charge         Core      Valence    Rydberg      Total
 -----------------------------------------------------------------------
      C    1   -0.18545      0.99960     2.17832    0.00754     3.18545
      C    2   -0.09659      0.99957     2.08781    0.00921     3.09659
      C    3   -0.11549      0.99950     2.10662    0.00937     3.11549
      C    4   -0.04187      0.99952     2.03457    0.00778     3.04187
      C    5   -0.21800      0.99959     2.20699    0.01141     3.21800
      C    6    0.07807      0.99941     1.91122    0.01130     2.92193
      C    7   -0.14878      0.99939     2.13956    0.00983     3.14878
      S    8    0.19303      4.99942     2.78581    0.02175     7.80697
      C    9    0.11680      0.99945     1.86537    0.01838     2.88320
      C   10   -0.15340      0.99940     2.14181    0.01219     3.15340
      C   11    0.24964      0.99965     1.73257    0.01814     2.75036
      O   12   -0.28510      0.99988     3.27801    0.00721     4.28510
      O   13   -0.34582      0.99985     3.33714    0.00883     4.34582
      C   14    0.20693      0.99962     1.77270    0.02075     2.79307
      O   15   -0.26589      0.99989     3.25810    0.00791     4.26589
      H   16    0.08648      0.00000     0.41242    0.00110     0.41352
      H   17    0.08772      0.00000     0.41131    0.00097     0.41228
      H   18    0.09101      0.00000     0.40754    0.00145     0.40899
      H   19    0.09003      0.00000     0.40823    0.00175     0.40997
      H   20    0.08964      0.00000     0.40891    0.00145     0.41036
      H   21    0.10827      0.00000     0.38988    0.00186     0.39173
      H   22    0.10500      0.00000     0.39342    0.00158     0.39500
      H   23    0.05116      0.00000     0.44687    0.00197     0.44884
      H   24    0.25552      0.00000     0.24097    0.00352     0.24448
      H   25    0.04711      0.00000     0.45083    0.00206     0.45289
 =======================================================================
   * Total *    0.00000     18.99372    38.80698    0.19930    58.00000

 Normal termination of Gaussian 16 at Thu Dec 10 15:16:45 2020.
