 Gaussian 16, Revision A.03,

 -----------------------------------------------------------
 # opt freq B3LYP/6-31G(d) empiricaldispersion=gd3bj scf=xqc
 -----------------------------------------------------------

 -------------------------------
 CID_102695094_JID_7848_neutraal
 -------------------------------
 Symbolic Z-matrix:
 Charge =  0 Multiplicity = 1

 SCF Done:  E(RB3LYP) =  -767.427880029     A.U. after   15 cycles
 SCF Done:  E(RB3LYP) =  -767.423405855     A.U. after   14 cycles
 SCF Done:  E(RB3LYP) =  -767.431947628     A.U. after   12 cycles
 SCF Done:  E(RB3LYP) =  -767.433307298     A.U. after   12 cycles
 SCF Done:  E(RB3LYP) =  -767.432980117     A.U. after   12 cycles
 SCF Done:  E(RB3LYP) =  -767.433841728     A.U. after   12 cycles
 SCF Done:  E(RB3LYP) =  -767.433987344     A.U. after   12 cycles
 SCF Done:  E(RB3LYP) =  -767.434064815     A.U. after   12 cycles
 SCF Done:  E(RB3LYP) =  -767.434148280     A.U. after   11 cycles
 SCF Done:  E(RB3LYP) =  -767.434180253     A.U. after   11 cycles
 SCF Done:  E(RB3LYP) =  -767.434230628     A.U. after   10 cycles
 SCF Done:  E(RB3LYP) =  -767.434232563     A.U. after    9 cycles
 SCF Done:  E(RB3LYP) =  -767.434233973     A.U. after    9 cycles
 SCF Done:  E(RB3LYP) =  -767.434234287     A.U. after    7 cycles
 Optimization completed.
    -- Stationary point found.
 Normal termination of Gaussian 16 at Fri Dec 11 13:34:56 2020.

 --------------------------------------------------------------------
 #N Geom=AllCheck Guess=TCheck SCRF=Check GenChk RB3LYP/6-31G(d) Freq
 --------------------------------------------------------------------

 Structure from the checkpoint file:  "JID_7848.chk"
 -------------------------------
 CID_102695094_JID_7848_neutraal
 -------------------------------
 Charge =  0 Multiplicity = 1

 SCF Done:  E(RB3LYP) =  -767.434234287     A.U. after    1 cycles

  Exact polarizability: 136.051  11.722 162.729 -13.933   3.513 140.525
 Approx polarizability: 179.666  24.133 249.079 -27.688  16.332 241.855

                      1                      2                      3
                      A                      A                      A
 Frequencies --     22.3310                35.8059                47.5592
 Red. masses --      4.5087                 4.3341                 3.4804
 Frc consts  --      0.0013                 0.0033                 0.0046
 IR Inten    --      0.3805                 0.0124                 1.4713

                      4                      5                      6
                      A                      A                      A
 Frequencies --     70.6477                83.8116                99.7702
 Red. masses --      4.7874                 4.7332                 4.0913
 Frc consts  --      0.0141                 0.0196                 0.0240
 IR Inten    --      1.9453                 4.7878                 0.1864

                      7                      8                      9
                      A                      A                      A
 Frequencies --    123.7921               148.4341               178.9598
 Red. masses --      2.7021                 3.8220                 3.0440
 Frc consts  --      0.0244                 0.0496                 0.0574
 IR Inten    --      8.8886                 0.3382                 2.8089

                     10                     11                     12
                      A                      A                      A
 Frequencies --    194.4956               214.2071               235.8727
 Red. masses --      3.8429                 3.2346                 1.1917
 Frc consts  --      0.0857                 0.0874                 0.0391
 IR Inten    --      1.1031                 1.4387                 3.1701

                     13                     14                     15
                      A                      A                      A
 Frequencies --    258.1329               263.1885               300.2459
 Red. masses --      1.2822                 3.6409                 2.4458
 Frc consts  --      0.0503                 0.1486                 0.1299
 IR Inten    --      0.1121                 3.7382                 1.5705

                     16                     17                     18
                      A                      A                      A
 Frequencies --    323.3780               344.2153               395.6742
 Red. masses --      4.0067                 1.1262                 2.2868
 Frc consts  --      0.2469                 0.0786                 0.2109
 IR Inten    --      7.4343                52.8898                 1.9862

                     19                     20                     21
                      A                      A                      A
 Frequencies --    399.3678               419.1171               428.0957
 Red. masses --      2.7203                 3.0044                 2.9653
 Frc consts  --      0.2556                 0.3109                 0.3202
 IR Inten    --      5.4178                 7.1135                 5.7339

                     22                     23                     24
                      A                      A                      A
 Frequencies --    447.2278               500.1459               519.9793
 Red. masses --      2.9574                 3.7295                 4.2696
 Frc consts  --      0.3485                 0.5497                 0.6802
 IR Inten    --      1.9063                 4.0331                12.2952

                     25                     26                     27
                      A                      A                      A
 Frequencies --    545.8486               582.1076               637.7769
 Red. masses --      1.6372                 4.4570                 5.4898
 Frc consts  --      0.2874                 0.8898                 1.3157
 IR Inten    --     44.2455                20.4080                 2.1105

                     28                     29                     30
                      A                      A                      A
 Frequencies --    640.1278               668.5590               721.6085
 Red. masses --      3.5109                 2.1658                 2.0239
 Frc consts  --      0.8476                 0.5704                 0.6209
 IR Inten    --      3.1503                34.5582                46.4826

                     31                     32                     33
                      A                      A                      A
 Frequencies --    744.5098               773.5196               784.0325
 Red. masses --      2.3670                 3.5440                 2.6098
 Frc consts  --      0.7730                 1.2494                 0.9452
 IR Inten    --      4.0554                 2.6529                37.3408

                     34                     35                     36
                      A                      A                      A
 Frequencies --    802.7084               857.9519               868.4302
 Red. masses --      3.2037                 2.5092                 1.3054
 Frc consts  --      1.2162                 1.0882                 0.5801
 IR Inten    --     16.2884                 0.7850                 1.4061

                     37                     38                     39
                      A                      A                      A
 Frequencies --    895.4776               927.7765               930.3954
 Red. masses --      2.2975                 2.3055                 1.5154
 Frc consts  --      1.0855                 1.1692                 0.7729
 IR Inten    --     75.3527                11.7368                20.2953

                     40                     41                     42
                      A                      A                      A
 Frequencies --    944.1088               952.1771               976.5625
 Red. masses --      1.6605                 1.5639                 1.3360
 Frc consts  --      0.8720                 0.8354                 0.7507
 IR Inten    --      6.1417                29.1475                 0.4675

                     43                     44                     45
                      A                      A                      A
 Frequencies --   1000.7480              1012.2348              1021.9629
 Red. masses --      1.2661                 2.0616                 6.1671
 Frc consts  --      0.7471                 1.2446                 3.7949
 IR Inten    --      0.5919                72.0225                 0.3552

                     46                     47                     48
                      A                      A                      A
 Frequencies --   1040.0149              1062.3997              1077.9195
 Red. masses --      1.9193                 2.2118                 2.3294
 Frc consts  --      1.2232                 1.4709                 1.5947
 IR Inten    --      7.1201                 1.5689                49.2286

                     49                     50                     51
                      A                      A                      A
 Frequencies --   1094.4769              1132.0955              1146.9624
 Red. masses --      1.7317                 1.5735                 2.3656
 Frc consts  --      1.2222                 1.1882                 1.8335
 IR Inten    --      1.8678                12.6064                17.8658

                     52                     53                     54
                      A                      A                      A
 Frequencies --   1176.6835              1186.4325              1194.4331
 Red. masses --      2.6379                 1.6313                 1.1070
 Frc consts  --      2.1519                 1.3529                 0.9305
 IR Inten    --     27.5267                30.9150                 0.4736

                     55                     56                     57
                      A                      A                      A
 Frequencies --   1198.3889              1204.5195              1217.2743
 Red. masses --      1.5542                 1.6231                 1.1640
 Frc consts  --      1.3151                 1.3874                 1.0162
 IR Inten    --     14.8843                44.7013                 1.4290

                     58                     59                     60
                      A                      A                      A
 Frequencies --   1219.9310              1240.9048              1243.7835
 Red. masses --      1.7228                 1.5224                 1.7612
 Frc consts  --      1.5106                 1.3812                 1.6053
 IR Inten    --      6.4586                17.0239                 2.6960

                     61                     62                     63
                      A                      A                      A
 Frequencies --   1289.8152              1304.5270              1362.4307
 Red. masses --      1.5585                 1.1705                 2.0375
 Frc consts  --      1.5276                 1.1737                 2.2283
 IR Inten    --     11.5183                16.3952                 2.9025

                     64                     65                     66
                      A                      A                      A
 Frequencies --   1364.8755              1372.1313              1375.0209
 Red. masses --      2.2464                 1.5201                 1.3130
 Frc consts  --      2.4656                 1.6862                 1.4627
 IR Inten    --      6.9938                 3.9554                 4.2348

                     67                     68                     69
                      A                      A                      A
 Frequencies --   1388.2556              1418.2536              1425.0590
 Red. masses --      1.3828                 1.4498                 1.3508
 Frc consts  --      1.5701                 1.7182                 1.6163
 IR Inten    --     57.5941                59.9438                16.1388

                     70                     71                     72
                      A                      A                      A
 Frequencies --   1440.1136              1450.4721              1491.6150
 Red. masses --      1.2788                 2.0754                 1.5344
 Frc consts  --      1.5626                 2.5726                 2.0114
 IR Inten    --     16.3965                73.1243                25.9813

                     73                     74                     75
                      A                      A                      A
 Frequencies --   1501.1887              1503.2649              1517.3547
 Red. masses --      1.1325                 2.0837                 1.1270
 Frc consts  --      1.5037                 2.7743                 1.5288
 IR Inten    --      2.9849                 5.5869                12.6129

                     76                     77                     78
                      A                      A                      A
 Frequencies --   1523.3160              1531.7605              1534.0696
 Red. masses --      1.1035                 1.0534                 1.0627
 Frc consts  --      1.5087                 1.4562                 1.4735
 IR Inten    --      3.2561                 2.0204                 2.7222

                     79                     80                     81
                      A                      A                      A
 Frequencies --   1544.1958              1547.9717              1552.4732
 Red. masses --      1.0605                 2.1968                 1.0705
 Frc consts  --      1.4899                 3.1015                 1.5202
 IR Inten    --      7.2197                 9.1152                 8.3313

                     82                     83                     84
                      A                      A                      A
 Frequencies --   1643.7157              1666.8099              1704.7274
 Red. masses --      5.4309                 5.5393                 1.0898
 Frc consts  --      8.6452                 9.0673                 1.8661
 IR Inten    --      1.8910                 3.1987                28.3162

                     85                     86                     87
                      A                      A                      A
 Frequencies --   1753.5082              3006.9842              3051.1909
 Red. masses --      7.0319                 1.0434                 1.0680
 Frc consts  --     12.7391                 5.5584                 5.8584
 IR Inten    --    303.9525                41.7047                12.6686

                     88                     89                     90
                      A                      A                      A
 Frequencies --   3057.3762              3064.5848              3070.0460
 Red. masses --      1.0652                 1.0366                 1.0865
 Frc consts  --      5.8666                 5.7358                 6.0338
 IR Inten    --     30.4256                 8.3662                22.7368

                     91                     92                     93
                      A                      A                      A
 Frequencies --   3077.2891              3091.6977              3121.9903
 Red. masses --      1.0927                 1.0855                 1.0992
 Frc consts  --      6.0963                 6.1131                 6.3125
 IR Inten    --     51.6050                23.2168                 8.2825

                     94                     95                     96
                      A                      A                      A
 Frequencies --   3128.1176              3130.6035              3133.7964
 Red. masses --      1.0999                 1.0994                 1.0974
 Frc consts  --      6.3410                 6.3483                 6.3499
 IR Inten    --     15.4388                31.5850                28.1425

                     97                     98                     99
                      A                      A                      A
 Frequencies --   3141.3922              3172.4972              3186.0587
 Red. masses --      1.1035                 1.0872                 1.0861
 Frc consts  --      6.4163                 6.4472                 6.4958
 IR Inten    --     25.2147                11.3537                 0.0212

                    100                    101                    102
                      A                      A                      A
 Frequencies --   3194.8814              3202.9073              3213.2723
 Red. masses --      1.0905                 1.0937                 1.0979
 Frc consts  --      6.5581                 6.6104                 6.6787
 IR Inten    --     14.1002                23.3842                16.7076

                    103                    104                    105
                      A                      A                      A
 Frequencies --   3465.5323              3549.3246              3602.0471
 Red. masses --      1.0495                 1.0926                 1.0747
 Frc consts  --      7.4264                 8.1096                 8.2157
 IR Inten    --      2.1435                 2.6483                16.4830

 - Thermochemistry -
 -------------------
 Temperature   298.150 Kelvin.  Pressure   1.00000 Atm.
 Atom     1 has atomic number  6 and mass  12.00000

 Molecular mass:   236.15248 amu.
 Principal axes and moments of inertia in atomic units:
                           1         2         3
     Eigenvalues --  3207.667774442.875185890.94520
           X            0.99981   0.01701  -0.00967
           Y           -0.01729   0.99941  -0.02967
           Z            0.00916   0.02983   0.99951
 This molecule is an asymmetric top.
 Rotational symmetry number  1.
 Warning -- assumption of classical behavior for rotation
           may cause significant error
 Rotational temperatures (Kelvin)      0.02700     0.01950     0.01470
 Rotational constants (GHZ):           0.56263     0.40621     0.30636
 Zero-point vibrational energy     847242.1 (Joules/Mol)
                                  202.49572 (Kcal/Mol)
 Warning -- explicit consideration of  26 degrees of freedom as
           vibrations may cause significant error
 Vibrational temperatures:     32.13    51.52    68.43   101.65   120.59
          (Kelvin)            143.55   178.11   213.56   257.48   279.84
                              308.20   339.37   371.40   378.67   431.99
                              465.27   495.25   569.29   574.60   603.02
                              615.93   643.46   719.60   748.13   785.35
                              837.52   917.62   921.00   961.91  1038.23
                             1071.18  1112.92  1128.05  1154.92  1234.40
                             1249.48  1288.39  1334.86  1338.63  1358.36
                             1369.97  1405.06  1439.85  1456.38  1470.38
                             1496.35  1528.56  1550.89  1574.71  1628.83
                             1650.22  1692.99  1707.01  1718.52  1724.21
                             1733.03  1751.39  1755.21  1785.39  1789.53
                             1855.76  1876.92  1960.23  1963.75  1974.19
                             1978.35  1997.39  2040.55  2050.34  2072.00
                             2086.91  2146.10  2159.88  2162.86  2183.14
                             2191.71  2203.86  2207.18  2221.75  2227.19
                             2233.66  2364.94  2398.17  2452.72  2522.91
                             4326.38  4389.98  4398.88  4409.25  4417.11
                             4427.53  4448.26  4491.85  4500.66  4504.24
                             4508.83  4519.76  4564.52  4584.03  4596.72
                             4608.27  4623.18  4986.13  5106.69  5182.54

 Zero-point correction=                           0.322697 (Hartree/Particle)
 Thermal correction to Energy=                    0.340161
 Thermal correction to Enthalpy=                  0.341105
 Thermal correction to Gibbs Free Energy=         0.276426
 Sum of electronic and zero-point Energies=           -767.111537
 Sum of electronic and thermal Energies=              -767.094073
 Sum of electronic and thermal Enthalpies=            -767.093129
 Sum of electronic and thermal Free Energies=         -767.157808

                     E (Thermal)             CV                S
                      KCal/Mol        Cal/Mol-Kelvin    Cal/Mol-Kelvin
 Total                  213.454             66.024            136.129
 Electronic               0.000              0.000              0.000
 Translational            0.889              2.981             42.279
 Rotational               0.889              2.981             32.795
 Vibrational            211.677             60.063             61.054
 Vibration     1          0.593              1.985              6.415
 Vibration     2          0.594              1.982              5.479
 Vibration     3          0.595              1.979              4.916
 Vibration     4          0.598              1.968              4.135
 Vibration     5          0.601              1.960              3.800
 Vibration     6          0.604              1.949              3.459
 Vibration     7          0.610              1.929              3.040
 Vibration     8          0.618              1.904              2.692
 Vibration     9          0.629              1.868              2.339
 Vibration    10          0.635              1.848              2.185
 Vibration    11          0.644              1.819              2.008
 Vibration    12          0.655              1.786              1.834
 Vibration    13          0.667              1.749              1.674
 Vibration    14          0.670              1.740              1.641
 Vibration    15          0.693              1.673              1.416
 Vibration    16          0.708              1.629              1.293
 Vibration    17          0.723              1.587              1.193
 Vibration    18          0.762              1.479              0.979
 Vibration    19          0.765              1.471              0.965
 Vibration    20          0.782              1.429              0.895
 Vibration    21          0.790              1.409              0.865
 Vibration    22          0.806              1.367              0.804
 Vibration    23          0.856              1.250              0.658
 Vibration    24          0.875              1.206              0.610
 Vibration    25          0.901              1.149              0.553
 Vibration    26          0.939              1.070              0.481

                           ! Non-Optimized Parameters !
 Normal termination of Gaussian 16 at Fri Dec 11 13:50:27 2020.

 ----------------------------------------------------------------------
 # B3LYP/6-311++G(d,p) empiricaldispersion=gd3bj scf=xqc pop=npa geom=c
 heck
 ----------------------------------------------------------------------

 ---------------------------------------
 CID_102695094_JID_7848_Energie_neutraal
 ---------------------------------------
 Structure from the checkpoint file:  "JID_7848.chk"
 Charge =  0 Multiplicity = 1

 SCF Done:  E(RB3LYP) =  -767.660482043     A.U. after   16 cycles
 Normal termination of Gaussian 16 at Fri Dec 11 13:58:35 2020.

 ----------------------------------------------------------------------
 # B3LYP/6-311++G(d,p) empiricaldispersion=gd3bj scf=xqc pop=npa geom=c
 heck
 ----------------------------------------------------------------------

 -------------------------------------
 CID_102695094_JID_7848_Energie_kation
 -------------------------------------
 Structure from the checkpoint file:  "JID_7848.chk"
 Charge =  1 Multiplicity = 2

 SCF Done:  E(UB3LYP) =  -767.356121602     A.U. after   33 cycles
 SCF Done:  E(UB3LYP) =  -767.356121602     a.u. after    1 cycles
 Normal termination of Gaussian 16 at Fri Dec 11 14:21:28 2020.
 Gaussian 16:  ES64L-G16RevA.03 25-Dec-2016

 ----------------------------------------------------------------------
 # B3LYP/6-311++G(d,p) empiricaldispersion=gd3bj scf=xqc pop=npa geom=c
 heck
 ----------------------------------------------------------------------

 ------------------------------------
 CID_102695094_JID_7848_Energie_anion
 ------------------------------------
 Structure from the checkpoint file:  "JID_7848.chk"
 Charge = -1 Multiplicity = 2

                         Standard orientation:
 ---------------------------------------------------------------------
 Center     Atomic      Atomic             Coordinates (Angstroms)
 Number     Number       Type             X           Y           Z
 ---------------------------------------------------------------------
      1          6           0       -3.836141    0.494370   -0.657579
      2          6           0       -2.640388   -0.414225   -0.958032
      3          6           0       -1.283109    0.308292   -0.907827
      4          7           0       -1.117115    1.144148    0.280783
      5          6           0       -0.052960    1.880902    0.710268
      6          8           0       -0.023061    2.307693    1.864726
      7          6           0        1.149117    2.189954   -0.197464
      8          6           0        2.382139    1.415862    0.362038
      9          6           0        2.207296   -0.076089    0.234653
     10          6           0        1.534523   -0.798547    1.231257
     11          6           0        1.274203   -2.158569    1.072012
     12          6           0        1.678361   -2.822434   -0.088790
     13          6           0        2.360148   -2.119253   -1.081138
     14          6           0        2.624479   -0.757701   -0.916455
     15          7           0        0.921707    2.030136   -1.634794
     16          8           0       -2.682095   -1.634045   -0.217800
     17          6           0       -2.444852   -1.554304    1.174212
     18          1           0       -3.834144    0.881982    0.365908
     19          1           0       -4.765034   -0.064442   -0.803043
     20          1           0       -3.832864    1.357728   -1.331201
     21          1           0       -2.738103   -0.762571   -1.992264
     22          1           0       -0.498209   -0.456902   -0.960642
     23          1           0       -1.202849    0.942343   -1.792673
     24          1           0       -1.773567    1.006229    1.038153
     25          1           0        1.328891    3.254429   -0.018561
     26          1           0        3.269502    1.748055   -0.190311
     27          1           0        2.510372    1.702069    1.409666
     28          1           0        1.205545   -0.279757    2.127363
     29          1           0        0.754387   -2.703225    1.855173
     30          1           0        1.469896   -3.880971   -0.213269
     31          1           0        2.690873   -2.628933   -1.981873
     32          1           0        3.172341   -0.218248   -1.685945
     33          1           0        1.612183    2.585351   -2.136931
     34          1           0        1.086638    1.062197   -1.908001
     35          1           0       -1.411539   -1.263785    1.402219
     36          1           0       -3.132889   -0.862502    1.684178
     37          1           0       -2.619224   -2.557772    1.571802
 ---------------------------------------------------------------------

 SCF Done:  E(UB3LYP) =  -767.650531456     A.U. after   33 cycles
 SCF Done:  E(UB3LYP) =  -767.650531456     a.u. after    1 cycles

 The electronic state is 2-A.
 Alpha  occ. eigenvalues --  -19.03760 -18.99009 -14.24334 -14.20020 -10.17641
 Alpha  occ. eigenvalues --  -10.14262 -10.12562 -10.11669 -10.11305 -10.08866
 Alpha  occ. eigenvalues --  -10.08459 -10.08229 -10.08139 -10.08127 -10.07994
 Alpha  occ. eigenvalues --  -10.07959 -10.07885  -0.95005  -0.94252  -0.82950
 Alpha  occ. eigenvalues --   -0.79859  -0.76566  -0.69580  -0.68650  -0.65529
 Alpha  occ. eigenvalues --   -0.62782  -0.61335  -0.60602  -0.55965  -0.51571
 Alpha  occ. eigenvalues --   -0.50231  -0.50069  -0.47719  -0.42526  -0.41546
 Alpha  occ. eigenvalues --   -0.40112  -0.39862  -0.39210  -0.38334  -0.36909
 Alpha  occ. eigenvalues --   -0.36603  -0.36137  -0.35231  -0.33289  -0.33114
 Alpha  occ. eigenvalues --   -0.32729  -0.32231  -0.31919  -0.31241  -0.29825
 Alpha  occ. eigenvalues --   -0.28915  -0.27995  -0.27788  -0.27015  -0.26092
 Alpha  occ. eigenvalues --   -0.24763  -0.23723  -0.22610  -0.18032  -0.17726
 Alpha  occ. eigenvalues --   -0.16456  -0.16112  -0.15924  -0.14305   0.04016
 Alpha virt. eigenvalues --    0.05746   0.06464   0.06856   0.07257   0.07568
 Alpha virt. eigenvalues --    0.08142   0.08682   0.08975   0.09337   0.09681
 Alpha virt. eigenvalues --    0.10586   0.10665   0.10871   0.11755   0.12094

  Beta  occ. eigenvalues --  -19.03759 -18.99005 -14.24331 -14.19978 -10.17640
  Beta  occ. eigenvalues --  -10.14254 -10.12546 -10.11657 -10.11295 -10.08845
  Beta  occ. eigenvalues --  -10.08457 -10.08209 -10.08117 -10.08096 -10.07976
  Beta  occ. eigenvalues --  -10.07935 -10.07871  -0.94998  -0.94245  -0.82940
  Beta  occ. eigenvalues --   -0.79796  -0.76515  -0.69557  -0.68586  -0.65480
  Beta  occ. eigenvalues --   -0.62720  -0.61300  -0.60575  -0.55915  -0.51527
  Beta  occ. eigenvalues --   -0.50180  -0.50042  -0.47681  -0.42483  -0.41508
  Beta  occ. eigenvalues --   -0.40086  -0.39835  -0.39153  -0.38296  -0.36864
  Beta  occ. eigenvalues --   -0.36568  -0.36098  -0.35203  -0.33260  -0.33078
  Beta  occ. eigenvalues --   -0.32697  -0.32196  -0.31898  -0.31209  -0.29797
  Beta  occ. eigenvalues --   -0.28886  -0.27964  -0.27739  -0.26979  -0.26039
  Beta  occ. eigenvalues --   -0.24721  -0.23688  -0.22596  -0.18020  -0.17693
  Beta  occ. eigenvalues --   -0.16392  -0.16031  -0.15886  -0.14254
  Beta virt. eigenvalues --    0.05925   0.06798   0.07013   0.07275   0.07303
  Beta virt. eigenvalues --    0.08086   0.08647   0.09069   0.09118   0.09581
  Beta virt. eigenvalues --    0.10091   0.10777   0.11032   0.11190   0.11960

 Mulliken charges and spin densities:
               1          2
     1  C    0.436928  -0.927807
     2  C   -1.332472   0.683187
     3  C    0.205691  -0.495838
     4  N   -0.006672   0.048677
     5  C    0.068851  -0.613592
     6  O   -0.294303   0.012594
     7  C    0.868934  -0.293416
     8  C    1.159834  -2.002489
     9  C   -0.732062   1.214146
    10  C   -0.628745   0.608095
    11  C   -0.438571   0.220265
    12  C    0.808368  -1.160853
    13  C    0.701202  -0.912429
    14  C   -0.666335   0.345129
    15  N   -0.455589  -0.073658
    16  O   -0.034295  -0.008932
    17  C    0.013515  -0.357487
    18  H   -0.033022   0.166091
    19  H   -0.130060   0.303266
    20  H    0.071654   0.085354
    21  H   -0.256834   0.475362
    22  H    0.370581  -0.082440
    23  H    0.109212   0.132174
    24  H    0.477144  -0.186840
    25  H    0.059790   0.191108
    26  H   -0.312324   0.509049
    27  H    0.108153   0.092381
    28  H    0.118467   0.100047
    29  H   -0.088511   0.254528
    30  H   -0.058114   0.212491
    31  H   -0.560951   0.746717
    32  H   -0.732929   0.929576
    33  H   -0.251236   0.554791
    34  H    0.348342  -0.120797
    35  H    0.181232  -0.028488
    36  H    0.009672   0.114383
    37  H   -0.104548   0.265655
 Sum of Mulliken charges =  -1.00000   1.00000

 Dipole moment (field-independent basis, Debye):
    X=             -3.5475    Y=             -1.3383    Z=              3.7033  Tot=              5.3000
 Quadrupole moment (field-independent basis, Debye-Ang):
   XX=           -169.0406   YY=           -159.5453   ZZ=           -148.7849
   XY=             -5.6474   XZ=              9.0126   YZ=             -1.8980

 Summary of Natural Population Analysis:

                                       Natural Population
                Natural  -----------------------------------------------
    Atom  No    Charge         Core      Valence    Rydberg      Total
 -----------------------------------------------------------------------
      C    1   -0.30273      0.99964     2.29741    0.00569     3.30273
      C    2    0.06415      0.99955     1.92157    0.01474     2.93585
      C    3   -0.10940      0.99957     2.09922    0.01061     3.10940
      N    4   -0.31824      0.99965     2.80957    0.00903     3.81824
      C    5    0.34790      0.99963     1.62906    0.02341     2.65210
      O    6   -0.33653      0.99988     3.33147    0.00517     4.33653
      C    7   -0.04494      0.99955     2.03078    0.01461     3.04494
      C    8   -0.20249      0.99957     2.19222    0.01070     3.20249
      C    9   -0.01923      0.99950     2.00823    0.01151     3.01923
      C   10   -0.10416      0.99950     2.09555    0.00910     3.10416
      C   11   -0.10313      0.99956     2.09357    0.01000     3.10313
      C   12   -0.10080      0.99956     2.09113    0.01012     3.10080
      C   13   -0.09696      0.99956     2.08697    0.01044     3.09696
      C   14   -0.10845      0.99950     2.09747    0.01148     3.10845
      N   15   -0.42520      0.99976     2.91469    0.01075     3.92520
      O   16   -0.30074      0.99988     3.29042    0.01043     4.30074
      C   17   -0.10524      0.99959     2.09592    0.00973     3.10524
      H   18    0.09537      0.00000     0.40355    0.00108     0.40463
      H   19    0.10474      0.00000     0.39423    0.00103     0.39526
      H   20    0.10624      0.00000     0.39295    0.00081     0.39376
      H   21    0.09630      0.00000     0.40213    0.00157     0.40370
      H   22    0.10321      0.00000     0.39430    0.00249     0.39679
      H   23    0.11367      0.00000     0.38462    0.00170     0.38633
      H   24    0.19142      0.00000     0.30560    0.00298     0.30858
      H   25    0.10913      0.00000     0.38964    0.00124     0.39087
      H   26    0.10612      0.00000     0.39218    0.00170     0.39388
      H   27    0.11177      0.00000     0.38709    0.00114     0.38823
      H   28    0.10603      0.00000     0.39256    0.00141     0.39397
      H   29    0.10022      0.00000     0.39888    0.00090     0.39978
      H   30    0.10109      0.00000     0.39798    0.00094     0.39891
      H   31    0.10306      0.00000     0.39563    0.00131     0.39694
      H   32    0.10592      0.00000     0.39152    0.00256     0.39408
      H   33    0.18311      0.00000     0.31276    0.00413     0.31689
      H   34    0.17736      0.00000     0.31958    0.00307     0.32264
      H   35    0.08502      0.00000     0.41340    0.00158     0.41498
      H   36    0.07472      0.00000     0.42411    0.00117     0.42528
      H   37    0.09172      0.00000     0.40721    0.00107     0.40828
 =======================================================================
   * Total *   -0.00000     16.99347    46.78514    0.22139    64.00000

 Normal termination of Gaussian 16 at Fri Dec 11 14:44:07 2020.
