 Gaussian 16, Revision A.03,

 -----------------------------------------------------------
 # opt freq B3LYP/6-31G(d) empiricaldispersion=gd3bj scf=xqc
 -----------------------------------------------------------

 ------------------------------
 CID_54511391_JID_1353_neutraal
 ------------------------------
 Symbolic Z-matrix:
 Charge =  0 Multiplicity = 1

 SCF Done:  E(RB3LYP) =  -646.735893875     A.U. after   14 cycles
 SCF Done:  E(RB3LYP) =  -646.737545815     A.U. after   12 cycles
 SCF Done:  E(RB3LYP) =  -646.733190899     A.U. after   14 cycles
 SCF Done:  E(RB3LYP) =  -646.737536752     A.U. after   12 cycles
 SCF Done:  E(RB3LYP) =  -646.738690594     A.U. after   10 cycles
 SCF Done:  E(RB3LYP) =  -646.738983781     A.U. after   12 cycles
 SCF Done:  E(RB3LYP) =  -646.739052235     A.U. after   12 cycles
 SCF Done:  E(RB3LYP) =  -646.739088335     A.U. after   11 cycles
 SCF Done:  E(RB3LYP) =  -646.739112361     A.U. after   10 cycles
 SCF Done:  E(RB3LYP) =  -646.739113410     A.U. after    9 cycles
 SCF Done:  E(RB3LYP) =  -646.739117084     A.U. after    8 cycles
 SCF Done:  E(RB3LYP) =  -646.739117500     A.U. after    7 cycles
 SCF Done:  E(RB3LYP) =  -646.739117706     A.U. after    7 cycles
 SCF Done:  E(RB3LYP) =  -646.739117735     A.U. after    7 cycles
 Optimization completed.
    -- Stationary point found.
 Normal termination of Gaussian 16 at Tue Dec  8 19:49:39 2020.

 --------------------------------------------------------------------
 #N Geom=AllCheck Guess=TCheck SCRF=Check GenChk RB3LYP/6-31G(d) Freq
 --------------------------------------------------------------------

 Structure from the checkpoint file:  "JID_1353.chk"
 ------------------------------
 CID_54511391_JID_1353_neutraal
 ------------------------------
 Charge =  0 Multiplicity = 1

 SCF Done:  E(RB3LYP) =  -646.739117735     A.U. after    1 cycles

  Exact polarizability:  70.900  -9.395  76.751  -5.678  -1.681  55.945
 Approx polarizability:  90.932  -8.031 100.841 -17.473  -7.167  94.334

                      1                      2                      3
                      A                      A                      A
 Frequencies --     47.2206                68.7906                75.8936
 Red. masses --      4.9144                 7.6141                 4.7580
 Frc consts  --      0.0065                 0.0212                 0.0161
 IR Inten    --      2.3440                 2.4358                 0.6461

                      4                      5                      6
                      A                      A                      A
 Frequencies --    105.5805               127.0441               141.9034
 Red. masses --      6.2991                 2.0463                 2.5545
 Frc consts  --      0.0414                 0.0195                 0.0303
 IR Inten    --      1.7792                 0.1132                 0.6509

                      7                      8                      9
                      A                      A                      A
 Frequencies --    177.8629               236.1287               279.2966
 Red. masses --      2.9514                 3.7146                 5.0343
 Frc consts  --      0.0550                 0.1220                 0.2314
 IR Inten    --      2.3804                 6.2854                 7.5273

                     10                     11                     12
                      A                      A                      A
 Frequencies --    336.6789               370.0505               460.3496
 Red. masses --      4.3669                 2.5172                 3.7026
 Frc consts  --      0.2916                 0.2031                 0.4623
 IR Inten    --     17.7399                15.3350                17.3780

                     13                     14                     15
                      A                      A                      A
 Frequencies --    524.8354               546.8548               554.9989
 Red. masses --      4.9702                 2.3335                 1.1610
 Frc consts  --      0.8066                 0.4112                 0.2107
 IR Inten    --     15.1640                18.1990                95.8841

                     16                     17                     18
                      A                      A                      A
 Frequencies --    660.9572               695.3569               776.4687
 Red. masses --      5.8748                 6.0863                11.3882
 Frc consts  --      1.5121                 1.7339                 4.0453
 IR Inten    --      3.7101                 0.2269                86.4299

                     19                     20                     21
                      A                      A                      A
 Frequencies --    784.0278               828.9768               931.3343
 Red. masses --     11.0080                 2.9335                 4.7627
 Frc consts  --      3.9868                 1.1878                 2.4339
 IR Inten    --      4.7165                 2.3070                26.2284

                     22                     23                     24
                      A                      A                      A
 Frequencies --    950.9698               994.9761              1056.8230
 Red. masses --      3.4579                 3.1679                 3.8674
 Frc consts  --      1.8425                 1.8478                 2.5449
 IR Inten    --     39.4823                12.1078                50.4477

                     25                     26                     27
                      A                      A                      A
 Frequencies --   1124.5358              1141.4250              1169.5946
 Red. masses --      2.8568                 4.3287                 4.4930
 Frc consts  --      2.1285                 3.3228                 3.6212
 IR Inten    --      7.1135                12.9575                16.3534

                     28                     29                     30
                      A                      A                      A
 Frequencies --   1190.1199              1228.1831              1233.4138
 Red. masses --      1.2720                 2.0487                 1.6605
 Frc consts  --      1.0615                 1.8208                 1.4883
 IR Inten    --      1.0040               393.8780                19.1692

                     31                     32                     33
                      A                      A                      A
 Frequencies --   1306.9352              1327.8977              1361.0094
 Red. masses --      1.1718                 3.2742                 1.1452
 Frc consts  --      1.1793                 3.4016                 1.2499
 IR Inten    --      9.9660               654.5968                28.6505

                     34                     35                     36
                      A                      A                      A
 Frequencies --   1412.5204              1440.1480              1461.9631
 Red. masses --      1.5588                 1.4026                 1.9602
 Frc consts  --      1.8324                 1.7140                 2.4685
 IR Inten    --    241.6604                14.0939               126.7850

                     37                     38                     39
                      A                      A                      A
 Frequencies --   1491.8889              1500.7931              1505.9329
 Red. masses --      1.1354                 1.1814                 1.2259
 Frc consts  --      1.4890                 1.5678                 1.6381
 IR Inten    --     10.5670                60.1591                65.1625

                     40                     41                     42
                      A                      A                      A
 Frequencies --   1514.4209              1525.4714              1827.7020
 Red. masses --      1.0492                 1.0494                10.7460
 Frc consts  --      1.4178                 1.4388                21.1499
 IR Inten    --      5.1957                 3.7136               235.3421

                     43                     44                     45
                      A                      A                      A
 Frequencies --   1840.8077              3077.9310              3093.0485
 Red. masses --      9.5663                 1.0296                 1.0580
 Frc consts  --     19.0989                 5.7469                 5.9637
 IR Inten    --    387.9944                30.7806                 3.7316

                     46                     47                     48
                      A                      A                      A
 Frequencies --   3100.1327              3152.5296              3154.6894
 Red. masses --      1.0588                 1.1095                 1.1081
 Frc consts  --      5.9954                 6.4970                 6.4973
 IR Inten    --     40.7153                 9.9058                20.8382

                     49                     50                     51
                      A                      A                      A
 Frequencies --   3157.9954              3186.8351              3747.7508
 Red. masses --      1.1086                 1.1069                 1.0647
 Frc consts  --      6.5138                 6.6233                 8.8111
 IR Inten    --      8.1057                17.4976                76.5308

 - Thermochemistry -
 -------------------
 Temperature   298.150 Kelvin.  Pressure   1.00000 Atm.
 Atom     1 has atomic number  6 and mass  12.00000

 Molecular mass:   164.03209 amu.
 Principal axes and moments of inertia in atomic units:
                           1         2         3
     Eigenvalues --  1143.199051978.774872645.82539
           X            0.99709  -0.07607   0.00433
           Y            0.07606   0.99710   0.00209
           Z           -0.00448  -0.00175   0.99999
 This molecule is an asymmetric top.
 Rotational symmetry number  1.
 Warning -- assumption of classical behavior for rotation
           may cause significant error
 Rotational temperatures (Kelvin)      0.07576     0.04377     0.03274
 Rotational constants (GHZ):           1.57868     0.91205     0.68211
 Zero-point vibrational energy     382859.2 (Joules/Mol)
                                   91.50554 (Kcal/Mol)
 Warning -- explicit consideration of  15 degrees of freedom as
           vibrations may cause significant error
 Vibrational temperatures:     67.94    98.97   109.19   151.91   182.79
          (Kelvin)            204.17   255.91   339.74   401.85   484.41
                              532.42   662.34   755.12   786.80   798.52
                              950.97  1000.46  1117.17  1128.04  1192.71
                             1339.98  1368.23  1431.55  1520.53  1617.96
                             1642.26  1682.79  1712.32  1767.08  1774.61
                             1880.39  1910.55  1958.19  2032.30  2072.05
                             2103.44  2146.50  2159.31  2166.70  2178.91
                             2194.81  2629.66  2648.51  4428.46  4450.21
                             4460.40  4535.79  4538.89  4543.65  4585.14
                             5392.18

 Zero-point correction=                           0.145823 (Hartree/Particle)
 Thermal correction to Energy=                    0.157072
 Thermal correction to Enthalpy=                  0.158016
 Thermal correction to Gibbs Free Energy=         0.107543
 Sum of electronic and zero-point Energies=           -646.593294
 Sum of electronic and thermal Energies=              -646.582046
 Sum of electronic and thermal Enthalpies=            -646.581101
 Sum of electronic and thermal Free Energies=         -646.631575

                     E (Thermal)             CV                S
                      KCal/Mol        Cal/Mol-Kelvin    Cal/Mol-Kelvin
 Total                   98.564             38.682            106.231
 Electronic               0.000              0.000              0.000
 Translational            0.889              2.981             41.193
 Rotational               0.889              2.981             30.171
 Vibrational             96.787             32.721             34.866
 Vibration     1          0.595              1.979              4.931
 Vibration     2          0.598              1.969              4.188
 Vibration     3          0.599              1.965              3.994
 Vibration     4          0.605              1.945              3.349
 Vibration     5          0.611              1.926              2.990
 Vibration     6          0.615              1.911              2.778
 Vibration     7          0.628              1.870              2.351
 Vibration     8          0.655              1.785              1.832
 Vibration     9          0.680              1.712              1.538
 Vibration    10          0.717              1.602              1.228
 Vibration    11          0.742              1.534              1.080
 Vibration    12          0.818              1.338              0.765
 Vibration    13          0.880              1.195              0.599
 Vibration    14          0.902              1.147              0.551
 Vibration    15          0.910              1.129              0.534

 Optimization completed.
    -- Stationary point found.
 Normal termination of Gaussian 16 at Tue Dec  8 19:53:14 2020.

 ----------------------------------------------------------------------
 # B3LYP/6-311++G(d,p) empiricaldispersion=gd3bj scf=xqc pop=npa geom=c
 heck
 ----------------------------------------------------------------------

 --------------------------------------
 CID_54511391_JID_1353_Energie_neutraal
 --------------------------------------
 Structure from the checkpoint file:  "JID_1353.chk"
 Charge =  0 Multiplicity = 1

 SCF Done:  E(RB3LYP) =  -646.946401595     A.U. after   13 cycles
 Normal termination of Gaussian 16 at Tue Dec  8 19:54:04 2020.

 ----------------------------------------------------------------------
 # B3LYP/6-311++G(d,p) empiricaldispersion=gd3bj scf=xqc pop=npa geom=c
 heck
 ----------------------------------------------------------------------

 ------------------------------------
 CID_54511391_JID_1353_Energie_kation
 ------------------------------------
 Structure from the checkpoint file:  "JID_1353.chk"
 Charge =  1 Multiplicity = 2

 SCF Done:  E(UB3LYP) =  -646.570984168     A.U. after   28 cycles
 Normal termination of Gaussian 16 at Tue Dec  8 19:56:33 2020.
 Gaussian 16:  ES64L-G16RevA.03 25-Dec-2016

 ----------------------------------------------------------------------
 # B3LYP/6-311++G(d,p) empiricaldispersion=gd3bj scf=xqc pop=npa geom=c
 heck
 ----------------------------------------------------------------------

 -----------------------------------
 CID_54511391_JID_1353_Energie_anion
 -----------------------------------
 Structure from the checkpoint file:  "JID_1353.chk"
 Charge = -1 Multiplicity = 2

                         Standard orientation:
 ---------------------------------------------------------------------
 Center     Atomic      Atomic             Coordinates (Angstroms)
 Number     Number       Type             X           Y           Z
 ---------------------------------------------------------------------
      1          6           0        2.979466   -1.148620   -0.062806
      2          8           0        2.358965    0.076313   -0.480209
      3          6           0        1.295801    0.428090    0.246948
      4          8           0        0.890877   -0.137985    1.239657
      5          8           0        0.769666    1.533419   -0.308168
      6          6           0       -0.447250    2.017183    0.279604
      7          6           0       -1.685398    1.389830   -0.344446
      8          8           0       -2.062955    0.154414    0.288058
      9          6           0       -1.533011   -0.964027   -0.218235
     10          8           0       -0.798624   -1.052824   -1.178990
     11          8           0       -1.977503   -2.001349    0.509692
     12          1           0        3.824815   -1.287076   -0.736697
     13          1           0        2.272797   -1.977011   -0.157636
     14          1           0        3.318680   -1.077190    0.973553
     15          1           0       -0.436956    1.851070    1.359516
     16          1           0       -0.446975    3.089533    0.068014
     17          1           0       -2.542173    2.048906   -0.183308
     18          1           0       -1.533715    1.229947   -1.414571
     19          1           0       -1.557524   -2.788826    0.124422
 ---------------------------------------------------------------------

 SCF Done:  E(UB3LYP) =  -646.931829750     A.U. after   28 cycles

 The electronic state is 2-A.
 Alpha  occ. eigenvalues --  -19.07474 -19.07410 -19.07332 -19.06917 -19.01239
 Alpha  occ. eigenvalues --  -19.01129 -10.24922 -10.24711 -10.13783 -10.13741
 Alpha  occ. eigenvalues --  -10.12486  -1.05123  -1.04548  -0.96590  -0.95784
 Alpha  occ. eigenvalues --   -0.92687  -0.92379  -0.69505  -0.63942  -0.58638
 Alpha  occ. eigenvalues --   -0.51395  -0.47760  -0.45945  -0.44749  -0.41912
 Alpha  occ. eigenvalues --   -0.40274  -0.39721  -0.38368  -0.36640  -0.34835
 Alpha  occ. eigenvalues --   -0.34513  -0.32795  -0.31982  -0.31256  -0.28567
 Alpha  occ. eigenvalues --   -0.27117  -0.25839  -0.24204  -0.22322  -0.21425
 Alpha  occ. eigenvalues --   -0.20655  -0.19622  -0.19247   0.04613
 Alpha virt. eigenvalues --    0.06239   0.07370   0.09297   0.09846   0.10557
 Alpha virt. eigenvalues --    0.10888   0.11861   0.12339   0.13372   0.13895
 Alpha virt. eigenvalues --    0.14361   0.15563   0.16610   0.17389   0.17918

  Beta  occ. eigenvalues --  -19.07462 -19.07404 -19.07331 -19.06863 -19.01231
  Beta  occ. eigenvalues --  -19.01115 -10.24918 -10.24711 -10.13750 -10.13710
  Beta  occ. eigenvalues --  -10.12443  -1.05100  -1.04515  -0.96562  -0.95731
  Beta  occ. eigenvalues --   -0.92671  -0.92344  -0.69448  -0.63888  -0.58568
  Beta  occ. eigenvalues --   -0.51300  -0.47700  -0.45910  -0.44718  -0.41865
  Beta  occ. eigenvalues --   -0.40243  -0.39696  -0.38328  -0.36588  -0.34797
  Beta  occ. eigenvalues --   -0.34472  -0.32742  -0.31932  -0.31210  -0.28536
  Beta  occ. eigenvalues --   -0.27087  -0.25818  -0.24168  -0.22292  -0.21407
  Beta  occ. eigenvalues --   -0.20636  -0.19607  -0.19216
  Beta virt. eigenvalues --    0.07256   0.07988   0.08682   0.09808   0.10535
  Beta virt. eigenvalues --    0.10987   0.11357   0.12003   0.12696   0.13721
  Beta virt. eigenvalues --    0.14132   0.14739   0.15683   0.16501   0.17343

 Mulliken charges and spin densities:
               1          2
     1  C    1.037970  -1.231901
     2  O   -0.189267   0.063029
     3  C    0.039510  -0.061535
     4  O   -0.280212   0.031444
     5  O   -0.118931   0.040776
     6  C    0.309664  -0.563347
     7  C    0.698087  -1.008269
     8  O   -0.063373   0.004103
     9  C    0.445643  -0.334326
    10  O   -0.314860   0.033300
    11  O   -0.230147   0.037558
    12  H   -0.224439   0.371671
    13  H   -0.404411   0.594525
    14  H   -0.186189   0.353067
    15  H    0.240787  -0.014226
    16  H   -0.820793   1.008985
    17  H   -0.726965   0.916183
    18  H    0.231056  -0.003508
    19  H   -0.443131   0.762472
 Sum of Mulliken charges =  -1.00000   1.00000

 Dipole moment (field-independent basis, Debye):
    X=              1.2149    Y=              0.7658    Z=             -0.1532  Tot=              1.4443
 Quadrupole moment (field-independent basis, Debye-Ang):
   XX=           -107.4840   YY=           -121.7212   ZZ=            -87.5466
   XY=              8.9858   XZ=              3.2264   YZ=              2.3868

 Summary of Natural Population Analysis:

                                       Natural Population
                Natural  -----------------------------------------------
    Atom  No    Charge         Core      Valence    Rydberg      Total
 -----------------------------------------------------------------------
      C    1   -0.10187      0.99960     2.09322    0.00905     3.10187
      O    2   -0.26969      0.99985     3.26161    0.00824     4.26969
      C    3    0.51895      0.99972     1.45296    0.02838     2.48105
      O    4   -0.32543      0.99987     3.32001    0.00556     4.32543
      O    5   -0.27524      0.99985     3.26687    0.00852     4.27524
      C    6   -0.02954      0.99955     2.01745    0.01254     3.02954
      C    7   -0.02760      0.99955     2.01596    0.01209     3.02760
      O    8   -0.27562      0.99985     3.26639    0.00938     4.27562
      C    9    0.51426      0.99977     1.45681    0.02916     2.48574
      O   10   -0.32943      0.99986     3.32350    0.00607     4.32943
      O   11   -0.33389      0.99987     3.32752    0.00651     4.33389
      H   12    0.09101      0.00000     0.40769    0.00130     0.40899
      H   13    0.09760      0.00000     0.40048    0.00193     0.40240
      H   14    0.09065      0.00000     0.40808    0.00127     0.40935
      H   15    0.10277      0.00000     0.39594    0.00129     0.39723
      H   16    0.10124      0.00000     0.39512    0.00364     0.39876
      H   17    0.10078      0.00000     0.39606    0.00315     0.39922
      H   18    0.10256      0.00000     0.39611    0.00133     0.39744
      H   19    0.24851      0.00000     0.23741    0.01409     0.25149
 =======================================================================
   * Total *   -0.00000     10.99734    31.83919    0.16348    43.00000

 Normal termination of Gaussian 16 at Tue Dec  8 19:59:21 2020.
