 Gaussian 16, Revision A.03,

 -----------------------------------------------------------
 # opt freq B3LYP/6-31G(d) empiricaldispersion=gd3bj scf=xqc
 -----------------------------------------------------------

 -------------------------------
 CID_104465819_JID_7385_neutraal
 -------------------------------
 Symbolic Z-matrix:
 Charge =  0 Multiplicity = 1

 SCF Done:  E(RB3LYP) =  -754.987735543     A.U. after   12 cycles
 SCF Done:  E(RB3LYP) =  -754.989753644     A.U. after   11 cycles
 SCF Done:  E(RB3LYP) =  -754.987702967     A.U. after   11 cycles
 SCF Done:  E(RB3LYP) =  -754.990817441     A.U. after   11 cycles
 SCF Done:  E(RB3LYP) =  -754.992151117     A.U. after   11 cycles
 SCF Done:  E(RB3LYP) =  -754.992681542     A.U. after   10 cycles
 SCF Done:  E(RB3LYP) =  -754.992815115     A.U. after   10 cycles
 SCF Done:  E(RB3LYP) =  -754.992850847     A.U. after    9 cycles
 SCF Done:  E(RB3LYP) =  -754.992871733     A.U. after    9 cycles
 SCF Done:  E(RB3LYP) =  -754.992883884     A.U. after    8 cycles
 SCF Done:  E(RB3LYP) =  -754.992977547     A.U. after    7 cycles
 SCF Done:  E(RB3LYP) =  -754.992978180     A.U. after    7 cycles
 SCF Done:  E(RB3LYP) =  -754.992978672     A.U. after    8 cycles
 SCF Done:  E(RB3LYP) =  -754.992978836     A.U. after    7 cycles
 SCF Done:  E(RB3LYP) =  -754.992978905     A.U. after    7 cycles
 SCF Done:  E(RB3LYP) =  -754.992978924     A.U. after    6 cycles
 Optimization completed.
    -- Stationary point found.
 Normal termination of Gaussian 16 at Sun Dec 13 16:22:00 2020.

 --------------------------------------------------------------------
 #N Geom=AllCheck Guess=TCheck SCRF=Check GenChk RB3LYP/6-31G(d) Freq
 --------------------------------------------------------------------

 Structure from the checkpoint file:  "JID_7385.chk"
 -------------------------------
 CID_104465819_JID_7385_neutraal
 -------------------------------
 Charge =  0 Multiplicity = 1

 SCF Done:  E(RB3LYP) =  -754.992978924     A.U. after    1 cycles

  Exact polarizability: 173.361   1.864 151.758  -6.928  -0.926 140.342
 Approx polarizability: 217.406   2.594 213.645  -2.958  -3.104 210.117

                      1                      2                      3
                      A                      A                      A
 Frequencies --     21.2037                24.0183                30.8566
 Red. masses --      3.3189                 2.0831                 3.7436
 Frc consts  --      0.0009                 0.0007                 0.0021
 IR Inten    --      0.7634                 1.4361                 0.6815

                      4                      5                      6
                      A                      A                      A
 Frequencies --     44.3786                49.1052                95.3341
 Red. masses --      3.1295                 3.2528                 4.1935
 Frc consts  --      0.0036                 0.0046                 0.0225
 IR Inten    --      0.5022                 0.2951                 1.5650

                      7                      8                      9
                      A                      A                      A
 Frequencies --    118.3953               147.3868               182.5914
 Red. masses --      3.2248                 4.3367                 2.6654
 Frc consts  --      0.0266                 0.0555                 0.0524
 IR Inten    --      0.2625                 3.7255                 2.0902

                     10                     11                     12
                      A                      A                      A
 Frequencies --    214.7794               228.4120               242.5988
 Red. masses --      3.0002                 2.1074                 1.8737
 Frc consts  --      0.0815                 0.0648                 0.0650
 IR Inten    --      0.6888                 1.1710                 2.1203

                     13                     14                     15
                      A                      A                      A
 Frequencies --    259.6250               267.6304               293.0028
 Red. masses --      2.0039                 1.6120                 1.4219
 Frc consts  --      0.0796                 0.0680                 0.0719
 IR Inten    --      4.4835                 2.4880                 0.0516

                     16                     17                     18
                      A                      A                      A
 Frequencies --    302.2787               318.2307               354.3916
 Red. masses --      2.5239                 1.7556                 2.4733
 Frc consts  --      0.1359                 0.1048                 0.1830
 IR Inten    --      0.3272                 2.2043                 0.5839

                     19                     20                     21
                      A                      A                      A
 Frequencies --    369.4092               394.5177               420.1486
 Red. masses --      2.2401                 1.8763                 2.2597
 Frc consts  --      0.1801                 0.1721                 0.2350
 IR Inten    --      0.4560                 0.4006                 4.4888

                     22                     23                     24
                      A                      A                      A
 Frequencies --    474.9094               496.6373               511.2337
 Red. masses --      2.4060                 2.6256                 2.3387
 Frc consts  --      0.3197                 0.3816                 0.3601
 IR Inten    --      0.6785                 1.5441                 4.6495

                     25                     26                     27
                      A                      A                      A
 Frequencies --    534.6779               616.4097               685.6572
 Red. masses --      2.6739                 3.1789                 2.9088
 Frc consts  --      0.4504                 0.7117                 0.8057
 IR Inten    --     12.5632                 9.6999                11.7595

                     28                     29                     30
                      A                      A                      A
 Frequencies --    706.3728               720.0051               755.8247
 Red. masses --      4.8831                 2.9750                 2.3676
 Frc consts  --      1.4355                 0.9087                 0.7969
 IR Inten    --      6.4564                 1.8596                 2.3289

                     31                     32                     33
                      A                      A                      A
 Frequencies --    766.4175               787.4207               828.1744
 Red. masses --      1.9603                 1.7382                 1.7818
 Frc consts  --      0.6784                 0.6350                 0.7200
 IR Inten    --      7.8974                38.3787                 1.1266

                     34                     35                     36
                      A                      A                      A
 Frequencies --    841.4476               857.9530               889.3170
 Red. masses --      2.0030                 2.7018                 2.4456
 Frc consts  --      0.8356                 1.1717                 1.1396
 IR Inten    --      2.1209                 4.3675                 6.8506

                     37                     38                     39
                      A                      A                      A
 Frequencies --    897.3060               922.7691               931.2172
 Red. masses --      2.4169                 2.4401                 2.1205
 Frc consts  --      1.1465                 1.2242                 1.0834
 IR Inten    --      1.0999                 4.2287                13.4238

                     40                     41                     42
                      A                      A                      A
 Frequencies --    939.2302               949.0202               951.0775
 Red. masses --      3.2683                 1.4763                 1.6362
 Frc consts  --      1.6987                 0.7834                 0.8720
 IR Inten    --     17.6052                 4.6855                 3.9343

                     43                     44                     45
                      A                      A                      A
 Frequencies --    965.5172               978.9363               985.2090
 Red. masses --      2.2919                 1.9253                 1.5007
 Frc consts  --      1.2589                 1.0871                 0.8582
 IR Inten    --      6.2927                 2.8776                 1.5775

                     46                     47                     48
                      A                      A                      A
 Frequencies --   1005.7898              1025.0596              1028.8647
 Red. masses --      2.0098                 1.7536                 1.7403
 Frc consts  --      1.1979                 1.0856                 1.0854
 IR Inten    --      2.9560                17.4784                 8.0839

                     49                     50                     51
                      A                      A                      A
 Frequencies --   1048.7638              1073.9263              1093.0561
 Red. masses --      1.9560                 2.2102                 2.5538
 Frc consts  --      1.2676                 1.5018                 1.7977
 IR Inten    --     11.7848                16.3123                16.9248

                     52                     53                     54
                      A                      A                      A
 Frequencies --   1100.3417              1117.1112              1119.9479
 Red. masses --      2.1290                 2.6627                 3.4272
 Frc consts  --      1.5187                 1.9578                 2.5327
 IR Inten    --     66.1426                33.0420                86.8514

                     55                     56                     57
                      A                      A                      A
 Frequencies --   1144.0958              1160.9648              1166.9555
 Red. masses --      2.0273                 1.7840                 1.9293
 Frc consts  --      1.5635                 1.4167                 1.5480
 IR Inten    --      7.4379                17.7780                10.9294

                     58                     59                     60
                      A                      A                      A
 Frequencies --   1175.1597              1183.6656              1217.2897
 Red. masses --      2.4494                 2.0706                 1.5787
 Frc consts  --      1.9930                 1.7092                 1.3782
 IR Inten    --     28.0571                 6.2205                16.3191

                     61                     62                     63
                      A                      A                      A
 Frequencies --   1223.8166              1229.3199              1246.7126
 Red. masses --      1.1553                 1.3900                 1.3057
 Frc consts  --      1.0194                 1.2376                 1.1957
 IR Inten    --      2.4422                 3.7858                12.0085

                     64                     65                     66
                      A                      A                      A
 Frequencies --   1253.3837              1272.0439              1284.0553
 Red. masses --      1.4900                 1.2010                 1.3677
 Frc consts  --      1.3791                 1.1450                 1.3287
 IR Inten    --      5.1634                 4.6572                17.1082

                     67                     68                     69
                      A                      A                      A
 Frequencies --   1291.4283              1313.6974              1335.7269
 Red. masses --      1.4018                 1.1969                 1.2938
 Frc consts  --      1.3774                 1.2170                 1.3600
 IR Inten    --      9.7984                 4.5575                 3.7251

                     70                     71                     72
                      A                      A                      A
 Frequencies --   1339.0198              1344.1007              1356.5430
 Red. masses --      1.2505                 1.3667                 1.3242
 Frc consts  --      1.3210                 1.4547                 1.4357
 IR Inten    --      4.9510                 1.0875                 4.3397

                     73                     74                     75
                      A                      A                      A
 Frequencies --   1366.2657              1374.2983              1385.0911
 Red. masses --      1.2329                 1.4356                 1.4161
 Frc consts  --      1.3560                 1.5975                 1.6007
 IR Inten    --     13.2275                41.3817                 1.3899

                     76                     77                     78
                      A                      A                      A
 Frequencies --   1386.8477              1394.3452              1406.8457
 Red. masses --      1.3538                 1.2940                 1.2912
 Frc consts  --      1.5342                 1.4823                 1.5056
 IR Inten    --      6.2881                12.9083                 9.9065

                     79                     80                     81
                      A                      A                      A
 Frequencies --   1412.3444              1416.0225              1420.0383
 Red. masses --      1.3892                 1.4604                 1.3898
 Frc consts  --      1.6327                 1.7253                 1.6512
 IR Inten    --     13.0102                 0.1292                 1.7614

                     82                     83                     84
                      A                      A                      A
 Frequencies --   1427.8619              1433.4176              1434.8954
 Red. masses --      1.2648                 1.2906                 1.3068
 Frc consts  --      1.5193                 1.5624                 1.5853
 IR Inten    --      0.6479                 8.6418                 1.3058

                     85                     86                     87
                      A                      A                      A
 Frequencies --   1451.5986              1455.9118              1498.0530
 Red. masses --      1.3706                 1.2621                 1.1605
 Frc consts  --      1.7016                 1.5762                 1.5344
 IR Inten    --      3.7870                 9.7548                 5.0214

                     88                     89                     90
                      A                      A                      A
 Frequencies --   1503.0988              1511.6420              1518.8834
 Red. masses --      1.0995                 1.0835                 1.0599
 Frc consts  --      1.4636                 1.4587                 1.4406
 IR Inten    --      4.8943                10.2084                 1.6027

                     91                     92                     93
                      A                      A                      A
 Frequencies --   1521.8060              1524.6525              1525.8508
 Red. masses --      1.0663                 1.0721                 1.0853
 Frc consts  --      1.4550                 1.4684                 1.4888
 IR Inten    --      4.2731                 5.7901                 6.7966

                     94                     95                     96
                      A                      A                      A
 Frequencies --   1528.4896              1534.3396              1541.8419
 Red. masses --      1.1350                 1.1034                 1.0705
 Frc consts  --      1.5623                 1.5305                 1.4994
 IR Inten    --      0.9165                 3.0067                 3.3084

                     97                     98                     99
                      A                      A                      A
 Frequencies --   1545.2510              1555.6651              1562.3538
 Red. masses --      1.0945                 1.0522                 1.0978
 Frc consts  --      1.5398                 1.5003                 1.5788
 IR Inten    --      1.2719                19.8886                 0.1808

                    100                    101                    102
                      A                      A                      A
 Frequencies --   2919.9986              2982.7323              2983.5821
 Red. masses --      1.0827                 1.0721                 1.0716
 Frc consts  --      5.4389                 5.6196                 5.6202
 IR Inten    --     86.7399               107.7101                32.5270

                    103                    104                    105
                      A                      A                      A
 Frequencies --   3016.8408              3022.8243              3031.9515
 Red. masses --      1.0834                 1.0690                 1.0837
 Frc consts  --      5.8097                 5.7549                 5.8697
 IR Inten    --      7.7566                92.8302                46.4654

                    106                    107                    108
                      A                      A                      A
 Frequencies --   3039.0088              3047.1413              3051.3066
 Red. masses --      1.0368                 1.0613                 1.0430
 Frc consts  --      5.6416                 5.8058                 5.7216
 IR Inten    --     19.1762                13.2948                29.5583

                    109                    110                    111
                      A                      A                      A
 Frequencies --   3055.7960              3061.5119              3062.1480
 Red. masses --      1.0646                 1.0629                 1.0621
 Frc consts  --      5.8572                 5.8695                 5.8677
 IR Inten    --     52.6928                60.8527                 4.6604

                    112                    113                    114
                      A                      A                      A
 Frequencies --   3064.6138              3070.2528              3080.2607
 Red. masses --      1.0915                 1.0618                 1.0977
 Frc consts  --      6.0401                 5.8970                 6.1365
 IR Inten    --      9.2734                33.2238                26.0204

                    115                    116                    117
                      A                      A                      A
 Frequencies --   3088.8678              3090.2017              3102.3815
 Red. masses --      1.1014                 1.1000                 1.1013
 Frc consts  --      6.1913                 6.1892                 6.2451
 IR Inten    --     26.2471                63.4446                45.6550

                    118                    119                    120
                      A                      A                      A
 Frequencies --   3104.8651              3105.8946              3109.7468
 Red. masses --      1.0974                 1.0948                 1.1005
 Frc consts  --      6.2329                 6.2223                 6.2705
 IR Inten    --     29.1389                85.4453                27.5293

                    121                    122                    123
                      A                      A                      A
 Frequencies --   3111.6560              3114.3280              3118.2699
 Red. masses --      1.1010                 1.1019                 1.0962
 Frc consts  --      6.2806                 6.2967                 6.2802
 IR Inten    --     43.8148                21.1826                56.3434

                    124                    125                    126
                      A                      A                      A
 Frequencies --   3121.2714              3153.4061              3515.1273
 Red. masses --      1.0893                 1.1007                 1.0750
 Frc consts  --      6.2523                 6.4489                 7.8260
 IR Inten    --      9.9596                10.7441                 0.2023

 - Thermochemistry -
 -------------------
 Temperature   298.150 Kelvin.  Pressure   1.00000 Atm.
 Atom     1 has atomic number  6 and mass  12.00000

 Molecular mass:   241.20418 amu.
 Principal axes and moments of inertia in atomic units:
                           1         2         3
     Eigenvalues --  2330.149687392.643567899.96236
           X            0.99985   0.01028  -0.01419
           Y           -0.01029   0.99995  -0.00050
           Z            0.01418   0.00065   0.99990
 This molecule is an asymmetric top.
 Rotational symmetry number  1.
 Warning -- assumption of classical behavior for rotation
           may cause significant error
 Rotational temperatures (Kelvin)      0.03717     0.01172     0.01096
 Rotational constants (GHZ):           0.77452     0.24413     0.22845
 Zero-point vibrational energy    1066982.7 (Joules/Mol)
                                  255.01498 (Kcal/Mol)
 Warning -- explicit consideration of  26 degrees of freedom as
           vibrations may cause significant error
 Vibrational temperatures:     30.51    34.56    44.40    63.85    70.65
          (Kelvin)            137.16   170.34   212.06   262.71   309.02
                              328.63   349.05   373.54   385.06   421.57
                              434.91   457.86   509.89   531.50   567.62
                              604.50   683.29   714.55   735.55   769.28
                              886.88   986.51  1016.31  1035.93  1087.46
                             1102.70  1132.92  1191.56  1210.66  1234.40
                             1279.53  1291.02  1327.66  1339.81  1351.34
                             1365.43  1368.39  1389.16  1408.47  1417.50
                             1447.11  1474.83  1480.31  1508.94  1545.14
                             1572.66  1583.15  1607.27  1611.36  1646.10
                             1670.37  1678.99  1690.79  1703.03  1751.41
                             1760.80  1768.72  1793.74  1803.34  1830.19
                             1847.47  1858.08  1890.12  1921.81  1926.55
                             1933.86  1951.76  1965.75  1977.31  1992.84
                             1995.36  2006.15  2024.14  2032.05  2037.34
                             2043.12  2054.37  2062.37  2064.49  2088.53
                             2094.73  2155.36  2162.62  2174.92  2185.33
                             2189.54  2193.63  2195.36  2199.16  2207.57
                             2218.37  2223.27  2238.26  2247.88  4201.23
                             4291.49  4292.71  4340.56  4349.17  4362.30
                             4372.46  4384.16  4390.15  4396.61  4404.83
                             4405.75  4409.30  4417.41  4431.81  4444.19
                             4446.11  4463.64  4467.21  4468.69  4474.23
                             4476.98  4480.82  4486.49  4490.81  4537.05
                             5057.48

 Zero-point correction=                           0.406392 (Hartree/Particle)
 Thermal correction to Energy=                    0.424252
 Thermal correction to Enthalpy=                  0.425196
 Thermal correction to Gibbs Free Energy=         0.358202
 Sum of electronic and zero-point Energies=           -754.586587
 Sum of electronic and thermal Energies=              -754.568727
 Sum of electronic and thermal Enthalpies=            -754.567783
 Sum of electronic and thermal Free Energies=         -754.634777

                     E (Thermal)             CV                S
                      KCal/Mol        Cal/Mol-Kelvin    Cal/Mol-Kelvin
 Total                  266.222             68.452            140.999
 Electronic               0.000              0.000              0.000
 Translational            0.889              2.981             42.343
 Rotational               0.889              2.981             33.275
 Vibrational            264.444             62.491             65.381
 Vibration     1          0.593              1.985              6.518
 Vibration     2          0.593              1.985              6.271
 Vibration     3          0.594              1.984              5.774
 Vibration     4          0.595              1.980              5.053
 Vibration     5          0.595              1.978              4.853
 Vibration     6          0.603              1.953              3.548
 Vibration     7          0.609              1.934              3.126
 Vibration     8          0.617              1.906              2.706
 Vibration     9          0.630              1.863              2.302
 Vibration    10          0.645              1.818              2.003
 Vibration    11          0.651              1.798              1.891
 Vibration    12          0.659              1.775              1.784
 Vibration    13          0.668              1.746              1.664
 Vibration    14          0.673              1.733              1.611
 Vibration    15          0.688              1.687              1.457
 Vibration    16          0.694              1.669              1.404
 Vibration    17          0.705              1.639              1.319
 Vibration    18          0.730              1.566              1.147
 Vibration    19          0.742              1.535              1.082
 Vibration    20          0.761              1.482              0.983
 Vibration    21          0.783              1.426              0.891
 Vibration    22          0.832              1.306              0.724
 Vibration    23          0.852              1.257              0.667
 Vibration    24          0.866              1.225              0.631
 Vibration    25          0.890              1.173              0.577
 Vibration    26          0.976              0.997              0.422

                           ! Non-Optimized Parameters !
 Normal termination of Gaussian 16 at Sun Dec 13 16:43:51 2020.

 ----------------------------------------------------------------------
 # B3LYP/6-311++G(d,p) empiricaldispersion=gd3bj scf=xqc pop=npa geom=c
 heck
 ----------------------------------------------------------------------

 ---------------------------------------
 CID_104465819_JID_7385_Energie_neutraal
 ---------------------------------------
 Structure from the checkpoint file:  "JID_7385.chk"
 Charge =  0 Multiplicity = 1

 SCF Done:  E(RB3LYP) =  -755.207513141     A.U. after   13 cycles
 Normal termination of Gaussian 16 at Sun Dec 13 16:53:14 2020.

 ----------------------------------------------------------------------
 # B3LYP/6-311++G(d,p) empiricaldispersion=gd3bj scf=xqc pop=npa geom=c
 heck
 ----------------------------------------------------------------------

 -------------------------------------
 CID_104465819_JID_7385_Energie_kation
 -------------------------------------
 Structure from the checkpoint file:  "JID_7385.chk"
 Charge =  1 Multiplicity = 2

 SCF Done:  E(UB3LYP) =  -754.912205397     A.U. after   24 cycles
 Normal termination of Gaussian 16 at Sun Dec 13 17:18:09 2020.
 Gaussian 16:  ES64L-G16RevA.03 25-Dec-2016

 ----------------------------------------------------------------------
 # B3LYP/6-311++G(d,p) empiricaldispersion=gd3bj scf=xqc pop=npa geom=c
 heck
 ----------------------------------------------------------------------

 ------------------------------------
 CID_104465819_JID_7385_Energie_anion
 ------------------------------------
 Structure from the checkpoint file:  "JID_7385.chk"
 Charge = -1 Multiplicity = 2

                         Standard orientation:
 ---------------------------------------------------------------------
 Center     Atomic      Atomic             Coordinates (Angstroms)
 Number     Number       Type             X           Y           Z
 ---------------------------------------------------------------------
      1          6           0        3.420989    2.250015   -0.952501
      2          6           0        2.834599    1.602039    0.310106
      3          6           0        1.374428    2.021282    0.505804
      4          6           0        3.139179    0.080652    0.343080
      5          6           0        2.773706   -0.785420   -0.890720
      6          6           0        1.423036   -1.518904   -0.862537
      7          6           0        1.259416   -2.160844    0.520830
      8          6           0        1.428456   -1.110185    1.609716
      9          8           0        2.724475   -0.517642    1.576053
     10          7           0        0.319481   -0.607871   -1.181347
     11          6           0       -0.981197   -1.244536   -1.436439
     12          6           0       -1.965440   -1.118237   -0.265718
     13          6           0       -2.288621    0.331354    0.121387
     14          6           0       -3.165869    0.417901    1.389115
     15          6           0       -4.612911    0.398681    0.837931
     16          8           0       -4.519708    0.530983   -0.584517
     17          6           0       -3.215752    1.013823   -0.892092
     18          1           0        2.820675    2.018747   -1.840821
     19          1           0        4.447851    1.915589   -1.145904
     20          1           0        3.438649    3.340492   -0.849529
     21          1           0        3.395805    1.995220    1.169500
     22          1           0        0.723647    1.564694   -0.243573
     23          1           0        1.009246    1.726557    1.493836
     24          1           0        1.287217    3.112451    0.434334
     25          1           0        4.234166    0.037290    0.404416
     26          1           0        3.538689   -1.567108   -0.966062
     27          1           0        2.861723   -0.189817   -1.806914
     28          1           0        1.473813   -2.331398   -1.612661
     29          1           0        0.289246   -2.659330    0.615234
     30          1           0        2.031361   -2.931122    0.640712
     31          1           0        0.640298   -0.354251    1.514729
     32          1           0        1.351377   -1.560217    2.604386
     33          1           0        0.591903   -0.067512   -1.997257
     34          1           0       -1.424916   -0.770697   -2.320240
     35          1           0       -0.855248   -2.309681   -1.693840
     36          1           0       -2.894928   -1.638900   -0.532677
     37          1           0       -1.557299   -1.632591    0.611546
     38          1           0       -1.352342    0.881553    0.245028
     39          1           0       -2.970649    1.353794    1.923037
     40          1           0       -2.972987   -0.404167    2.085537
     41          1           0       -5.136196   -0.540527    1.047349
     42          1           0       -5.211765    1.221291    1.254125
     43          1           0       -3.165417    2.111025   -0.787681
     44          1           0       -3.012544    0.761256   -1.937232
 ---------------------------------------------------------------------

 SCF Done:  E(UB3LYP) =  -755.196025723     A.U. after   30 cycles

 The electronic state is 2-A.
 Alpha  occ. eigenvalues --  -19.02974 -19.02004 -14.19755 -10.12526 -10.12018
 Alpha  occ. eigenvalues --  -10.11854 -10.11285 -10.10234 -10.09621 -10.08053
 Alpha  occ. eigenvalues --  -10.07950 -10.07386 -10.06966 -10.06884 -10.06843
 Alpha  occ. eigenvalues --  -10.06174 -10.05113  -0.94676  -0.93108  -0.81212
 Alpha  occ. eigenvalues --   -0.71552  -0.70773  -0.68478  -0.65521  -0.64918
 Alpha  occ. eigenvalues --   -0.61938  -0.58481  -0.55405  -0.54314  -0.52367
 Alpha  occ. eigenvalues --   -0.50385  -0.48297  -0.46664  -0.43691  -0.41091
 Alpha  occ. eigenvalues --   -0.40493  -0.40161  -0.38853  -0.37965  -0.37122
 Alpha  occ. eigenvalues --   -0.36303  -0.35378  -0.34399  -0.33598  -0.32668
 Alpha  occ. eigenvalues --   -0.31790  -0.31316  -0.30243  -0.29686  -0.29098
 Alpha  occ. eigenvalues --   -0.28553  -0.28206  -0.27677  -0.27242  -0.25868
 Alpha  occ. eigenvalues --   -0.25163  -0.24422  -0.24275  -0.23935  -0.23031
 Alpha  occ. eigenvalues --   -0.22561  -0.22411  -0.21630  -0.18926  -0.16547
 Alpha  occ. eigenvalues --   -0.15527  -0.13083   0.04104
 Alpha virt. eigenvalues --    0.05985   0.06613   0.06869   0.07862   0.07909
 Alpha virt. eigenvalues --    0.08606   0.09024   0.09295   0.09674   0.09852
 Alpha virt. eigenvalues --    0.10759   0.11063   0.11256   0.11917   0.12119

  Beta  occ. eigenvalues --  -19.02974 -19.02002 -14.19729 -10.12514 -10.12014
  Beta  occ. eigenvalues --  -10.11835 -10.11278 -10.10222 -10.09598 -10.08041
  Beta  occ. eigenvalues --  -10.07949 -10.07381 -10.06958 -10.06859 -10.06831
  Beta  occ. eigenvalues --  -10.06144 -10.05102  -0.94671  -0.93101  -0.81176
  Beta  occ. eigenvalues --   -0.71532  -0.70752  -0.68446  -0.65494  -0.64888
  Beta  occ. eigenvalues --   -0.61901  -0.58438  -0.55370  -0.54274  -0.52317
  Beta  occ. eigenvalues --   -0.50346  -0.48263  -0.46625  -0.43648  -0.41060
  Beta  occ. eigenvalues --   -0.40458  -0.40129  -0.38807  -0.37941  -0.37095
  Beta  occ. eigenvalues --   -0.36273  -0.35350  -0.34372  -0.33568  -0.32645
  Beta  occ. eigenvalues --   -0.31763  -0.31295  -0.30214  -0.29661  -0.29072
  Beta  occ. eigenvalues --   -0.28522  -0.28180  -0.27656  -0.27213  -0.25843
  Beta  occ. eigenvalues --   -0.25137  -0.24403  -0.24244  -0.23909  -0.23012
  Beta  occ. eigenvalues --   -0.22539  -0.22390  -0.21601  -0.18906  -0.16534
  Beta  occ. eigenvalues --   -0.15510  -0.13027
  Beta virt. eigenvalues --    0.06022   0.06678   0.07068   0.07526   0.08145
  Beta virt. eigenvalues --    0.08247   0.09083   0.09316   0.09506   0.09896
  Beta virt. eigenvalues --    0.10075   0.11012   0.11384   0.11476   0.12080

 Mulliken charges and spin densities:
               1          2
     1  C    0.643694  -1.309554
     2  C   -0.753727   1.081589
     3  C   -0.124797  -0.555790
     4  C   -0.050867  -0.084385
     5  C    0.850613  -1.685824
     6  C   -0.508616   0.636571
     7  C   -0.011396  -0.357558
     8  C   -0.119540  -0.160411
     9  O   -0.090123  -0.002216
    10  N   -0.024796  -0.040830
    11  C    0.573307  -1.106941
    12  C    0.139322  -0.290386
    13  C   -0.630516   0.984889
    14  C   -0.286485   0.082165
    15  C    0.007270  -0.459638
    16  O   -0.126105   0.029957
    17  C    0.130828  -0.715147
    18  H   -0.253389   0.396592
    19  H   -0.163141   0.296360
    20  H   -0.024824   0.151659
    21  H    0.087782   0.108877
    22  H    0.219485  -0.014020
    23  H   -0.005136   0.146286
    24  H   -0.059741   0.198126
    25  H   -0.042194   0.256093
    26  H   -0.036620   0.191291
    27  H   -0.119279   0.282769
    28  H   -0.485994   0.681178
    29  H   -0.021949   0.155980
    30  H   -0.024324   0.195564
    31  H    0.219768  -0.045267
    32  H   -0.037129   0.231759
    33  H    0.048998   0.221636
    34  H   -0.386141   0.543909
    35  H    0.067761   0.074903
    36  H    0.174694   0.009872
    37  H    0.012301   0.076133
    38  H    0.441990  -0.382233
    39  H   -0.010827   0.192063
    40  H   -0.081475   0.209235
    41  H   -0.007426   0.169710
    42  H   -0.015219   0.155695
    43  H   -0.118838   0.279120
    44  H    0.002801   0.170222
 Sum of Mulliken charges =  -1.00000   1.00000

 Dipole moment (field-independent basis, Debye):
    X=             -1.7163    Y=             -0.4957    Z=              3.3545  Tot=              3.8005
 Quadrupole moment (field-independent basis, Debye-Ang):
   XX=           -190.1037   YY=           -151.5331   ZZ=           -155.8242
   XY=              3.0945   XZ=              1.3500   YZ=              0.1918

 Summary of Natural Population Analysis:

                                       Natural Population
                Natural  -----------------------------------------------
    Atom  No    Charge         Core      Valence    Rydberg      Total
 -----------------------------------------------------------------------
      C    1   -0.28601      0.99965     2.28072    0.00564     3.28601
      C    2   -0.11999      0.99959     2.11021    0.01019     3.11999
      C    3   -0.29215      0.99963     2.28630    0.00621     3.29215
      C    4    0.07610      0.99950     1.90836    0.01603     2.92390
      C    5   -0.20808      0.99958     2.19765    0.01084     3.20808
      C    6   -0.00325      0.99958     1.98924    0.01444     3.00325
      C    7   -0.20739      0.99960     2.19927    0.00851     3.20739
      C    8   -0.01112      0.99955     1.99982    0.01175     3.01112
      O    9   -0.30714      0.99988     3.29826    0.00899     4.30714
      N   10   -0.35547      0.99971     2.84120    0.01456     3.85547
      C   11   -0.08565      0.99961     2.07445    0.01158     3.08565
      C   12   -0.19128      0.99960     2.18332    0.00836     3.19128
      C   13   -0.13172      0.99958     2.12194    0.01020     3.13172
      C   14   -0.20416      0.99963     2.19614    0.00839     3.20416
      C   15   -0.01035      0.99961     2.00035    0.01040     3.01035
      O   16   -0.30432      0.99990     3.29584    0.00859     4.30432
      C   17   -0.00899      0.99957     1.99623    0.01320     3.00899
      H   18    0.09875      0.00000     0.39989    0.00136     0.40125
      H   19    0.09821      0.00000     0.40071    0.00108     0.40179
      H   20    0.09889      0.00000     0.40025    0.00086     0.40111
      H   21    0.09280      0.00000     0.40551    0.00169     0.40720
      H   22    0.10801      0.00000     0.39001    0.00198     0.39199
      H   23    0.09802      0.00000     0.40081    0.00117     0.40198
      H   24    0.09550      0.00000     0.40358    0.00092     0.40450
      H   25    0.08903      0.00000     0.40940    0.00157     0.41097
      H   26    0.10369      0.00000     0.39499    0.00132     0.39631
      H   27    0.10628      0.00000     0.39191    0.00181     0.39372
      H   28    0.08363      0.00000     0.41395    0.00242     0.41637
      H   29    0.10114      0.00000     0.39769    0.00118     0.39886
      H   30    0.10029      0.00000     0.39849    0.00122     0.39971
      H   31    0.08381      0.00000     0.41412    0.00207     0.41619
      H   32    0.08756      0.00000     0.41141    0.00104     0.41244
      H   33    0.18017      0.00000     0.31588    0.00396     0.31983
      H   34    0.09394      0.00000     0.40474    0.00132     0.40606
      H   35    0.08608      0.00000     0.41249    0.00143     0.41392
      H   36    0.09931      0.00000     0.39914    0.00155     0.40069
      H   37    0.09518      0.00000     0.40326    0.00156     0.40482
      H   38    0.11272      0.00000     0.38480    0.00248     0.38728
      H   39    0.10004      0.00000     0.39875    0.00120     0.39996
      H   40    0.10265      0.00000     0.39625    0.00109     0.39735
      H   41    0.08451      0.00000     0.41400    0.00149     0.41549
      H   42    0.07915      0.00000     0.41919    0.00166     0.42085
      H   43    0.07876      0.00000     0.41996    0.00128     0.42124
      H   44    0.09284      0.00000     0.40555    0.00161     0.40716
 =======================================================================
   * Total *   -0.00000     16.99377    49.78604    0.22019    67.00000

 Normal termination of Gaussian 16 at Sun Dec 13 17:48:22 2020.
