 Gaussian 16, Revision A.03,

 -----------------------------------------------------------
 # opt freq B3LYP/6-31G(d) empiricaldispersion=gd3bj scf=xqc
 -----------------------------------------------------------

 -------------------------------
 CID_102646958_JID_2728_neutraal
 -------------------------------
 Symbolic Z-matrix:
 Charge =  0 Multiplicity = 1

 SCF Done:  E(RB3LYP) =  -577.055620216     A.U. after   15 cycles
 SCF Done:  E(RB3LYP) =  -577.059076291     A.U. after   13 cycles
 SCF Done:  E(RB3LYP) =  -577.057453715     A.U. after   13 cycles
 SCF Done:  E(RB3LYP) =  -577.058785612     A.U. after   13 cycles
 SCF Done:  E(RB3LYP) =  -577.059605057     A.U. after   10 cycles
 SCF Done:  E(RB3LYP) =  -577.059808588     A.U. after   11 cycles
 SCF Done:  E(RB3LYP) =  -577.059757491     A.U. after   12 cycles
 SCF Done:  E(RB3LYP) =  -577.059866365     A.U. after   11 cycles
 SCF Done:  E(RB3LYP) =  -577.059876122     A.U. after    9 cycles
 SCF Done:  E(RB3LYP) =  -577.059878215     A.U. after    8 cycles
 SCF Done:  E(RB3LYP) =  -577.059878929     A.U. after    7 cycles
 SCF Done:  E(RB3LYP) =  -577.059879058     A.U. after    7 cycles
 Optimization completed.
    -- Stationary point found.

 1\1\GINC-NODE104\FOpt\RB3LYP\6-31G(d)\C9H14O3\VSC10255\09-Dec-2020\0\\
 # opt freq B3LYP/6-31G(d) empiricaldispersion=gd3bj scf=xqc\\CID_10264
 6958_JID_2728_neutraal\\0,1\C,1.0874748302,-0.0212430141,0.0884324292\
 C,0.7604210056,-0.4676786741,1.5240122029\C,1.1450858849,0.6344831881,
 2.5220296094\O,0.3109062225,1.3120460528,3.0995561289\C,2.6061407314,0
 .8643032757,2.7603247419\C,3.0431587,1.8574133632,3.5523768461\C,4.501
 9445626,2.1494809314,3.7515617607\C,5.3428234962,1.3713063415,2.728729
 3333\C,4.7829084899,-0.0390984884,2.576596923\O,3.4284740718,-0.020103

 Normal termination of Gaussian 16 at Wed Dec  9 17:53:51 2020.

 --------------------------------------------------------------------
 #N Geom=AllCheck Guess=TCheck SCRF=Check GenChk RB3LYP/6-31G(d) Freq
 --------------------------------------------------------------------

 Structure from the checkpoint file:  "JID_2728.chk"
 -------------------------------
 CID_102646958_JID_2728_neutraal
 -------------------------------
 Charge =  0 Multiplicity = 1

 SCF Done:  E(RB3LYP) =  -577.059879058     A.U. after    1 cycles

  Exact polarizability: 134.367  -2.689  99.745  -0.108   2.296  73.337
 Approx polarizability: 167.617  -6.903 155.902  -2.377   7.168 110.336

                      1                      2                      3
                      A                      A                      A
 Frequencies --     39.7430                60.4659               108.8239
 Red. masses --      4.7562                 2.9889                 3.9855
 Frc consts  --      0.0044                 0.0064                 0.0278
 IR Inten    --      2.1542                 0.5439                 0.8504

                      4                      5                      6
                      A                      A                      A
 Frequencies --    126.0046               139.8415               188.9172
 Red. masses --      2.2064                 1.6963                 2.2185
 Frc consts  --      0.0206                 0.0195                 0.0466
 IR Inten    --      1.3017                 1.1532                 4.7942

                      7                      8                      9
                      A                      A                      A
 Frequencies --    219.1798               238.9403               253.8016
 Red. masses --      2.6116                 2.7922                 1.4313
 Frc consts  --      0.0739                 0.0939                 0.0543
 IR Inten    --      3.1254                 3.3126                 0.9555

                     10                     11                     12
                      A                      A                      A
 Frequencies --    296.2973               304.9854               318.0862
 Red. masses --      2.4444                 2.0324                 2.9902
 Frc consts  --      0.1264                 0.1114                 0.1783
 IR Inten    --      1.0238                 4.3822                 3.1930

                     13                     14                     15
                      A                      A                      A
 Frequencies --    337.2854               451.3260               504.3516
 Red. masses --      4.6367                 4.9507                 5.0471
 Frc consts  --      0.3108                 0.5942                 0.7564
 IR Inten    --      1.3122                 4.1390                 5.0538

                     16                     17                     18
                      A                      A                      A
 Frequencies --    512.4757               521.8563               574.0001
 Red. masses --      3.8142                 3.0817                 3.2511
 Frc consts  --      0.5902                 0.4945                 0.6311
 IR Inten    --     10.6778                 2.0725                 1.5149

                     19                     20                     21
                      A                      A                      A
 Frequencies --    730.5484               762.5923               800.3749
 Red. masses --      4.7039                 2.3740                 2.5529
 Frc consts  --      1.4791                 0.8134                 0.9635
 IR Inten    --      6.2827                24.9379                 7.5693

                     22                     23                     24
                      A                      A                      A
 Frequencies --    835.7216               857.4462               879.6783
 Red. masses --      1.3730                 3.5572                 2.4612
 Frc consts  --      0.5650                 1.5409                 1.1221
 IR Inten    --     13.2578                 9.9649                 7.6972

                     25                     26                     27
                      A                      A                      A
 Frequencies --    908.7475               937.2310               952.1568
 Red. masses --      1.4424                 2.6023                 3.0522
 Frc consts  --      0.7018                 1.3468                 1.6304
 IR Inten    --      8.1810                69.9471                 6.2755

                     28                     29                     30
                      A                      A                      A
 Frequencies --   1007.8319              1016.4669              1083.4958
 Red. masses --      2.6615                 2.3380                 1.7052
 Frc consts  --      1.5927                 1.4232                 1.1794
 IR Inten    --     30.9368                38.6415                 4.7190

                     31                     32                     33
                      A                      A                      A
 Frequencies --   1093.5008              1097.8595              1104.7782
 Red. masses --      1.5691                 2.7502                 2.6702
 Frc consts  --      1.1055                 1.9530                 1.9202
 IR Inten    --     29.7006                58.2217                62.9679

                     34                     35                     36
                      A                      A                      A
 Frequencies --   1114.8311              1182.8092              1193.9233
 Red. masses --      2.2873                 1.3147                 2.6896
 Frc consts  --      1.6749                 1.0837                 2.2589
 IR Inten    --     21.0750                17.4084               155.0163

                     37                     38                     39
                      A                      A                      A
 Frequencies --   1225.1887              1240.6686              1248.1938
 Red. masses --      1.4305                 1.6627                 2.1525
 Frc consts  --      1.2652                 1.5079                 1.9758
 IR Inten    --      9.7291                43.9747                 7.2072

                     40                     41                     42
                      A                      A                      A
 Frequencies --   1276.8489              1314.1913              1328.2637
 Red. masses --      1.5668                 1.1721                 1.5934
 Frc consts  --      1.5050                 1.1927                 1.6563
 IR Inten    --     36.8357                 2.2634                55.9385

                     43                     44                     45
                      A                      A                      A
 Frequencies --   1340.1616              1388.9623              1397.3839
 Red. masses --      1.4565                 1.5146                 1.6324
 Frc consts  --      1.5412                 1.7216                 1.8781
 IR Inten    --      6.6821                 1.0791                23.1995

                     46                     47                     48
                      A                      A                      A
 Frequencies --   1404.8204              1423.9103              1436.4448
 Red. masses --      1.3034                 1.2765                 1.3915
 Frc consts  --      1.5155                 1.5248                 1.6917
 IR Inten    --      3.0685                14.9500                 6.2264

                     49                     50                     51
                      A                      A                      A
 Frequencies --   1493.8290              1501.3606              1515.3657
 Red. masses --      1.1479                 1.0878                 1.1032
 Frc consts  --      1.5093                 1.4447                 1.4926
 IR Inten    --      0.6344                 4.5629                 6.0176

                     52                     53                     54
                      A                      A                      A
 Frequencies --   1518.7915              1527.3261              1531.9284
 Red. masses --      1.0522                 1.0485                 1.0988
 Frc consts  --      1.4301                 1.4410                 1.5194
 IR Inten    --      1.8889                 6.1979                 1.0636

                     55                     56                     57
                      A                      A                      A
 Frequencies --   1536.7709              1545.1557              1701.9544
 Red. masses --      1.0638                 1.0485                 7.6096
 Frc consts  --      1.4803                 1.4749                12.9869
 IR Inten    --      2.8253                 5.3958               142.4039

                     58                     59                     60
                      A                      A                      A
 Frequencies --   1793.3860              3019.0220              3023.6847
 Red. masses --     11.3284                 1.0690                 1.0456
 Frc consts  --     21.4668                 5.7408                 5.6326
 IR Inten    --     69.4606                27.5959                68.0899

                     61                     62                     63
                      A                      A                      A
 Frequencies --   3030.9587              3056.7561              3065.9445
 Red. masses --      1.0703                 1.0774                 1.0360
 Frc consts  --      5.7933                 5.9310                 5.7379
 IR Inten    --     43.4162                 8.9395                21.5622

                     64                     65                     66
                      A                      A                      A
 Frequencies --   3068.5287              3081.8701              3107.6962
 Red. masses --      1.0753                 1.0837                 1.1044
 Frc consts  --      5.9652                 6.0646                 6.2841
 IR Inten    --     39.8029                13.6242                37.1144

                     67                     68                     69
                      A                      A                      A
 Frequencies --   3110.9742              3131.5872              3135.1301
 Red. masses --      1.0863                 1.0973                 1.1033
 Frc consts  --      6.1945                 6.3403                 6.3895
 IR Inten    --     37.7993                31.8508                17.8665

                     70                     71                     72
                      A                      A                      A
 Frequencies --   3148.9683              3158.0230              3227.7006
 Red. masses --      1.1067                 1.1011                 1.0898
 Frc consts  --      6.4655                 6.4701                 6.6891
 IR Inten    --     27.1780                11.7914                 0.1122

 - Thermochemistry -
 -------------------
 Temperature   298.150 Kelvin.  Pressure   1.00000 Atm.
 Atom     1 has atomic number  6 and mass  12.00000

 Molecular mass:   170.09429 amu.
 Principal axes and moments of inertia in atomic units:
                           1         2         3
     Eigenvalues --   828.233293469.807293967.74938
           X            0.99995  -0.00440   0.00942
           Y            0.00450   0.99993  -0.01061
           Z           -0.00937   0.01065   0.99990
 This molecule is an asymmetric top.
 Rotational symmetry number  1.
 Warning -- assumption of classical behavior for rotation
           may cause significant error
 Rotational temperatures (Kelvin)      0.10458     0.02496     0.02183
 Rotational constants (GHZ):           2.17903     0.52013     0.45485
 Zero-point vibrational energy     585058.4 (Joules/Mol)
                                  139.83231 (Kcal/Mol)
 Warning -- explicit consideration of  18 degrees of freedom as
           vibrations may cause significant error
 Vibrational temperatures:     57.18    87.00   156.57   181.29   201.20
          (Kelvin)            271.81   315.35   343.78   365.16   426.31
                              438.81   457.66   485.28   649.36   725.65
                              737.34   750.83   825.86  1051.10  1097.20
                             1151.56  1202.42  1233.67  1265.66  1307.49
                             1348.47  1369.94  1450.05  1462.47  1558.91
                             1573.30  1579.58  1589.53  1603.99  1701.80
                             1717.79  1762.77  1785.05  1795.87  1837.10
                             1890.83  1911.08  1928.19  1998.41  2010.52
                             2021.22  2048.69  2066.72  2149.29  2160.12
                             2180.27  2185.20  2197.48  2204.10  2211.07
                             2223.13  2448.73  2580.28  4343.70  4350.41
                             4360.87  4397.99  4411.21  4414.93  4434.12
                             4471.28  4476.00  4505.66  4510.75  4530.66
                             4543.69  4643.94

 Zero-point correction=                           0.222837 (Hartree/Particle)
 Thermal correction to Energy=                    0.235186
 Thermal correction to Enthalpy=                  0.236130
 Thermal correction to Gibbs Free Energy=         0.183988
 Sum of electronic and zero-point Energies=           -576.837042
 Sum of electronic and thermal Energies=              -576.824693
 Sum of electronic and thermal Enthalpies=            -576.823749
 Sum of electronic and thermal Free Energies=         -576.875891

                     E (Thermal)             CV                S
                      KCal/Mol        Cal/Mol-Kelvin    Cal/Mol-Kelvin
 Total                  147.581             45.590            109.742
 Electronic               0.000              0.000              0.000
 Translational            0.889              2.981             41.301
 Rotational               0.889              2.981             30.812
 Vibrational            145.804             39.628             37.629
 Vibration     1          0.594              1.981              5.272
 Vibration     2          0.597              1.973              4.442
 Vibration     3          0.606              1.942              3.290
 Vibration     4          0.611              1.927              3.006
 Vibration     5          0.615              1.913              2.806
 Vibration     6          0.633              1.855              2.238
 Vibration     7          0.647              1.812              1.966
 Vibration     8          0.657              1.781              1.811
 Vibration     9          0.665              1.756              1.704
 Vibration    10          0.690              1.681              1.438
 Vibration    11          0.696              1.664              1.389
 Vibration    12          0.704              1.639              1.320
 Vibration    13          0.718              1.601              1.225
 Vibration    14          0.810              1.358              0.792
 Vibration    15          0.860              1.240              0.647
 Vibration    16          0.868              1.222              0.628
 Vibration    17          0.877              1.202              0.606
 Vibration    18          0.930              1.087              0.497

 Optimization completed.
    -- Stationary point found.

 1\1\GINC-NODE104\Freq\RB3LYP\6-31G(d)\C9H14O3\VSC10255\09-Dec-2020\0\\
 #N Geom=AllCheck Guess=TCheck SCRF=Check GenChk RB3LYP/6-31G(d) Freq\\
 CID_102646958_JID_2728_neutraal\\0,1\C,1.0874748302,-0.0212430141,0.08
 84324292\C,0.7604210056,-0.4676786741,1.5240122029\C,1.1450858849,0.63
 44831881,2.5220296094\O,0.3109062225,1.3120460528,3.0995561289\C,2.606
 1407314,0.8643032757,2.7603247419\C,3.0431587,1.8574133632,3.552376846
 1\C,4.5019445626,2.1494809314,3.7515617607\C,5.3428234962,1.3713063415
 ,2.7287293333\C,4.7829084899,-0.0390984884,2.576596923\O,3.4284740718,

 Normal termination of Gaussian 16 at Wed Dec  9 18:00:18 2020.

 ----------------------------------------------------------------------
 # B3LYP/6-311++G(d,p) empiricaldispersion=gd3bj scf=xqc pop=npa geom=c
 heck
 ----------------------------------------------------------------------

 ---------------------------------------
 CID_102646958_JID_2728_Energie_neutraal
 ---------------------------------------
 Structure from the checkpoint file:  "JID_2728.chk"
 Charge =  0 Multiplicity = 1

 SCF Done:  E(RB3LYP) =  -577.226321960     A.U. after   16 cycles
 Normal termination of Gaussian 16 at Wed Dec  9 18:03:49 2020.

 ----------------------------------------------------------------------
 # B3LYP/6-311++G(d,p) empiricaldispersion=gd3bj scf=xqc pop=npa geom=c
 heck
 ----------------------------------------------------------------------

 -------------------------------------
 CID_102646958_JID_2728_Energie_kation
 -------------------------------------
 Structure from the checkpoint file:  "JID_2728.chk"
 Charge =  1 Multiplicity = 2

 SCF Done:  E(UB3LYP) =  -576.922986490     A.U. after   23 cycles
 Normal termination of Gaussian 16 at Wed Dec  9 18:10:03 2020.
 Gaussian 16:  ES64L-G16RevA.03 25-Dec-2016

 ------------------------------------
 CID_102646958_JID_2728_Energie_anion
 ------------------------------------
 Structure from the checkpoint file:  "JID_2728.chk"
 Charge = -1 Multiplicity = 2

                         Standard orientation:
 ---------------------------------------------------------------------
 Center     Atomic      Atomic             Coordinates (Angstroms)
 Number     Number       Type             X           Y           Z
 ---------------------------------------------------------------------
      1          6           0        1.679092   -1.431538    1.010051
      2          6           0        1.654907   -0.604727   -0.287237
      3          6           0        0.718558    0.602281   -0.128651
      4          8           0        1.136952    1.743655   -0.025233
      5          6           0       -0.753743    0.327880   -0.092359
      6          6           0       -1.647786    1.306950    0.123756
      7          6           0       -3.121843    1.045455    0.232435
      8          6           0       -3.385211   -0.462903    0.352075
      9          6           0       -2.467704   -1.217616   -0.604209
     10          8           0       -1.085388   -0.989182   -0.298171
     11          8           0        2.929671   -0.228595   -0.764891
     12          6           0        3.815095    0.381789    0.164946
     13          1           0        1.981637   -0.826642    1.870685
     14          1           0        2.385886   -2.259932    0.899286
     15          1           0        0.685804   -1.841244    1.206975
     16          1           0        1.237283   -1.235212   -1.079448
     17          1           0       -1.256442    2.311097    0.244056
     18          1           0       -3.643916    1.459431   -0.643276
     19          1           0       -3.532451    1.576781    1.100807
     20          1           0       -4.430520   -0.704651    0.130649
     21          1           0       -3.178218   -0.800057    1.374558
     22          1           0       -2.602528   -2.299641   -0.541097
     23          1           0       -2.650014   -0.898625   -1.640512
     24          1           0        3.374024    1.267309    0.630194
     25          1           0        4.139930   -0.322559    0.944124
     26          1           0        4.691462    0.681485   -0.415492
 ---------------------------------------------------------------------

 SCF Done:  E(UB3LYP) =  -577.225405732     A.U. after   33 cycles
 SCF Done:  E(UB3LYP) =  -577.225405732     a.u. after    1 cycles

 The electronic state is 2-A.
 Alpha  occ. eigenvalues --  -19.01075 -18.99761 -18.92921 -10.09940 -10.08944
 Alpha  occ. eigenvalues --  -10.08777 -10.07140 -10.06529 -10.04925 -10.04499
 Alpha  occ. eigenvalues --  -10.04149 -10.00532  -0.92796  -0.91086  -0.86560
 Alpha  occ. eigenvalues --   -0.67494  -0.64920  -0.62990  -0.57380  -0.53017
 Alpha  occ. eigenvalues --   -0.52283  -0.48669  -0.42746  -0.39534  -0.37600
 Alpha  occ. eigenvalues --   -0.35973  -0.34631  -0.33275  -0.32909  -0.30866
 Alpha  occ. eigenvalues --   -0.30465  -0.29035  -0.28254  -0.27771  -0.26887
 Alpha  occ. eigenvalues --   -0.26104  -0.24683  -0.23528  -0.22445  -0.21213
 Alpha  occ. eigenvalues --   -0.19441  -0.18391  -0.18257  -0.14791  -0.08972
 Alpha  occ. eigenvalues --   -0.08176   0.05172
 Alpha virt. eigenvalues --    0.07445   0.08387   0.09713   0.10042   0.10336
 Alpha virt. eigenvalues --    0.10885   0.11559   0.12568   0.12864   0.13320
 Alpha virt. eigenvalues --    0.14140   0.14216   0.14990   0.16205   0.17220

  Beta  occ. eigenvalues --  -19.01072 -18.99758 -18.92501 -10.09924 -10.08944
  Beta  occ. eigenvalues --  -10.08804 -10.06795 -10.06514 -10.04895 -10.04519
  Beta  occ. eigenvalues --  -10.04110 -10.00220  -0.92747  -0.91036  -0.85818
  Beta  occ. eigenvalues --   -0.67352  -0.64641  -0.62795  -0.57352  -0.52748
  Beta  occ. eigenvalues --   -0.51925  -0.48519  -0.42420  -0.39388  -0.37434
  Beta  occ. eigenvalues --   -0.35900  -0.34395  -0.33178  -0.32781  -0.30683
  Beta  occ. eigenvalues --   -0.30303  -0.28878  -0.28107  -0.27563  -0.26407
  Beta  occ. eigenvalues --   -0.26015  -0.24452  -0.23354  -0.21346  -0.21016
  Beta  occ. eigenvalues --   -0.19333  -0.18158  -0.17470  -0.14677  -0.08307
  Beta  occ. eigenvalues --   -0.07188
  Beta virt. eigenvalues --    0.07965   0.08414   0.09719   0.10004   0.10512
  Beta virt. eigenvalues --    0.11141   0.11217   0.11977   0.12791   0.12872
  Beta virt. eigenvalues --    0.13408   0.14011   0.14194   0.14942   0.16169

 Mulliken charges and spin densities:
               1          2
     1  C   -0.447451  -0.053898
     2  C   -0.069143   0.014618
     3  C    0.084557  -0.082140
     4  O   -0.393806   0.151445
     5  C    0.349136  -0.205137
     6  C   -0.507369   0.728058
     7  C   -0.067456  -0.614193
     8  C   -0.092129  -0.112725
     9  C    0.165147  -0.426045
    10  O   -0.131612   0.039028
    11  O   -0.127378  -0.001371
    12  C   -0.241988  -0.006829
    13  H    0.132630   0.006270
    14  H    0.075634   0.063709
    15  H    0.153913  -0.003101
    16  H    0.204392   0.005226
    17  H    0.181451   0.004654
    18  H    0.016091   0.131609
    19  H    0.026073   0.090222
    20  H   -0.797575   0.960228
    21  H    0.201588  -0.082591
    22  H   -0.068994   0.222806
    23  H   -0.021803   0.156610
    24  H    0.164166   0.002155
    25  H    0.094238   0.010490
    26  H    0.117688   0.000902
 Sum of Mulliken charges =  -1.00000   1.00000

 Dipole moment (field-independent basis, Debye):
    X=              3.9203    Y=             -1.9599    Z=              2.2329  Tot=              4.9189
 Quadrupole moment (field-independent basis, Debye-Ang):
   XX=           -129.8434   YY=            -94.5588   ZZ=            -86.6101
   XY=             -5.3397   XZ=             -2.0265   YZ=             -0.1738

 Summary of Natural Population Analysis:

                                       Natural Population
                Natural  -----------------------------------------------
    Atom  No    Charge         Core      Valence    Rydberg      Total
 -----------------------------------------------------------------------
      C    1   -0.29810      0.99965     2.29367    0.00478     3.29810
      C    2    0.02954      0.99953     1.95598    0.01494     2.97046
      C    3    0.29749      0.99960     1.68104    0.02187     2.70251
      O    4   -0.26556      0.99988     3.25965    0.00603     4.26556
      C    5    0.10066      0.99932     1.88496    0.01506     2.89934
      C    6   -0.06382      0.99950     2.05582    0.00850     3.06382
      C    7   -0.20574      0.99963     2.19692    0.00920     3.20574
      C    8   -0.20392      0.99964     2.19589    0.00839     3.20392
      C    9   -0.00745      0.99957     1.99448    0.01339     3.00745
      O   10   -0.29387      0.99987     3.28500    0.00901     4.29387
      O   11   -0.30076      0.99988     3.29015    0.01073     4.30076
      C   12   -0.10368      0.99961     2.09528    0.00879     3.10368
      H   13    0.09479      0.00000     0.40441    0.00080     0.40521
      H   14    0.09283      0.00000     0.40558    0.00159     0.40717
      H   15    0.11166      0.00000     0.38746    0.00088     0.38834
      H   16    0.09954      0.00000     0.39926    0.00120     0.40046
      H   17    0.10612      0.00000     0.39258    0.00129     0.39388
      H   18    0.10164      0.00000     0.39672    0.00164     0.39836
      H   19    0.09741      0.00000     0.40156    0.00103     0.40259
      H   20    0.10155      0.00000     0.39545    0.00299     0.39845
      H   21    0.09441      0.00000     0.40447    0.00111     0.40559
      H   22    0.08641      0.00000     0.41253    0.00106     0.41359
      H   23    0.08184      0.00000     0.41673    0.00144     0.41816
      H   24    0.09634      0.00000     0.40235    0.00131     0.40366
      H   25    0.06941      0.00000     0.42914    0.00145     0.43059
      H   26    0.08125      0.00000     0.41788    0.00087     0.41875
 =======================================================================
   * Total *    0.00000     11.99567    33.85498    0.14935    46.00000

 Normal termination of Gaussian 16 at Wed Dec  9 18:19:34 2020.
