 Gaussian 16, Revision A.03,

 -----------------------------------------------------------
 # opt freq B3LYP/6-31G(d) empiricaldispersion=gd3bj scf=xqc
 -----------------------------------------------------------

 ------------------------------
 CID_62363326_JID_4105_neutraal
 ------------------------------
 Symbolic Z-matrix:
 Charge =  0 Multiplicity = 1

 SCF Done:  E(RB3LYP) =  -633.228780358     A.U. after   13 cycles
 SCF Done:  E(RB3LYP) =  -633.235693465     A.U. after   13 cycles
 SCF Done:  E(RB3LYP) =  -633.231412277     A.U. after   14 cycles
 SCF Done:  E(RB3LYP) =  -633.234750791     A.U. after   12 cycles
 SCF Done:  E(RB3LYP) =  -633.236851463     A.U. after    9 cycles
 SCF Done:  E(RB3LYP) =  -633.238205177     A.U. after   12 cycles
 SCF Done:  E(RB3LYP) =  -633.238814784     A.U. after   12 cycles
 SCF Done:  E(RB3LYP) =  -633.239083870     A.U. after   11 cycles
 SCF Done:  E(RB3LYP) =  -633.239337577     A.U. after   11 cycles
 SCF Done:  E(RB3LYP) =  -633.239465222     A.U. after   11 cycles
 SCF Done:  E(RB3LYP) =  -633.239526711     A.U. after    8 cycles
 SCF Done:  E(RB3LYP) =  -633.239526889     A.U. after    7 cycles
 SCF Done:  E(RB3LYP) =  -633.239527015     A.U. after    7 cycles
 SCF Done:  E(RB3LYP) =  -633.239527075     A.U. after    7 cycles
 SCF Done:  E(RB3LYP) =  -633.239527108     A.U. after    6 cycles
 SCF Done:  E(RB3LYP) =  -633.239527125     A.U. after    6 cycles
 Optimization completed.
    -- Stationary point found.
 Normal termination of Gaussian 16 at Thu Dec 10 09:24:04 2020.

 --------------------------------------------------------------------
 #N Geom=AllCheck Guess=TCheck SCRF=Check GenChk RB3LYP/6-31G(d) Freq
 --------------------------------------------------------------------

 Structure from the checkpoint file:  "JID_4105.chk"
 ------------------------------
 CID_62363326_JID_4105_neutraal
 ------------------------------
 Charge =  0 Multiplicity = 1

 SCF Done:  E(RB3LYP) =  -633.239527125     A.U. after    1 cycles

  Exact polarizability: 152.323  -1.641 124.254   7.919   1.617 106.436
 Approx polarizability: 198.198  -6.859 179.172  14.509   0.457 158.464

                      1                      2                      3
                      A                      A                      A
 Frequencies --     28.9918                50.2202                61.7962
 Red. masses --      2.9977                 3.3264                 3.3451
 Frc consts  --      0.0015                 0.0049                 0.0075
 IR Inten    --      0.6155                 0.4948                 0.5899

                      4                      5                      6
                      A                      A                      A
 Frequencies --    110.3910               117.2720               130.7628
 Red. masses --      3.6522                 2.3676                 3.7570
 Frc consts  --      0.0262                 0.0192                 0.0378
 IR Inten    --      0.9524                 3.6176                 4.2181

                      7                      8                      9
                      A                      A                      A
 Frequencies --    186.8336               205.4251               239.2591
 Red. masses --      4.5096                 2.5613                 1.1849
 Frc consts  --      0.0927                 0.0637                 0.0400
 IR Inten    --      3.7896                 0.7453                 1.0402

                     10                     11                     12
                      A                      A                      A
 Frequencies --    274.1310               283.8932               295.8632
 Red. masses --      1.2696                 1.0780                 2.3058
 Frc consts  --      0.0562                 0.0512                 0.1189
 IR Inten    --      0.6466                 0.9091                 3.1363

                     13                     14                     15
                      A                      A                      A
 Frequencies --    310.0563               331.2570               352.9139
 Red. masses --      2.8906                 2.0848                 2.5886
 Frc consts  --      0.1637                 0.1348                 0.1900
 IR Inten    --      6.2313                 3.6291                 7.2711

                     16                     17                     18
                      A                      A                      A
 Frequencies --    358.9486               409.8941               419.6496
 Red. masses --      2.6144                 2.3000                 2.3607
 Frc consts  --      0.1985                 0.2277                 0.2449
 IR Inten    --      7.7757                 3.9106                11.4131

                     19                     20                     21
                      A                      A                      A
 Frequencies --    459.9209               464.4548               479.5615
 Red. masses --      1.7568                 2.3612                 1.5107
 Frc consts  --      0.2190                 0.3001                 0.2047
 IR Inten    --     28.2106                 0.7840                14.7366

                     22                     23                     24
                      A                      A                      A
 Frequencies --    579.6482               609.1104               670.9107
 Red. masses --      2.6066                 3.5753                 2.2794
 Frc consts  --      0.5160                 0.7816                 0.6045
 IR Inten    --      2.6153                16.1975                68.5835

                     25                     26                     27
                      A                      A                      A
 Frequencies --    704.7386               713.7313               728.0618
 Red. masses --      1.6151                 3.0091                 2.9087
 Frc consts  --      0.4726                 0.9032                 0.9084
 IR Inten    --     32.8983                13.7760                18.2422

                     28                     29                     30
                      A                      A                      A
 Frequencies --    776.3241               815.7411               821.7746
 Red. masses --      2.2996                 2.3475                 1.5997
 Frc consts  --      0.8165                 0.9204                 0.6365
 IR Inten    --    160.0743                67.6290                10.3542

                     31                     32                     33
                      A                      A                      A
 Frequencies --    864.1950               900.3754               919.9925
 Red. masses --      2.2551                 3.0119                 3.5557
 Frc consts  --      0.9923                 1.4386                 1.7731
 IR Inten    --      0.0986                 4.7571                 9.6935

                     34                     35                     36
                      A                      A                      A
 Frequencies --    922.5950               932.9731               942.8612
 Red. masses --      2.3667                 1.7355                 1.6562
 Frc consts  --      1.1869                 0.8900                 0.8675
 IR Inten    --     14.8349                 0.2584                 2.9155

                     37                     38                     39
                      A                      A                      A
 Frequencies --    957.6921               976.5046               991.6647
 Red. masses --      2.2434                 1.1991                 2.0732
 Frc consts  --      1.2123                 0.6737                 1.2012
 IR Inten    --     16.7475                 0.1187                10.8634

                     40                     41                     42
                      A                      A                      A
 Frequencies --   1010.9772              1038.9924              1065.4868
 Red. masses --      2.0609                 2.4156                 1.3935
 Frc consts  --      1.2411                 1.5364                 0.9321
 IR Inten    --      9.8695                 8.7301                 1.6071

                     43                     44                     45
                      A                      A                      A
 Frequencies --   1074.3669              1078.7566              1100.7746
 Red. masses --      1.4257                 1.9559                 2.6463
 Frc consts  --      0.9696                 1.3410                 1.8893
 IR Inten    --      0.3371                15.6824                63.1969

                     46                     47                     48
                      A                      A                      A
 Frequencies --   1114.6209              1167.8025              1213.4088
 Red. masses --      2.3442                 1.9443                 1.7729
 Frc consts  --      1.7159                 1.5623                 1.5380
 IR Inten    --     34.8821                 7.2429                13.5007

                     49                     50                     51
                      A                      A                      A
 Frequencies --   1220.9667              1241.4126              1255.0914
 Red. masses --      1.3230                 1.3334                 2.0436
 Frc consts  --      1.1620                 1.2107                 1.8967
 IR Inten    --      5.5156                 2.5430                37.0917

                     52                     53                     54
                      A                      A                      A
 Frequencies --   1260.2859              1267.3114              1275.4239
 Red. masses --      1.3704                 2.7125                 1.3504
 Frc consts  --      1.2824                 2.5668                 1.2943
 IR Inten    --     18.9509                56.5434                 4.8130

                     55                     56                     57
                      A                      A                      A
 Frequencies --   1278.9530              1304.1076              1332.1095
 Red. masses --      2.2033                 1.3978                 1.2973
 Frc consts  --      2.1234                 1.4007                 1.3564
 IR Inten    --     20.6534                 8.4325                 1.1654

                     58                     59                     60
                      A                      A                      A
 Frequencies --   1365.3837              1384.5202              1406.2606
 Red. masses --      1.2611                 1.4848                 1.3999
 Frc consts  --      1.3852                 1.6769                 1.6311
 IR Inten    --      7.6201                18.1332                 2.2410

                     61                     62                     63
                      A                      A                      A
 Frequencies --   1414.2639              1420.0829              1421.0259
 Red. masses --      1.3576                 1.5768                 1.5384
 Frc consts  --      1.5998                 1.8735                 1.8303
 IR Inten    --     24.0243                55.7165                51.3992

                     64                     65                     66
                      A                      A                      A
 Frequencies --   1429.0199              1453.6493              1505.9647
 Red. masses --      1.7870                 1.2608                 1.0484
 Frc consts  --      2.1501                 1.5697                 1.4008
 IR Inten    --     47.1788                26.8746                 0.0879

                     67                     68                     69
                      A                      A                      A
 Frequencies --   1517.9445              1521.6506              1524.6963
 Red. masses --      1.0488                 1.0593                 1.0944
 Frc consts  --      1.4238                 1.4451                 1.4990
 IR Inten    --      1.5057                 3.8973                 7.8666

                     70                     71                     72
                      A                      A                      A
 Frequencies --   1525.5481              1538.2557              1539.3464
 Red. masses --      1.0891                 1.1071                 1.0642
 Frc consts  --      1.4934                 1.5435                 1.4857
 IR Inten    --      4.7833                 5.4825                 1.3376

                     73                     74                     75
                      A                      A                      A
 Frequencies --   1547.4199              1556.0557              1561.3297
 Red. masses --      1.0836                 1.0646                 1.0990
 Frc consts  --      1.5288                 1.5188                 1.5784
 IR Inten    --      5.7998                 9.8296                 2.1421

                     76                     77                     78
                      A                      A                      A
 Frequencies --   1581.4214              1646.5149              1737.4354
 Red. masses --      1.2893                 1.2418                 3.1771
 Frc consts  --      1.8998                 1.9836                 5.6507
 IR Inten    --      8.7411               114.8894               434.3868

                     79                     80                     81
                      A                      A                      A
 Frequencies --   2964.6045              3008.2822              3040.4037
 Red. masses --      1.0697                 1.0732                 1.0854
 Frc consts  --      5.5392                 5.7225                 5.9117
 IR Inten    --     47.1876                75.9546                43.0225

                     82                     83                     84
                      A                      A                      A
 Frequencies --   3040.8256              3047.3458              3049.7839
 Red. masses --      1.0691                 1.0359                 1.0358
 Frc consts  --      5.8244                 5.6679                 5.6762
 IR Inten    --     77.5496                17.2569                29.5684

                     85                     86                     87
                      A                      A                      A
 Frequencies --   3057.7665              3070.6752              3087.2205
 Red. masses --      1.0373                 1.0621                 1.1025
 Frc consts  --      5.7143                 5.9003                 6.1911
 IR Inten    --     15.7745                39.9775                21.4962

                     88                     89                     90
                      A                      A                      A
 Frequencies --   3094.6036              3112.0949              3116.7110
 Red. masses --      1.0859                 1.1025                 1.1061
 Frc consts  --      6.1270                 6.2910                 6.3304
 IR Inten    --     42.5752                 6.0124                43.5766

                     91                     92                     93
                      A                      A                      A
 Frequencies --   3117.5247              3119.5294              3134.6178
 Red. masses --      1.1017                 1.1021                 1.1027
 Frc consts  --      6.3085                 6.3190                 6.3835
 IR Inten    --     41.0736                36.7865                46.6530

                     94                     95                     96
                      A                      A                      A
 Frequencies --   3140.1426              3145.1077              3149.7865
 Red. masses --      1.1016                 1.1007                 1.0920
 Frc consts  --      6.3999                 6.4152                 6.3834
 IR Inten    --      6.5192                27.9546                14.9944

                     97                     98                     99
                      A                      A                      A
 Frequencies --   3521.7414              3530.1462              3636.7466
 Red. masses --      1.0776                 1.0476                 1.0973
 Frc consts  --      7.8746                 7.6922                 8.5508
 IR Inten    --    146.0410                 9.8557                11.6478

 - Thermochemistry -
 -------------------
 Temperature   298.150 Kelvin.  Pressure   1.00000 Atm.
 Atom     1 has atomic number  6 and mass  12.00000

 Molecular mass:   199.16846 amu.
 Principal axes and moments of inertia in atomic units:
                           1         2         3
     Eigenvalues --  1690.433393851.881264648.61207
           X            0.99992  -0.01159   0.00432
           Y            0.01150   0.99973   0.02022
           Z           -0.00456  -0.02017   0.99979
 This molecule is an asymmetric top.
 Rotational symmetry number  1.
 Warning -- assumption of classical behavior for rotation
           may cause significant error
 Rotational temperatures (Kelvin)      0.05124     0.02249     0.01863
 Rotational constants (GHZ):           1.06762     0.46854     0.38823
 Zero-point vibrational energy     834303.7 (Joules/Mol)
                                  199.40337 (Kcal/Mol)
 Warning -- explicit consideration of  23 degrees of freedom as
           vibrations may cause significant error
 Vibrational temperatures:     41.71    72.26    88.91   158.83   168.73
          (Kelvin)            188.14   268.81   295.56   344.24   394.41
                              408.46   425.68   446.10   476.60   507.76
                              516.45   589.75   603.78   661.72   668.25
                              689.98   833.98   876.37   965.29  1013.96
                             1026.90  1047.52  1116.96  1173.67  1182.35
                             1243.38  1295.44  1323.66  1327.41  1342.34
                             1356.57  1377.91  1404.97  1426.78  1454.57
                             1494.88  1533.00  1545.77  1552.09  1583.77
                             1603.69  1680.21  1745.82  1756.70  1786.12
                             1805.80  1813.27  1823.38  1835.05  1840.13
                             1876.32  1916.61  1964.48  1992.02  2023.30
                             2034.81  2043.18  2044.54  2056.04  2091.48
                             2166.75  2183.98  2189.32  2193.70  2194.92
                             2213.21  2214.78  2226.39  2238.82  2246.41
                             2275.31  2368.97  2499.78  4265.40  4328.25
                             4374.46  4375.07  4384.45  4387.96  4399.44
                             4418.02  4441.82  4452.44  4477.61  4484.25
                             4485.42  4488.31  4510.02  4517.96  4525.11
                             4531.84  5067.00  5079.09  5232.47

 Zero-point correction=                           0.317770 (Hartree/Particle)
 Thermal correction to Energy=                    0.332903
 Thermal correction to Enthalpy=                  0.333847
 Thermal correction to Gibbs Free Energy=         0.275600
 Sum of electronic and zero-point Energies=           -632.921758
 Sum of electronic and thermal Energies=              -632.906624
 Sum of electronic and thermal Enthalpies=            -632.905680
 Sum of electronic and thermal Free Energies=         -632.963927

                     E (Thermal)             CV                S
                      KCal/Mol        Cal/Mol-Kelvin    Cal/Mol-Kelvin
 Total                  208.900             58.595            122.591
 Electronic               0.000              0.000              0.000
 Translational            0.889              2.981             41.772
 Rotational               0.889              2.981             31.782
 Vibrational            207.122             52.633             49.037
 Vibration     1          0.593              1.984              5.897
 Vibration     2          0.595              1.978              4.809
 Vibration     3          0.597              1.973              4.399
 Vibration     4          0.606              1.941              3.262
 Vibration     5          0.608              1.935              3.145
 Vibration     6          0.612              1.923              2.935
 Vibration     7          0.632              1.858              2.259
 Vibration     8          0.640              1.832              2.084
 Vibration     9          0.657              1.780              1.808
 Vibration    10          0.676              1.721              1.570
 Vibration    11          0.682              1.704              1.510
 Vibration    12          0.690              1.681              1.440
 Vibration    13          0.699              1.655              1.362
 Vibration    14          0.714              1.613              1.254
 Vibration    15          0.729              1.569              1.153
 Vibration    16          0.734              1.557              1.127
 Vibration    17          0.774              1.449              0.927
 Vibration    18          0.782              1.428              0.893
 Vibration    19          0.818              1.339              0.766
 Vibration    20          0.822              1.329              0.753
 Vibration    21          0.836              1.295              0.711
 Vibration    22          0.936              1.075              0.486
 Vibration    23          0.968              1.013              0.434

 Optimization completed.
    -- Stationary point found.
 Normal termination of Gaussian 16 at Thu Dec 10 09:34:54 2020.

 ----------------------------------------------------------------------
 # B3LYP/6-311++G(d,p) empiricaldispersion=gd3bj scf=xqc pop=npa geom=c
 heck
 ----------------------------------------------------------------------

 --------------------------------------
 CID_62363326_JID_4105_Energie_neutraal
 --------------------------------------
 Structure from the checkpoint file:  "JID_4105.chk"
 Charge =  0 Multiplicity = 1

 SCF Done:  E(RB3LYP) =  -633.427363321     A.U. after   14 cycles
 Normal termination of Gaussian 16 at Thu Dec 10 09:39:34 2020.

 ----------------------------------------------------------------------
 # B3LYP/6-311++G(d,p) empiricaldispersion=gd3bj scf=xqc pop=npa geom=c
 heck
 ----------------------------------------------------------------------

 ------------------------------------
 CID_62363326_JID_4105_Energie_kation
 ------------------------------------
 Structure from the checkpoint file:  "JID_4105.chk"
 Charge =  1 Multiplicity = 2

 SCF Done:  E(UB3LYP) =  -633.138917018     A.U. after   26 cycles
 Normal termination of Gaussian 16 at Thu Dec 10 09:51:29 2020.
 Gaussian 16:  ES64L-G16RevA.03 25-Dec-2016

 ----------------------------------------------------------------------
 # B3LYP/6-311++G(d,p) empiricaldispersion=gd3bj scf=xqc pop=npa geom=c
 heck
 ----------------------------------------------------------------------

 -----------------------------------
 CID_62363326_JID_4105_Energie_anion
 -----------------------------------
 Structure from the checkpoint file:  "JID_4105.chk"
 Charge = -1 Multiplicity = 2

                         Standard orientation:
 ---------------------------------------------------------------------
 Center     Atomic      Atomic             Coordinates (Angstroms)
 Number     Number       Type             X           Y           Z
 ---------------------------------------------------------------------
      1          6           0       -3.340811    0.552586   -0.856513
      2          6           0       -2.167209    0.745377    0.119023
      3          6           0       -1.737768    2.219946    0.097115
      4          6           0       -2.587557    0.341592    1.541563
      5          7           0       -0.970692   -0.018380   -0.316729
      6          6           0       -0.771920   -1.379463   -0.130917
      7          7           0        0.296361   -1.964763    0.292798
      8          6           0        1.328774   -1.171060    0.919525
      9          6           0        2.517544   -0.822968   -0.005216
     10          6           0        3.390855    0.269094    0.644128
     11          6           0        2.696259    1.579693    0.194256
     12          8           0        1.746228    1.222114   -0.825414
     13          6           0        2.082738   -0.097585   -1.275813
     14          7           0       -1.869652   -2.179392   -0.467035
     15          1           0       -4.150629    1.250718   -0.616097
     16          1           0       -3.747590   -0.459720   -0.791968
     17          1           0       -3.016187    0.742527   -1.885268
     18          1           0       -2.574466    2.865866    0.380423
     19          1           0       -0.917144    2.397933    0.802170
     20          1           0       -1.395803    2.509833   -0.902221
     21          1           0       -2.849991   -0.719422    1.576318
     22          1           0       -1.768892    0.520241    2.247696
     23          1           0       -3.456780    0.924266    1.868236
     24          1           0       -0.115463    0.525603   -0.248655
     25          1           0        0.935975   -0.234260    1.352420
     26          1           0        1.736233   -1.745784    1.762285
     27          1           0        3.080171   -1.732317   -0.239585
     28          1           0        4.416777    0.225505    0.264189
     29          1           0        3.435717    0.175688    1.734012
     30          1           0        2.140934    2.066980    1.002322
     31          1           0        3.415442    2.302716   -0.211859
     32          1           0        2.903173   -0.054771   -2.009206
     33          1           0        1.200520   -0.521065   -1.758422
     34          1           0       -2.289231   -1.944551   -1.359780
     35          1           0       -1.610142   -3.158429   -0.409840
 ---------------------------------------------------------------------

 SCF Done:  E(UB3LYP) =  -633.412940272     A.U. after   32 cycles

 The electronic state is 2-A.
 Alpha  occ. eigenvalues --  -19.02939 -14.21435 -14.21335 -14.16981 -10.16033
 Alpha  occ. eigenvalues --  -10.12152 -10.11761 -10.11307 -10.08746 -10.07758
 Alpha  occ. eigenvalues --  -10.07444 -10.06242 -10.05893 -10.05821  -0.94295
 Alpha  occ. eigenvalues --   -0.87537  -0.78964  -0.76768  -0.69802  -0.68137
 Alpha  occ. eigenvalues --   -0.64226  -0.59546  -0.59136  -0.58123  -0.50185
 Alpha  occ. eigenvalues --   -0.49764  -0.47919  -0.46254  -0.42816  -0.40694
 Alpha  occ. eigenvalues --   -0.39909  -0.38372  -0.36294  -0.36020  -0.34903
 Alpha  occ. eigenvalues --   -0.34521  -0.33267  -0.32835  -0.31323  -0.29764
 Alpha  occ. eigenvalues --   -0.29135  -0.28744  -0.27640  -0.26970  -0.26752
 Alpha  occ. eigenvalues --   -0.25690  -0.24940  -0.24481  -0.23828  -0.22684
 Alpha  occ. eigenvalues --   -0.22443  -0.16584  -0.15961  -0.14637  -0.12457
 Alpha  occ. eigenvalues --    0.04300
 Alpha virt. eigenvalues --    0.06074   0.06904   0.07803   0.08184   0.08884
 Alpha virt. eigenvalues --    0.08938   0.09641   0.10351   0.10716   0.10839
 Alpha virt. eigenvalues --    0.11209   0.11710   0.12106   0.12694   0.13484

  Beta  occ. eigenvalues --  -19.02938 -14.21409 -14.21329 -14.16972 -10.16027
  Beta  occ. eigenvalues --  -10.12151 -10.11735 -10.11291 -10.08734 -10.07754
  Beta  occ. eigenvalues --  -10.07420 -10.06216 -10.05861 -10.05799  -0.94288
  Beta  occ. eigenvalues --   -0.87519  -0.78947  -0.76741  -0.69776  -0.68114
  Beta  occ. eigenvalues --   -0.64183  -0.59501  -0.59086  -0.58088  -0.50136
  Beta  occ. eigenvalues --   -0.49709  -0.47880  -0.46220  -0.42778  -0.40649
  Beta  occ. eigenvalues --   -0.39876  -0.38343  -0.36263  -0.35988  -0.34872
  Beta  occ. eigenvalues --   -0.34492  -0.33240  -0.32805  -0.31295  -0.29737
  Beta  occ. eigenvalues --   -0.29109  -0.28714  -0.27609  -0.26942  -0.26722
  Beta  occ. eigenvalues --   -0.25659  -0.24906  -0.24452  -0.23802  -0.22654
  Beta  occ. eigenvalues --   -0.22424  -0.16565  -0.15933  -0.14598  -0.12446
  Beta virt. eigenvalues --    0.06388   0.07064   0.07656   0.08342   0.08744
  Beta virt. eigenvalues --    0.09267   0.09347   0.09937   0.10636   0.11130
  Beta virt. eigenvalues --    0.11276   0.11531   0.12039   0.12404   0.12883

 Mulliken charges and spin densities:
               1          2
     1  C    0.754601  -1.273943
     2  C   -1.441584   1.520724
     3  C   -0.049854  -0.457901
     4  C    0.343480  -0.867775
     5  N    0.074192  -0.149436
     6  C    0.071879  -0.291515
     7  N   -0.016742   0.002524
     8  C   -0.014860  -0.824362
     9  C   -0.358899   0.871786
    10  C    0.412250  -0.809712
    11  C    0.553903  -0.865893
    12  O   -0.084929  -0.012457
    13  C   -0.510153  -0.087134
    14  N   -0.435591   0.098843
    15  H   -0.201659   0.342549
    16  H   -0.052498   0.181562
    17  H   -0.164314   0.333863
    18  H   -0.337955   0.494089
    19  H   -0.148545   0.291690
    20  H   -0.001044   0.161409
    21  H    0.123695   0.061192
    22  H   -0.167664   0.305750
    23  H   -0.144309   0.293114
    24  H    1.790030  -1.410508
    25  H    0.309142  -0.139335
    26  H    0.031646   0.154675
    27  H   -0.047005   0.245307
    28  H   -0.188960   0.369463
    29  H   -0.268756   0.403806
    30  H   -0.068264   0.231866
    31  H   -0.381693   0.523694
    32  H   -0.330384   0.485935
    33  H   -0.085598   0.321197
    34  H   -0.103115   0.346146
    35  H    0.139557   0.148786
 Sum of Mulliken charges =  -1.00000   1.00000

 Dipole moment (field-independent basis, Debye):
    X=             -0.1877    Y=             -1.8387    Z=              0.2979  Tot=              1.8721
 Quadrupole moment (field-independent basis, Debye-Ang):
   XX=           -164.6756   YY=           -133.3631   ZZ=           -125.7752
   XY=             -0.1948   XZ=             -0.7093   YZ=             -1.0295

 Summary of Natural Population Analysis:

                                       Natural Population
                Natural  -----------------------------------------------
    Atom  No    Charge         Core      Valence    Rydberg      Total
 -----------------------------------------------------------------------
      C    1   -0.29020      0.99961     2.28361    0.00698     3.29020
      C    2    0.05765      0.99959     1.92961    0.01315     2.94235
      C    3   -0.28663      0.99962     2.27974    0.00727     3.28663
      C    4   -0.29286      0.99961     2.28684    0.00641     3.29286
      N    5   -0.35925      0.99964     2.84832    0.01129     3.85925
      C    6    0.31173      0.99960     1.67122    0.01745     2.68827
      N    7   -0.30724      0.99965     2.79714    0.01045     3.80724
      C    8   -0.09792      0.99958     2.08500    0.01334     3.09792
      C    9   -0.12524      0.99958     2.11473    0.01093     3.12524
      C   10   -0.20619      0.99963     2.19815    0.00841     3.20619
      C   11   -0.01199      0.99960     2.00036    0.01203     3.01199
      O   12   -0.30920      0.99990     3.30060    0.00870     4.30920
      C   13   -0.01527      0.99957     2.00315    0.01255     3.01527
      N   14   -0.41037      0.99971     2.90143    0.00922     3.91037
      H   15    0.10027      0.00000     0.39861    0.00112     0.39973
      H   16    0.10230      0.00000     0.39623    0.00147     0.39770
      H   17    0.10264      0.00000     0.39598    0.00138     0.39736
      H   18    0.10250      0.00000     0.39648    0.00103     0.39750
      H   19    0.10126      0.00000     0.39735    0.00139     0.39874
      H   20    0.10476      0.00000     0.39405    0.00120     0.39524
      H   21    0.10739      0.00000     0.39135    0.00126     0.39261
      H   22    0.10047      0.00000     0.39834    0.00119     0.39953
      H   23    0.10006      0.00000     0.39904    0.00090     0.39994
      H   24    0.20615      0.00000     0.28864    0.00521     0.29385
      H   25    0.08193      0.00000     0.41575    0.00232     0.41807
      H   26    0.09411      0.00000     0.40445    0.00144     0.40589
      H   27    0.10354      0.00000     0.39528    0.00118     0.39646
      H   28    0.10158      0.00000     0.39683    0.00160     0.39842
      H   29    0.10379      0.00000     0.39487    0.00134     0.39621
      H   30    0.08746      0.00000     0.41097    0.00157     0.41254
      H   31    0.08477      0.00000     0.41364    0.00159     0.41523
      H   32    0.08279      0.00000     0.41593    0.00128     0.41721
      H   33    0.09896      0.00000     0.39950    0.00155     0.40104
      H   34    0.18621      0.00000     0.31161    0.00218     0.31379
      H   35    0.19004      0.00000     0.30783    0.00214     0.30996
 =======================================================================
   * Total *   -0.00000     13.99489    40.82261    0.18250    55.00000

 Normal termination of Gaussian 16 at Thu Dec 10 10:05:14 2020.
