 Gaussian 16, Revision A.03,

 -----------------------------------------------------------
 # opt freq B3LYP/6-31G(d) empiricaldispersion=gd3bj scf=xqc
 -----------------------------------------------------------

 ------------------------------
 CID_12027212_JID_1868_neutraal
 ------------------------------
 Symbolic Z-matrix:
 Charge =  0 Multiplicity = 1

 SCF Done:  E(RB3LYP) =  -473.331379391     A.U. after   14 cycles
 SCF Done:  E(RB3LYP) =  -473.333471069     A.U. after   12 cycles
 SCF Done:  E(RB3LYP) =  -473.333688228     A.U. after   11 cycles
 SCF Done:  E(RB3LYP) =  -473.333700080     A.U. after   10 cycles
 SCF Done:  E(RB3LYP) =  -473.333704196     A.U. after   10 cycles
 SCF Done:  E(RB3LYP) =  -473.333706324     A.U. after    9 cycles
 SCF Done:  E(RB3LYP) =  -473.333708594     A.U. after    9 cycles
 SCF Done:  E(RB3LYP) =  -473.333709986     A.U. after    9 cycles
 SCF Done:  E(RB3LYP) =  -473.333710610     A.U. after    9 cycles
 SCF Done:  E(RB3LYP) =  -473.333710775     A.U. after    7 cycles
 Optimization completed.
    -- Stationary point found.
 Normal termination of Gaussian 16 at Tue Dec  8 21:19:57 2020.

 --------------------------------------------------------------------
 #N Geom=AllCheck Guess=TCheck SCRF=Check GenChk RB3LYP/6-31G(d) Freq
 --------------------------------------------------------------------

 Structure from the checkpoint file:  "JID_1868.chk"
 ------------------------------
 CID_12027212_JID_1868_neutraal
 ------------------------------
 Charge =  0 Multiplicity = 1

 SCF Done:  E(RB3LYP) =  -473.333710775     A.U. after    1 cycles

  Exact polarizability: 163.054  -6.187  99.130  -0.001   0.000  35.783
 Approx polarizability: 249.023 -14.350 183.396  -0.001  -0.001  56.197

                      1                      2                      3
                      A                      A                      A
 Frequencies --     41.1278               105.8020               154.9031
 Red. masses --      3.7838                 4.8523                 4.5727
 Frc consts  --      0.0038                 0.0320                 0.0646
 IR Inten    --      0.9011                 2.3271                 1.4062

                      4                      5                      6
                      A                      A                      A
 Frequencies --    253.3667               361.3951               418.3306
 Red. masses --      4.1613                 6.9906                 4.4794
 Frc consts  --      0.1574                 0.5379                 0.4619
 IR Inten    --      0.3710                 0.0590                12.7314

                      7                      8                      9
                      A                      A                      A
 Frequencies --    449.1036               467.6385               526.2375
 Red. masses --      4.8845                 1.5404                 4.2176
 Frc consts  --      0.5805                 0.1985                 0.6881
 IR Inten    --      0.3156                80.7907                14.5899

                     10                     11                     12
                      A                      A                      A
 Frequencies --    631.6457               637.7255               668.7436
 Red. masses --      9.6193                 2.3248                 1.6666
 Frc consts  --      2.2612                 0.5571                 0.4391
 IR Inten    --      0.0406                 5.0139                 2.1352

                     13                     14                     15
                      A                      A                      A
 Frequencies --    690.7801               760.8327               761.4806
 Red. masses --      1.7591                 1.7704                 7.3746
 Frc consts  --      0.4945                 0.6038                 2.5194
 IR Inten    --     20.9404                25.3482                 5.6843

                     16                     17                     18
                      A                      A                      A
 Frequencies --    789.7250               856.0840               877.7900
 Red. masses --      1.8259                 1.4563                 1.4511
 Frc consts  --      0.6709                 0.6288                 0.6587
 IR Inten    --     17.5027                24.5119                 2.4286

                     19                     20                     21
                      A                      A                      A
 Frequencies --    911.0709               940.9512               947.2789
 Red. masses --      4.9828                 1.4300                 4.7249
 Frc consts  --      2.4368                 0.7460                 2.4981
 IR Inten    --      1.1635                 0.2983                25.2466

                     22                     23                     24
                      A                      A                      A
 Frequencies --    974.1680              1031.5764              1053.5926
 Red. masses --      1.4037                 5.3109                 1.7103
 Frc consts  --      0.7848                 3.3298                 1.1186
 IR Inten    --      0.0340                21.8422                13.1065

                     25                     26                     27
                      A                      A                      A
 Frequencies --   1091.0157              1105.5258              1159.0077
 Red. masses --      2.3374                 1.4782                 3.2246
 Frc consts  --      1.6392                 1.0644                 2.5521
 IR Inten    --      8.5792                16.0626                29.5700

                     28                     29                     30
                      A                      A                      A
 Frequencies --   1172.3973              1201.1170              1257.1128
 Red. masses --      1.3573                 2.2606                 4.2715
 Frc consts  --      1.0992                 1.9215                 3.9772
 IR Inten    --     48.3822                 3.5019                 8.2601

                     31                     32                     33
                      A                      A                      A
 Frequencies --   1274.7908              1332.1454              1382.1721
 Red. masses --      1.7573                 1.5138                 2.5312
 Frc consts  --      1.6826                 1.5828                 2.8490
 IR Inten    --      4.0031                15.9330                 2.6604

                     34                     35                     36
                      A                      A                      A
 Frequencies --   1412.5261              1457.2736              1476.1966
 Red. masses --      2.5915                 3.0488                 2.7835
 Frc consts  --      3.0464                 3.8147                 3.5739
 IR Inten    --      4.2130                 7.4321                50.9941

                     37                     38                     39
                      A                      A                      A
 Frequencies --   1517.0527              1549.7960              1584.5722
 Red. masses --      2.2044                 3.4245                 7.5111
 Frc consts  --      2.9892                 4.8461                11.1116
 IR Inten    --      9.3827                89.5326                25.5818

                     40                     41                     42
                      A                      A                      A
 Frequencies --   1618.0369              1632.5741              3169.7326
 Red. masses --      4.3109                 5.0510                 1.0882
 Frc consts  --      6.6497                 7.9318                 6.4420
 IR Inten    --     49.5586                54.3511                21.3647

                     43                     44                     45
                      A                      A                      A
 Frequencies --   3174.4641              3194.0539              3278.1824
 Red. masses --      1.0893                 1.0965                 1.0908
 Frc consts  --      6.4676                 6.5907                 6.9065
 IR Inten    --     25.4190                40.9416                 0.9558

                     46                     47                     48
                      A                      A                      A
 Frequencies --   3282.5124              3298.3490              3669.5936
 Red. masses --      1.0963                 1.1031                 1.0808
 Frc consts  --      6.9597                 7.0706                 8.5747
 IR Inten    --      0.5488                 2.9995                81.7860

 - Thermochemistry -
 -------------------
 Temperature   298.150 Kelvin.  Pressure   1.00000 Atm.
 Atom     1 has atomic number  6 and mass  12.00000

 Molecular mass:   145.06400 amu.
 Principal axes and moments of inertia in atomic units:
                           1         2         3
     Eigenvalues --   496.385812609.233303105.61910
           X            0.99997  -0.00775  -0.00000
           Y            0.00775   0.99997   0.00001
           Z            0.00000  -0.00001   1.00000
 This molecule is an asymmetric top.
 Rotational symmetry number  1.
 Warning -- assumption of classical behavior for rotation
           may cause significant error
 Rotational temperatures (Kelvin)      0.17449     0.03320     0.02789
 Rotational constants (GHZ):           3.63576     0.69167     0.58112
 Zero-point vibrational energy     368459.1 (Joules/Mol)
                                   88.06384 (Kcal/Mol)
 Warning -- explicit consideration of   9 degrees of freedom as
           vibrations may cause significant error
 Vibrational temperatures:     59.17   152.23   222.87   364.54   519.97
          (Kelvin)            601.88   646.16   672.83   757.14   908.80
                              917.54   962.17   993.88  1094.67  1095.60
                             1136.24  1231.71  1262.94  1310.83  1353.82
                             1362.92  1401.61  1484.21  1515.88  1569.73
                             1590.61  1667.55  1686.82  1728.14  1808.70
                             1834.14  1916.66  1988.64  2032.31  2096.69
                             2123.92  2182.70  2229.81  2279.85  2327.99
                             2348.91  4560.54  4567.35  4595.53  4716.57
                             4722.80  4745.59  5279.73

 Zero-point correction=                           0.140339 (Hartree/Particle)
 Thermal correction to Energy=                    0.148567
 Thermal correction to Enthalpy=                  0.149511
 Thermal correction to Gibbs Free Energy=         0.106192
 Sum of electronic and zero-point Energies=           -473.193372
 Sum of electronic and thermal Energies=              -473.185144
 Sum of electronic and thermal Enthalpies=            -473.184200
 Sum of electronic and thermal Free Energies=         -473.227519

                     E (Thermal)             CV                S
                      KCal/Mol        Cal/Mol-Kelvin    Cal/Mol-Kelvin
 Total                   93.227             32.050             91.174
 Electronic               0.000              0.000              0.000
 Translational            0.889              2.981             40.827
 Rotational               0.889              2.981             29.777
 Vibrational             91.450             26.088             20.570
 Vibration     1          0.594              1.981              5.204
 Vibration     2          0.605              1.945              3.345
 Vibration     3          0.620              1.897              2.611
 Vibration     4          0.665              1.757              1.707
 Vibration     5          0.736              1.552              1.116
 Vibration     6          0.781              1.430              0.898
 Vibration     7          0.808              1.363              0.798
 Vibration     8          0.825              1.322              0.744
 Vibration     9          0.881              1.192              0.596

 Optimization completed.
    -- Stationary point found.
 Normal termination of Gaussian 16 at Tue Dec  8 21:22:45 2020.

 ----------------------------------------------------------------------
 # B3LYP/6-311++G(d,p) empiricaldispersion=gd3bj scf=xqc pop=npa geom=c
 heck
 ----------------------------------------------------------------------

 --------------------------------------
 CID_12027212_JID_1868_Energie_neutraal
 --------------------------------------
 Structure from the checkpoint file:  "JID_1868.chk"
 Charge =  0 Multiplicity = 1

 SCF Done:  E(RB3LYP) =  -473.459533537     A.U. after   14 cycles
 Normal termination of Gaussian 16 at Tue Dec  8 21:24:03 2020.

 ----------------------------------------------------------------------
 # B3LYP/6-311++G(d,p) empiricaldispersion=gd3bj scf=xqc pop=npa geom=c
 heck
 ----------------------------------------------------------------------

 ------------------------------------
 CID_12027212_JID_1868_Energie_kation
 ------------------------------------
 Structure from the checkpoint file:  "JID_1868.chk"
 Charge =  1 Multiplicity = 2

 SCF Done:  E(UB3LYP) =  -473.168377087     A.U. after   21 cycles
 Normal termination of Gaussian 16 at Tue Dec  8 21:28:31 2020.
 Gaussian 16:  ES64L-G16RevA.03 25-Dec-2016

 ----------------------------------------------------------------------
 # B3LYP/6-311++G(d,p) empiricaldispersion=gd3bj scf=xqc pop=npa geom=c
 heck
 ----------------------------------------------------------------------

 -----------------------------------
 CID_12027212_JID_1868_Energie_anion
 -----------------------------------
 Structure from the checkpoint file:  "JID_1868.chk"
 Charge = -1 Multiplicity = 2

                         Standard orientation:
 ---------------------------------------------------------------------
 Center     Atomic      Atomic             Coordinates (Angstroms)
 Number     Number       Type             X           Y           Z
 ---------------------------------------------------------------------
      1          6           0        1.789393    1.159856   -0.000089
      2          6           0        3.095944    0.739329   -0.000055
      3          7           0        3.092851   -0.641081    0.000195
      4          6           0        1.805948   -1.106244    0.000065
      5          6           0        0.957935   -0.006385   -0.000061
      6          6           0       -0.501446   -0.005973   -0.000071
      7          7           0       -1.123671    1.189201    0.000011
      8          6           0       -2.458575    1.176127    0.000076
      9          6           0       -3.194749   -0.006936    0.000050
     10          7           0       -2.591584   -1.204610   -0.000028
     11          6           0       -1.261257   -1.194195   -0.000082
     12          1           0        1.430600    2.177676   -0.000086
     13          1           0        4.023017    1.293060    0.000070
     14          1           0        3.915426   -1.223942   -0.000353
     15          1           0        1.598724   -2.165787    0.000070
     16          1           0       -2.957637    2.143675    0.000095
     17          1           0       -4.282185    0.002555    0.000113
     18          1           0       -0.770270   -2.165288   -0.000153
 ---------------------------------------------------------------------

 SCF Done:  E(UB3LYP) =  -473.456701946     A.U. after   33 cycles
 SCF Done:  E(UB3LYP) =  -473.456701946     a.u. after    1 cycles

 The electronic state is 2-A.
 Alpha  occ. eigenvalues --  -14.23929 -14.17062 -14.16308 -10.07542 -10.07487
 Alpha  occ. eigenvalues --  -10.07368 -10.07265 -10.07023 -10.06550 -10.04287
 Alpha  occ. eigenvalues --  -10.03525  -0.86004  -0.83465  -0.76244  -0.67325
 Alpha  occ. eigenvalues --   -0.63081  -0.60287  -0.52688  -0.51818  -0.46497
 Alpha  occ. eigenvalues --   -0.43914  -0.42939  -0.37808  -0.37012  -0.34141
 Alpha  occ. eigenvalues --   -0.31105  -0.30289  -0.30016  -0.28441  -0.28136
 Alpha  occ. eigenvalues --   -0.25780  -0.24940  -0.19843  -0.16478  -0.16332
 Alpha  occ. eigenvalues --   -0.11683  -0.10801  -0.09089   0.04679
 Alpha virt. eigenvalues --    0.06283   0.08815   0.08876   0.09517   0.10472
 Alpha virt. eigenvalues --    0.11040   0.12817   0.13564   0.13732   0.15536
 Alpha virt. eigenvalues --    0.15620   0.16566   0.17398   0.17662   0.18301

  Beta  occ. eigenvalues --  -14.23877 -14.16679 -14.15896 -10.07481 -10.07442
  Beta  occ. eigenvalues --  -10.07304 -10.07281 -10.07051 -10.06478 -10.04307
  Beta  occ. eigenvalues --  -10.03502  -0.85918  -0.82960  -0.75555  -0.67175
  Beta  occ. eigenvalues --   -0.62924  -0.60160  -0.52422  -0.51484  -0.46382
  Beta  occ. eigenvalues --   -0.43812  -0.42807  -0.37660  -0.36821  -0.34013
  Beta  occ. eigenvalues --   -0.31042  -0.30234  -0.29653  -0.28389  -0.27273
  Beta  occ. eigenvalues --   -0.25735  -0.24806  -0.18211  -0.15949  -0.15644
  Beta  occ. eigenvalues --   -0.11463  -0.10369  -0.08641
  Beta virt. eigenvalues --    0.08013   0.08815   0.09448   0.09473   0.09754
  Beta virt. eigenvalues --    0.10890   0.11117   0.12855   0.13709   0.14010
  Beta virt. eigenvalues --    0.15485   0.15546   0.16586   0.17465   0.17708

 Mulliken charges and spin densities:
               1          2
     1  C   -0.344532   0.764319
     2  C    0.120548  -0.707296
     3  N    0.072212  -0.159056
     4  C   -0.264621   0.209483
     5  C    0.962834  -1.238580
     6  C   -0.424636  -0.065883
     7  N   -0.062942   0.187585
     8  C    0.130269   0.038847
     9  C   -0.232666   0.044528
    10  N   -0.093827   0.155956
    11  C   -0.184392  -0.113706
    12  H    0.135843   0.036888
    13  H   -0.368536   0.503243
    14  H   -0.614567   0.940907
    15  H   -0.273395   0.432464
    16  H    0.128855   0.004387
    17  H    0.129213  -0.009067
    18  H    0.184339  -0.025020
 Sum of Mulliken charges =  -1.00000   1.00000

 Dipole moment (field-independent basis, Debye):
    X=             -4.3603    Y=              2.2719    Z=              0.0622  Tot=              4.9171
 Quadrupole moment (field-independent basis, Debye-Ang):
   XX=           -128.4948   YY=            -85.3172   ZZ=            -78.6825
   XY=              4.7531   XZ=              0.2835   YZ=              0.2093

 Summary of Natural Population Analysis:

                                       Natural Population
                Natural  -----------------------------------------------
    Atom  No    Charge         Core      Valence    Rydberg      Total
 -----------------------------------------------------------------------
      C    1   -0.12871      0.99953     2.11887    0.01031     3.12871
      C    2   -0.02907      0.99957     2.01536    0.01414     3.02907
      N    3   -0.26194      0.99970     2.75033    0.01191     3.76194
      C    4   -0.00086      0.99954     1.98795    0.01337     3.00086
      C    5   -0.07962      0.99951     2.06731    0.01280     3.07962
      C    6    0.09400      0.99951     1.89421    0.01228     2.90600
      N    7   -0.17285      0.99969     2.66327    0.00989     3.67285
      C    8   -0.00107      0.99960     1.98786    0.01360     3.00107
      C    9   -0.00458      0.99960     1.99047    0.01451     3.00458
      N   10   -0.17530      0.99971     2.66409    0.01150     3.67530
      C   11    0.00267      0.99957     1.98308    0.01468     2.99733
      H   12    0.11046      0.00000     0.38827    0.00126     0.38954
      H   13    0.09770      0.00000     0.40126    0.00104     0.40230
      H   14    0.20627      0.00000     0.26645    0.02728     0.29373
      H   15    0.09831      0.00000     0.40068    0.00101     0.40169
      H   16    0.08136      0.00000     0.41724    0.00140     0.41864
      H   17    0.08123      0.00000     0.41735    0.00142     0.41877
      H   18    0.08200      0.00000     0.41498    0.00302     0.41800
 =======================================================================
   * Total *    0.00000     10.99553    26.82905    0.17542    38.00000

 Normal termination of Gaussian 16 at Tue Dec  8 21:35:42 2020.
