 Gaussian 16, Revision A.03,

 -----------------------------------------------------------
 # opt freq B3LYP/6-31G(d) empiricaldispersion=gd3bj scf=xqc
 -----------------------------------------------------------

 ------------------------------
 CID_82401889_JID_4413_neutraal
 ------------------------------
 Symbolic Z-matrix:
 Charge =  0 Multiplicity = 1

 SCF Done:  E(RB3LYP) =  -629.570570293     A.U. after   14 cycles
 SCF Done:  E(RB3LYP) =  -629.575352671     A.U. after   12 cycles
 SCF Done:  E(RB3LYP) =  -629.575728368     A.U. after   11 cycles
 SCF Done:  E(RB3LYP) =  -629.575864282     A.U. after   11 cycles
 SCF Done:  E(RB3LYP) =  -629.575934827     A.U. after   10 cycles
 SCF Done:  E(RB3LYP) =  -629.575963380     A.U. after   10 cycles
 SCF Done:  E(RB3LYP) =  -629.575966911     A.U. after    8 cycles
 SCF Done:  E(RB3LYP) =  -629.575968953     A.U. after    8 cycles
 SCF Done:  E(RB3LYP) =  -629.575971020     A.U. after    9 cycles
 SCF Done:  E(RB3LYP) =  -629.575971831     A.U. after    8 cycles
 SCF Done:  E(RB3LYP) =  -629.575984733     A.U. after    7 cycles
 SCF Done:  E(RB3LYP) =  -629.575984916     A.U. after    8 cycles
 SCF Done:  E(RB3LYP) =  -629.575984966     A.U. after    7 cycles
 SCF Done:  E(RB3LYP) =  -629.575985027     A.U. after    8 cycles
 SCF Done:  E(RB3LYP) =  -629.575985071     A.U. after    7 cycles
 Optimization completed.
    -- Stationary point found.
 Normal termination of Gaussian 16 at Thu Dec 10 09:48:51 2020.

 --------------------------------------------------------------------
 #N Geom=AllCheck Guess=TCheck SCRF=Check GenChk RB3LYP/6-31G(d) Freq
 --------------------------------------------------------------------

 Structure from the checkpoint file:  "JID_4413.chk"
 ------------------------------
 CID_82401889_JID_4413_neutraal
 ------------------------------
 Charge =  0 Multiplicity = 1

 SCF Done:  E(RB3LYP) =  -629.575985071     A.U. after    1 cycles

  Exact polarizability: 149.642  -1.898 122.841   3.772  -1.213  84.988
 Approx polarizability: 192.481  -0.829 191.981   7.058  -5.775 133.530

                      1                      2                      3
                      A                      A                      A
 Frequencies --     15.3990                45.8609                72.9727
 Red. masses --      3.2838                 2.4124                 3.2381
 Frc consts  --      0.0005                 0.0030                 0.0102
 IR Inten    --      0.5901                 4.0212                 0.4937

                      4                      5                      6
                      A                      A                      A
 Frequencies --     92.8242                98.3413               179.7209
 Red. masses --      4.2831                 3.4896                 2.5396
 Frc consts  --      0.0217                 0.0199                 0.0483
 IR Inten    --      0.3919                 0.9610                 4.7457

                      7                      8                      9
                      A                      A                      A
 Frequencies --    236.2183               251.7124               276.3786
 Red. masses --      3.0962                 3.5919                 3.5248
 Frc consts  --      0.1018                 0.1341                 0.1586
 IR Inten    --      2.0188                 1.4359                 0.3611

                     10                     11                     12
                      A                      A                      A
 Frequencies --    307.1938               331.3643               396.8840
 Red. masses --      1.1906                 3.0486                 4.4507
 Frc consts  --      0.0662                 0.1972                 0.4131
 IR Inten    --     39.8414                10.1593                 5.1625

                     13                     14                     15
                      A                      A                      A
 Frequencies --    445.2936               452.4865               489.7723
 Red. masses --      1.6167                 2.3276                 2.7460
 Frc consts  --      0.1889                 0.2808                 0.3881
 IR Inten    --     59.5677                 6.6365                 4.4485

                     16                     17                     18
                      A                      A                      A
 Frequencies --    509.0648               561.1369               672.3344
 Red. masses --      2.4739                 3.8703                 2.5950
 Frc consts  --      0.3777                 0.7180                 0.6911
 IR Inten    --      6.2145                 8.0136                24.6455

                     19                     20                     21
                      A                      A                      A
 Frequencies --    677.2077               711.5079               738.0026
 Red. masses --      3.2663                 5.1692                 5.9746
 Frc consts  --      0.8826                 1.5418                 1.9172
 IR Inten    --      3.2443                 6.2485                 4.6467

                     22                     23                     24
                      A                      A                      A
 Frequencies --    780.8057               824.0259               839.3721
 Red. masses --      3.1695                 4.1757                 2.2606
 Frc consts  --      1.1385                 1.6706                 0.9384
 IR Inten    --      7.5885                 0.7544                14.7809

                     25                     26                     27
                      A                      A                      A
 Frequencies --    871.0336               878.5267               924.5810
 Red. masses --      1.6162                 2.0630                 2.8839
 Frc consts  --      0.7225                 0.9381                 1.4525
 IR Inten    --     95.5476                76.6181                20.7095

                     28                     29                     30
                      A                      A                      A
 Frequencies --    938.3520               947.1728               974.0388
 Red. masses --      1.4556                 3.0561                 1.2914
 Frc consts  --      0.7551                 1.6154                 0.7219
 IR Inten    --     11.4061                 1.5069                 8.7144

                     31                     32                     33
                      A                      A                      A
 Frequencies --    988.9894               994.9306              1024.7433
 Red. masses --      2.3841                 1.9498                 2.9201
 Frc consts  --      1.3739                 1.1372                 1.8067
 IR Inten    --     16.7141                16.2756                49.8986

                     34                     35                     36
                      A                      A                      A
 Frequencies --   1076.8140              1103.4018              1122.5022
 Red. masses --      3.3728                 5.4205                 3.2094
 Frc consts  --      2.3042                 3.8883                 2.3826
 IR Inten    --      3.4750                57.0256                43.6875

                     37                     38                     39
                      A                      A                      A
 Frequencies --   1132.9823              1147.8593              1155.4762
 Red. masses --      2.2763                 2.2472                 1.7951
 Frc consts  --      1.7216                 1.7445                 1.4121
 IR Inten    --      9.5703                 6.9091                 5.6351

                     40                     41                     42
                      A                      A                      A
 Frequencies --   1156.1263              1168.5972              1199.4547
 Red. masses --      1.3811                 1.7539                 1.6937
 Frc consts  --      1.0876                 1.4112                 1.4357
 IR Inten    --     18.4945                11.7156                 3.8889

                     43                     44                     45
                      A                      A                      A
 Frequencies --   1203.0487              1240.9325              1258.7836
 Red. masses --      1.8007                 1.1993                 1.3933
 Frc consts  --      1.5355                 1.0881                 1.3008
 IR Inten    --     18.2010                 5.4051                 1.6313

                     46                     47                     48
                      A                      A                      A
 Frequencies --   1263.8316              1279.5170              1309.9147
 Red. masses --      1.2717                 1.4630                 1.4209
 Frc consts  --      1.1968                 1.4112                 1.4364
 IR Inten    --      6.4170                 8.8112                 6.6078

                     49                     50                     51
                      A                      A                      A
 Frequencies --   1315.6611              1334.3279              1355.3855
 Red. masses --      1.4445                 1.4213                 1.2467
 Frc consts  --      1.4732                 1.4909                 1.3494
 IR Inten    --      9.4944                 2.7843                 6.4102

                     52                     53                     54
                      A                      A                      A
 Frequencies --   1356.8892              1361.3034              1393.2548
 Red. masses --      1.5372                 1.5996                 1.4503
 Frc consts  --      1.6675                 1.7465                 1.6587
 IR Inten    --      1.2064                 9.2539                 9.7846

                     55                     56                     57
                      A                      A                      A
 Frequencies --   1427.4697              1429.7100              1434.6752
 Red. masses --      1.4863                 2.8947                 1.4805
 Frc consts  --      1.7844                 3.4862                 1.7954
 IR Inten    --      2.0712                 0.8267                14.9724

                     58                     59                     60
                      A                      A                      A
 Frequencies --   1512.2656              1519.2781              1523.5038
 Red. masses --      1.2219                 1.5702                 1.1150
 Frc consts  --      1.6464                 2.1354                 1.5248
 IR Inten    --      3.8542                 4.5147                 1.3517

                     61                     62                     63
                      A                      A                      A
 Frequencies --   1532.0158              1550.6687              1555.7835
 Red. masses --      2.1345                 1.0918                 4.9168
 Frc consts  --      2.9516                 1.5468                 7.0118
 IR Inten    --     17.1090                 2.6996                11.5699

                     64                     65                     66
                      A                      A                      A
 Frequencies --   1565.0522              1613.3119              1695.9836
 Red. masses --      1.1319                 5.0000                 1.0942
 Frc consts  --      1.6335                 7.6676                 1.8543
 IR Inten    --      1.8247                20.1416                26.8651

                     67                     68                     69
                      A                      A                      A
 Frequencies --   3015.3273              3016.5882              3017.1956
 Red. masses --      1.0682                 1.0767                 1.0722
 Frc consts  --      5.7221                 5.7725                 5.7508
 IR Inten    --     49.4782                20.4492                42.1497

                     70                     71                     72
                      A                      A                      A
 Frequencies --   3020.4399              3036.9143              3057.3260
 Red. masses --      1.0705                 1.0688                 1.0867
 Frc consts  --      5.7543                 5.8075                 5.9846
 IR Inten    --     78.8167                34.9574                25.5366

                     73                     74                     75
                      A                      A                      A
 Frequencies --   3058.4603              3072.4106              3080.6173
 Red. masses --      1.0851                 1.0759                 1.0945
 Frc consts  --      5.9804                 5.9841                 6.1201
 IR Inten    --     12.3756                55.4617                43.5357

                     76                     77                     78
                      A                      A                      A
 Frequencies --   3095.4462              3111.8017              3119.8267
 Red. masses --      1.0926                 1.0983                 1.1043
 Frc consts  --      6.1681                 6.2661                 6.3327
 IR Inten    --     32.4789                37.8431                35.9888

                     79                     80                     81
                      A                      A                      A
 Frequencies --   3459.8973              3547.6149              3672.5533
 Red. masses --      1.0494                 1.0924                 1.0812
 Frc consts  --      7.4013                 8.1006                 8.5920
 IR Inten    --      1.0692                 0.5581                67.2421

 - Thermochemistry -
 -------------------
 Temperature   298.150 Kelvin.  Pressure   1.00000 Atm.
 Atom     1 has atomic number  6 and mass  12.00000

 Molecular mass:   193.12151 amu.
 Principal axes and moments of inertia in atomic units:
                           1         2         3
     Eigenvalues --  1193.480094762.292685768.86966
           X            1.00000  -0.00256   0.00091
           Y            0.00256   0.99999   0.00404
           Z           -0.00092  -0.00404   0.99999
 This molecule is an asymmetric top.
 Rotational symmetry number  1.
 Warning -- assumption of classical behavior for rotation
           may cause significant error
 Rotational temperatures (Kelvin)      0.07257     0.01819     0.01501
 Rotational constants (GHZ):           1.51217     0.37896     0.31284
 Zero-point vibrational energy     659300.6 (Joules/Mol)
                                  157.57662 (Kcal/Mol)
 Warning -- explicit consideration of  17 degrees of freedom as
           vibrations may cause significant error
 Vibrational temperatures:     22.16    65.98   104.99   133.55   141.49
          (Kelvin)            258.58   339.87   362.16   397.65   441.98
                              476.76   571.03   640.68   651.03   704.67
                              732.43   807.35   967.34   974.35  1023.70
                             1061.82  1123.41  1185.59  1207.67  1253.22
                             1264.00  1330.27  1350.08  1362.77  1401.42
                             1422.94  1431.48  1474.38  1549.30  1587.55
                             1615.03  1630.11  1651.51  1662.47  1663.41
                             1681.35  1725.75  1730.92  1785.43  1811.11
                             1818.37  1840.94  1884.68  1892.94  1919.80
                             1950.10  1952.26  1958.61  2004.58  2053.81
                             2057.03  2064.18  2175.81  2185.90  2191.98
                             2204.23  2231.07  2238.43  2251.76  2321.20
                             2440.14  4338.38  4340.20  4341.07  4345.74
                             4369.44  4398.81  4400.44  4420.51  4432.32
                             4453.66  4477.19  4488.73  4978.02  5104.23
                             5283.99

 Zero-point correction=                           0.251114 (Hartree/Particle)
 Thermal correction to Energy=                    0.263744
 Thermal correction to Enthalpy=                  0.264688
 Thermal correction to Gibbs Free Energy=         0.209983
 Sum of electronic and zero-point Energies=           -629.324871
 Sum of electronic and thermal Energies=              -629.312241
 Sum of electronic and thermal Enthalpies=            -629.311297
 Sum of electronic and thermal Free Energies=         -629.366002

                     E (Thermal)             CV                S
                      KCal/Mol        Cal/Mol-Kelvin    Cal/Mol-Kelvin
 Total                  165.502             48.024            115.136
 Electronic               0.000              0.000              0.000
 Translational            0.889              2.981             41.680
 Rotational               0.889              2.981             31.861
 Vibrational            163.724             42.062             41.595
 Vibration     1          0.593              1.986              7.153
 Vibration     2          0.595              1.979              4.988
 Vibration     3          0.599              1.967              4.072
 Vibration     4          0.602              1.954              3.600
 Vibration     5          0.604              1.950              3.487
 Vibration     6          0.629              1.867              2.331
 Vibration     7          0.655              1.785              1.831
 Vibration     8          0.664              1.760              1.719
 Vibration     9          0.678              1.717              1.556
 Vibration    10          0.697              1.660              1.377
 Vibration    11          0.714              1.613              1.253
 Vibration    12          0.763              1.477              0.974
 Vibration    13          0.805              1.371              0.810
 Vibration    14          0.811              1.355              0.788
 Vibration    15          0.846              1.273              0.684
 Vibration    16          0.864              1.230              0.636
 Vibration    17          0.917              1.115              0.522

 Optimization completed.
    -- Stationary point found.
 Normal termination of Gaussian 16 at Thu Dec 10 09:56:35 2020.

 ----------------------------------------------------------------------
 # B3LYP/6-311++G(d,p) empiricaldispersion=gd3bj scf=xqc pop=npa geom=c
 heck
 ----------------------------------------------------------------------

 --------------------------------------
 CID_82401889_JID_4413_Energie_neutraal
 --------------------------------------
 Structure from the checkpoint file:  "JID_4413.chk"
 Charge =  0 Multiplicity = 1

 SCF Done:  E(RB3LYP) =  -629.755664218     A.U. after   15 cycles
 Normal termination of Gaussian 16 at Thu Dec 10 10:00:12 2020.

 ----------------------------------------------------------------------
 # B3LYP/6-311++G(d,p) empiricaldispersion=gd3bj scf=xqc pop=npa geom=c
 heck
 ----------------------------------------------------------------------

 ------------------------------------
 CID_82401889_JID_4413_Energie_kation
 ------------------------------------
 Structure from the checkpoint file:  "JID_4413.chk"
 Charge =  1 Multiplicity = 2

 SCF Done:  E(UB3LYP) =  -629.456096656     A.U. after   31 cycles
 Normal termination of Gaussian 16 at Thu Dec 10 10:12:20 2020.
 Gaussian 16:  ES64L-G16RevA.03 25-Dec-2016

 ----------------------------------------------------------------------
 # B3LYP/6-311++G(d,p) empiricaldispersion=gd3bj scf=xqc pop=npa geom=c
 heck
 ----------------------------------------------------------------------

 -----------------------------------
 CID_82401889_JID_4413_Energie_anion
 -----------------------------------
 Structure from the checkpoint file:  "JID_4413.chk"
 Charge = -1 Multiplicity = 2

                         Standard orientation:
 ---------------------------------------------------------------------
 Center     Atomic      Atomic             Coordinates (Angstroms)
 Number     Number       Type             X           Y           Z
 ---------------------------------------------------------------------
      1          6           0        2.045444   -1.292205   -0.422007
      2          6           0        3.564700   -1.453671   -0.282143
      3          8           0        4.090947   -0.160858    0.035975
      4          6           0        3.021343    0.775488    0.184419
      5          6           0        1.770251   -0.063720    0.467350
      6          6           0        0.465286    0.618617    0.200172
      7          7           0        0.413551    1.938561   -0.030527
      8          7           0       -0.905250    2.218406   -0.233280
      9          6           0       -1.678834    1.112092   -0.120707
     10          6           0       -0.836436    0.059486    0.156842
     11          6           0       -1.605308   -1.226862    0.252944
     12          6           0       -3.078906   -0.720977    0.388021
     13          6           0       -3.113615    0.718946   -0.260548
     14          7           0       -4.033611   -1.702139   -0.103466
     15          1           0        1.768493   -1.059960   -1.456823
     16          1           0        1.490855   -2.183820   -0.114415
     17          1           0        3.820082   -2.149283    0.530226
     18          1           0        4.034925   -1.822549   -1.202283
     19          1           0        2.886306    1.363140   -0.734313
     20          1           0        3.273665    1.463625    0.996108
     21          1           0        1.801269   -0.389332    1.517556
     22          1           0       -1.172142    3.173616   -0.413047
     23          1           0       -1.334876   -1.869492    1.097053
     24          1           0       -1.499635   -1.838724   -0.655622
     25          1           0       -3.278597   -0.586818    1.457807
     26          1           0       -3.417502    0.655341   -1.316458
     27          1           0       -3.828662    1.378405    0.245412
     28          1           0       -4.987570   -1.383631    0.057984
     29          1           0       -3.930560   -1.810618   -1.112133
 ---------------------------------------------------------------------

 SCF Done:  E(UB3LYP) =  -629.745230673     A.U. after   33 cycles
 SCF Done:  E(UB3LYP) =  -629.745230673     a.u. after    1 cycles

 The electronic state is 2-A.
 Alpha  occ. eigenvalues --  -19.02973 -14.27956 -14.22527 -14.19089 -10.12870
 Alpha  occ. eigenvalues --  -10.11955 -10.10376 -10.10042 -10.09697 -10.09176
 Alpha  occ. eigenvalues --  -10.08407 -10.07475 -10.07397 -10.05775  -0.94608
 Alpha  occ. eigenvalues --   -0.93774  -0.79244  -0.73889  -0.72528  -0.68657
 Alpha  occ. eigenvalues --   -0.64937  -0.61466  -0.60759  -0.53560  -0.50849
 Alpha  occ. eigenvalues --   -0.49225  -0.46672  -0.46389  -0.42686  -0.41104
 Alpha  occ. eigenvalues --   -0.39837  -0.38924  -0.36015  -0.34874  -0.33919
 Alpha  occ. eigenvalues --   -0.32621  -0.32288  -0.31493  -0.30442  -0.29328
 Alpha  occ. eigenvalues --   -0.28646  -0.26798  -0.26037  -0.25583  -0.25019
 Alpha  occ. eigenvalues --   -0.24098  -0.22690  -0.19126  -0.16398  -0.15039
 Alpha  occ. eigenvalues --   -0.14269  -0.13023   0.04303
 Alpha virt. eigenvalues --    0.06229   0.07014   0.07675   0.08502   0.09011
 Alpha virt. eigenvalues --    0.09133   0.10092   0.10794   0.11040   0.11247
 Alpha virt. eigenvalues --    0.11673   0.11842   0.12546   0.13375   0.14527

  Beta  occ. eigenvalues --  -19.02973 -14.27925 -14.22520 -14.19042 -10.12862
  Beta  occ. eigenvalues --  -10.11954 -10.10360 -10.10043 -10.09697 -10.09172
  Beta  occ. eigenvalues --  -10.08394 -10.07421 -10.07379 -10.05771  -0.94605
  Beta  occ. eigenvalues --   -0.93750  -0.79169  -0.73863  -0.72484  -0.68630
  Beta  occ. eigenvalues --   -0.64921  -0.61412  -0.60692  -0.53531  -0.50823
  Beta  occ. eigenvalues --   -0.49148  -0.46631  -0.46358  -0.42629  -0.41071
  Beta  occ. eigenvalues --   -0.39771  -0.38900  -0.35989  -0.34849  -0.33900
  Beta  occ. eigenvalues --   -0.32586  -0.32259  -0.31462  -0.30399  -0.29278
  Beta  occ. eigenvalues --   -0.28616  -0.26783  -0.25986  -0.25554  -0.24999
  Beta  occ. eigenvalues --   -0.24046  -0.22680  -0.19101  -0.16393  -0.15021
  Beta  occ. eigenvalues --   -0.14209  -0.13005
  Beta virt. eigenvalues --    0.06279   0.07428   0.07928   0.08086   0.09057
  Beta virt. eigenvalues --    0.09185   0.09450   0.10511   0.11095   0.11325
  Beta virt. eigenvalues --    0.11537   0.11915   0.12115   0.12786   0.13557

 Mulliken charges and spin densities:
               1          2
     1  C    0.042603  -0.332115
     2  C   -0.086200  -0.422673
     3  O   -0.172376   0.014565
     4  C   -0.254023  -0.306585
     5  C   -0.006013   0.018607
     6  C   -0.266905   0.084268
     7  N   -0.247474   0.214688
     8  N   -0.060524  -0.160911
     9  C    0.122610   0.190997
    10  C   -0.359748   1.335843
    11  C    1.818232  -3.045362
    12  C   -1.296875   1.059813
    13  C    1.419588  -1.873304
    14  N   -0.330395   0.037555
    15  H   -0.025332   0.207146
    16  H    0.092668   0.046370
    17  H    0.010679   0.143260
    18  H    0.067344   0.075419
    19  H    0.176423   0.019229
    20  H    0.154111   0.036310
    21  H    0.010002   0.190946
    22  H   -0.211366   0.540393
    23  H   -0.083916   0.234183
    24  H   -0.083342   0.239717
    25  H    0.006721   0.176272
    26  H   -0.455942   0.643791
    27  H   -0.730767   0.907984
    28  H   -0.312010   0.564298
    29  H    0.062226   0.159293
 Sum of Mulliken charges =  -1.00000   1.00000

 Dipole moment (field-independent basis, Debye):
    X=              8.0735    Y=             -1.7074    Z=              0.6325  Tot=              8.2763
 Quadrupole moment (field-independent basis, Debye-Ang):
   XX=           -181.5036   YY=           -127.7135   ZZ=           -109.1999
   XY=             -0.2811   XZ=             -3.2276   YZ=              1.3076

 Summary of Natural Population Analysis:

                                       Natural Population
                Natural  -----------------------------------------------
    Atom  No    Charge         Core      Valence    Rydberg      Total
 -----------------------------------------------------------------------
      C    1   -0.20196      0.99963     2.19349    0.00884     3.20196
      C    2   -0.00809      0.99961     1.99775    0.01074     3.00809
      O    3   -0.30739      0.99990     3.29925    0.00824     4.30739
      C    4   -0.00290      0.99958     1.99170    0.01161     3.00290
      C    5   -0.13097      0.99957     2.12170    0.00970     3.13097
      C    6    0.07555      0.99952     1.90993    0.01500     2.92445
      N    7   -0.16666      0.99970     2.65489    0.01207     3.66666
      N    8   -0.16686      0.99964     2.65445    0.01278     3.66686
      C    9    0.08729      0.99942     1.90110    0.01219     2.91271
      C   10   -0.06941      0.99939     2.05996    0.01007     3.06941
      C   11   -0.19071      0.99959     2.18311    0.00800     3.19071
      C   12   -0.00059      0.99962     1.98712    0.01384     3.00059
      C   13   -0.20918      0.99959     2.19981    0.00978     3.20918
      N   14   -0.41963      0.99976     2.90905    0.01082     3.91963
      H   15    0.09985      0.00000     0.39884    0.00131     0.40015
      H   16    0.10666      0.00000     0.39223    0.00110     0.39334
      H   17    0.07927      0.00000     0.41906    0.00166     0.42073
      H   18    0.08300      0.00000     0.41548    0.00152     0.41700
      H   19    0.08603      0.00000     0.41236    0.00161     0.41397
      H   20    0.09082      0.00000     0.40784    0.00134     0.40918
      H   21    0.10315      0.00000     0.39549    0.00136     0.39685
      H   22    0.20124      0.00000     0.29448    0.00428     0.29876
      H   23    0.10341      0.00000     0.39518    0.00140     0.39659
      H   24    0.09933      0.00000     0.39927    0.00140     0.40067
      H   25    0.09007      0.00000     0.40853    0.00140     0.40993
      H   26    0.10569      0.00000     0.39077    0.00353     0.39431
      H   27    0.11116      0.00000     0.38349    0.00535     0.38884
      H   28    0.17917      0.00000     0.31773    0.00310     0.32083
      H   29    0.17267      0.00000     0.32480    0.00253     0.32733
 =======================================================================
   * Total *    0.00000     13.99451    37.81887    0.18662    52.00000

 Normal termination of Gaussian 16 at Thu Dec 10 10:22:52 2020.
