 Gaussian 16, Revision A.03,

 -----------------------------------------------------------
 # opt freq B3LYP/6-31G(d) empiricaldispersion=gd3bj scf=xqc
 -----------------------------------------------------------

 -------------------------------
 CID_43116945_JID_10904_neutraal
 -------------------------------
 Symbolic Z-matrix:
 Charge =  0 Multiplicity = 1

 SCF Done:  E(RB3LYP) =  -1277.70533417     A.U. after   15 cycles
 SCF Done:  E(RB3LYP) =  -1277.71480150     A.U. after   13 cycles
 SCF Done:  E(RB3LYP) =  -1277.71634070     A.U. after   13 cycles
 SCF Done:  E(RB3LYP) =  -1277.71772675     A.U. after   13 cycles
 SCF Done:  E(RB3LYP) =  -1277.71872380     A.U. after   13 cycles
 SCF Done:  E(RB3LYP) =  -1277.71954747     A.U. after   13 cycles
 SCF Done:  E(RB3LYP) =  -1277.71857793     A.U. after   13 cycles
 SCF Done:  E(RB3LYP) =  -1277.72012849     A.U. after   12 cycles
 SCF Done:  E(RB3LYP) =  -1277.72106396     A.U. after   13 cycles
 SCF Done:  E(RB3LYP) =  -1277.72168169     A.U. after   14 cycles
 SCF Done:  E(RB3LYP) =  -1277.73159732     A.U. after   10 cycles
 SCF Done:  E(RB3LYP) =  -1277.73160112     A.U. after   10 cycles
 SCF Done:  E(RB3LYP) =  -1277.73160721     A.U. after    9 cycles
 SCF Done:  E(RB3LYP) =  -1277.73160874     A.U. after   10 cycles
 SCF Done:  E(RB3LYP) =  -1277.73160966     A.U. after   10 cycles
 SCF Done:  E(RB3LYP) =  -1277.73160984     A.U. after    8 cycles
 Optimization completed.
    -- Stationary point found.
 Normal termination of Gaussian 16 at Sat Dec 12 17:07:52 2020.

 --------------------------------------------------------------------
 #N Geom=AllCheck Guess=TCheck SCRF=Check GenChk RB3LYP/6-31G(d) Freq
 --------------------------------------------------------------------

 Structure from the checkpoint file:  "JID_10904.chk"
 -------------------------------
 CID_43116945_JID_10904_neutraal
 -------------------------------
 Charge =  0 Multiplicity = 1

 SCF Done:  E(RB3LYP) =  -1277.73160984     A.U. after    1 cycles

  Exact polarizability: 255.836  -5.052 197.359  13.078  -6.843 116.035
 Approx polarizability: 346.014 -13.106 334.807  30.320 -16.006 188.456

                      1                      2                      3
                      A                      A                      A
 Frequencies --     25.7184                40.2392                47.6516
 Red. masses --      4.2579                 7.3562                 4.9127
 Frc consts  --      0.0017                 0.0070                 0.0066
 IR Inten    --      1.5896                 1.9998                 8.3661

                      4                      5                      6
                      A                      A                      A
 Frequencies --     54.8218                69.6258                76.8749
 Red. masses --      3.9012                 3.8461                 3.0923
 Frc consts  --      0.0069                 0.0110                 0.0108
 IR Inten    --      2.3836                 0.5355                 1.0658

                      7                      8                      9
                      A                      A                      A
 Frequencies --    116.1562               120.0495               129.0961
 Red. masses --      4.8507                 4.7440                 7.3206
 Frc consts  --      0.0386                 0.0403                 0.0719
 IR Inten    --      1.0774                 0.3084                 2.7520

                     10                     11                     12
                      A                      A                      A
 Frequencies --    143.4191               149.6858               176.5182
 Red. masses --      3.9540                 3.6663                 3.5839
 Frc consts  --      0.0479                 0.0484                 0.0658
 IR Inten    --      2.7020                 1.8927                 1.7918

                     13                     14                     15
                      A                      A                      A
 Frequencies --    200.7284               249.2649               258.2419
 Red. masses --      1.8491                 2.2887                 1.4267
 Frc consts  --      0.0439                 0.0838                 0.0561
 IR Inten    --      0.6875                 1.0541                 1.3026

                     16                     17                     18
                      A                      A                      A
 Frequencies --    270.8834               289.7491               292.3501
 Red. masses --      1.8850                 3.9058                 3.8839
 Frc consts  --      0.0815                 0.1932                 0.1956
 IR Inten    --      2.4799                 6.0453                 3.9099

                     19                     20                     21
                      A                      A                      A
 Frequencies --    315.6736               340.0154               374.4604
 Red. masses --      3.9804                 4.2375                 5.9800
 Frc consts  --      0.2337                 0.2886                 0.4940
 IR Inten    --      2.2146                 3.6537                 0.4001

                     22                     23                     24
                      A                      A                      A
 Frequencies --    395.7347               399.5080               431.3402
 Red. masses --      1.2140                 3.4848                 4.1242
 Frc consts  --      0.1120                 0.3277                 0.4521
 IR Inten    --    186.7227                14.3905                 6.6692

                     25                     26                     27
                      A                      A                      A
 Frequencies --    453.1667               479.6404               518.9550
 Red. masses --      3.4638                 4.4861                 4.0634
 Frc consts  --      0.4191                 0.6081                 0.6448
 IR Inten    --     10.8987                 8.8033                 5.7297

                     28                     29                     30
                      A                      A                      A
 Frequencies --    544.2427               553.9313               555.5640
 Red. masses --      4.5477                 2.8005                 3.4678
 Frc consts  --      0.7936                 0.5063                 0.6306
 IR Inten    --      1.0678                 7.9222                38.4317

                     31                     32                     33
                      A                      A                      A
 Frequencies --    589.5451               605.9768               620.0221
 Red. masses --      3.5691                 1.5978                 1.2765
 Frc consts  --      0.7309                 0.3457                 0.2891
 IR Inten    --      4.1308                61.9895                16.9663

                     34                     35                     36
                      A                      A                      A
 Frequencies --    643.2542               672.1070               693.3010
 Red. masses --      3.6762                 6.5345                 4.0134
 Frc consts  --      0.8962                 1.7392                 1.1366
 IR Inten    --      3.6016                 3.6635                 4.4200

                     37                     38                     39
                      A                      A                      A
 Frequencies --    720.8831               743.8120               780.4855
 Red. masses --      4.1232                 3.8408                 4.5418
 Frc consts  --      1.2625                 1.2520                 1.6301
 IR Inten    --     34.1587                 4.5061                20.6412

                     40                     41                     42
                      A                      A                      A
 Frequencies --    787.5809               819.1748               851.1472
 Red. masses --      1.2076                 2.0137                 1.5300
 Frc consts  --      0.4413                 0.7962                 0.6530
 IR Inten    --      2.2935                 0.4791                13.7028

                     43                     44                     45
                      A                      A                      A
 Frequencies --    852.8363               866.6975               876.9404
 Red. masses --      1.8610                 2.8019                 3.2877
 Frc consts  --      0.7975                 1.2400                 1.4897
 IR Inten    --     23.6184                36.5752                18.7939

                     46                     47                     48
                      A                      A                      A
 Frequencies --    898.5688               922.1217               946.8861
 Red. masses --      1.4749                 2.6557                 1.3675
 Frc consts  --      0.7016                 1.3305                 0.7224
 IR Inten    --     20.2141                12.4705                 5.3213

                     49                     50                     51
                      A                      A                      A
 Frequencies --    961.2266               973.2145              1043.2356
 Red. masses --      2.8550                 2.8352                 2.0544
 Frc consts  --      1.5542                 1.5821                 1.3174
 IR Inten    --      3.2254                17.9771                31.6640

                     52                     53                     54
                      A                      A                      A
 Frequencies --   1059.0699              1073.5727              1075.1534
 Red. masses --      2.1775                 1.4422                 4.5821
 Frc consts  --      1.4390                 0.9793                 3.1207
 IR Inten    --     19.4495                13.8688                41.3702

                     55                     56                     57
                      A                      A                      A
 Frequencies --   1104.8829              1112.9548              1140.7151
 Red. masses --      1.3176                 1.9088                 1.1482
 Frc consts  --      0.9477                 1.3931                 0.8803
 IR Inten    --      6.2181                28.8907                 4.5547

                     58                     59                     60
                      A                      A                      A
 Frequencies --   1144.9768              1155.9676              1162.9569
 Red. masses --      1.8938                 2.2738                 1.7552
 Frc consts  --      1.4628                 1.7902                 1.3986
 IR Inten    --     15.8074                33.9350               117.3959

                     61                     62                     63
                      A                      A                      A
 Frequencies --   1185.1268              1210.8221              1214.5975
 Red. masses --      1.2736                 1.3955                 1.9703
 Frc consts  --      1.0539                 1.2054                 1.7126
 IR Inten    --      0.7377                 1.7078                 0.9202

                     64                     65                     66
                      A                      A                      A
 Frequencies --   1219.1121              1242.5768              1255.8381
 Red. masses --      1.6391                 1.9723                 2.0561
 Frc consts  --      1.4353                 1.7942                 1.9106
 IR Inten    --     38.8911                78.0107                50.1402

                     67                     68                     69
                      A                      A                      A
 Frequencies --   1297.6456              1303.5771              1319.2804
 Red. masses --      1.5250                 2.4281                 1.7135
 Frc consts  --      1.5130                 2.4310                 1.7571
 IR Inten    --     44.1808               174.0423                56.7897

                     70                     71                     72
                      A                      A                      A
 Frequencies --   1336.6225              1375.4259              1385.9991
 Red. masses --      4.6928                 4.6850                 4.0511
 Frc consts  --      4.9397                 5.2220                 4.5851
 IR Inten    --    146.7627               159.5474                81.0793

                     73                     74                     75
                      A                      A                      A
 Frequencies --   1396.9679              1409.2251              1431.4861
 Red. masses --      1.3720                 1.3587                 1.2802
 Frc consts  --      1.5775                 1.5898                 1.5456
 IR Inten    --      1.9242                44.8242                13.7829

                     76                     77                     78
                      A                      A                      A
 Frequencies --   1441.0658              1461.9642              1474.9225
 Red. masses --      1.8050                 2.6848                 2.2743
 Frc consts  --      2.2085                 3.3809                 2.9150
 IR Inten    --     32.7626               108.1097                84.4790

                     79                     80                     81
                      A                      A                      A
 Frequencies --   1489.5617              1505.4121              1513.8765
 Red. masses --      1.1438                 1.3804                 1.0426
 Frc consts  --      1.4952                 1.8432                 1.4079
 IR Inten    --      6.8178                 3.7702                 7.6456

                     82                     83                     84
                      A                      A                      A
 Frequencies --   1519.3047              1524.3190              1528.7261
 Red. masses --      1.0505                 1.0751                 1.2920
 Frc consts  --      1.4287                 1.4719                 1.7790
 IR Inten    --      7.3496                 4.8572                 2.2733

                     85                     86                     87
                      A                      A                      A
 Frequencies --   1533.6592              1556.9608              1626.1304
 Red. masses --      1.1152                 2.9260                 5.7611
 Frc consts  --      1.5455                 4.1790                 8.9756
 IR Inten    --     44.5637               126.5484                51.8323

                     88                     89                     90
                      A                      A                      A
 Frequencies --   1654.4096              1659.8861              1779.7828
 Red. masses --      3.6652                 1.5192                 8.0863
 Frc consts  --      5.9106                 2.4662                15.0915
 IR Inten    --     85.3566               112.3587               294.3420

                     91                     92                     93
                      A                      A                      A
 Frequencies --   3043.9385              3065.9330              3113.8259
 Red. masses --      1.0323                 1.0369                 1.1070
 Frc consts  --      5.6357                 5.7425                 6.3238
 IR Inten    --     38.6624                14.1509                23.1146

                     94                     95                     96
                      A                      A                      A
 Frequencies --   3127.5796              3131.0302              3134.7327
 Red. masses --      1.0875                 1.0993                 1.0894
 Frc consts  --      6.2675                 6.3494                 6.3070
 IR Inten    --     32.8461                13.8394                32.6101

                     97                     98                     99
                      A                      A                      A
 Frequencies --   3152.4068              3158.6748              3167.9376
 Red. masses --      1.0548                 1.1021                 1.0986
 Frc consts  --      6.1758                 6.4789                 6.4961
 IR Inten    --     10.5680                30.2933                11.2972

                    100                    101                    102
                      A                      A                      A
 Frequencies --   3168.4005              3203.0849              3223.0935
 Red. masses --      1.0616                 1.0878                 1.0940
 Frc consts  --      6.2789                 6.5755                 6.6958
 IR Inten    --     22.6365                 6.9898                 9.8898

                    103                    104                    105
                      A                      A                      A
 Frequencies --   3233.6147              3244.6068              3268.5416
 Red. masses --      1.1185                 1.0897                 1.1148
 Frc consts  --      6.8904                 6.7587                 7.0170
 IR Inten    --     17.8347                 3.6732                 2.8362

                    106                    107                    108
                      A                      A                      A
 Frequencies --   3569.2440              3574.3140              3694.0820
 Red. masses --      1.0449                 1.0755                 1.1043
 Frc consts  --      7.8432                 8.0954                 8.8786
 IR Inten    --     46.2035                16.3429                36.3605

 - Thermochemistry -
 -------------------
 Temperature   298.150 Kelvin.  Pressure   1.00000 Atm.
 Atom     1 has atomic number  6 and mass  12.00000

 Molecular mass:   294.10381 amu.
 Principal axes and moments of inertia in atomic units:
                           1         2         3
     Eigenvalues --  2834.21885********************
           X            0.99988   0.01420   0.00554
           Y           -0.01419   0.99990  -0.00262
           Z           -0.00557   0.00255   0.99998
 This molecule is an asymmetric top.
 Rotational symmetry number  1.
 Warning -- assumption of classical behavior for rotation
           may cause significant error
 Rotational temperatures (Kelvin)      0.03056     0.00845     0.00743
 Rotational constants (GHZ):           0.63677     0.17609     0.15472
 Zero-point vibrational energy     814070.1 (Joules/Mol)
                                  194.56743 (Kcal/Mol)
 Warning -- explicit consideration of  33 degrees of freedom as
           vibrations may cause significant error
 Vibrational temperatures:     37.00    57.90    68.56    78.88   100.18
          (Kelvin)            110.61   167.12   172.72   185.74   206.35
                              215.36   253.97   288.80   358.64   371.55
                              389.74   416.88   420.63   454.18   489.21
                              538.77   569.37   574.80   620.60   652.01
                              690.10   746.66   783.04   796.98   799.33
                              848.22   871.87   892.07   925.50   967.01
                              997.51  1037.19  1070.18  1122.94  1133.15
                             1178.61  1224.61  1227.04  1246.98  1261.72
                             1292.84  1326.73  1362.36  1382.99  1400.24
                             1500.98  1523.77  1544.63  1546.91  1589.68
                             1601.29  1641.23  1647.37  1663.18  1673.24
                             1705.13  1742.10  1747.53  1754.03  1787.79
                             1806.87  1867.02  1875.56  1898.15  1923.10
                             1978.93  1994.14  2009.93  2027.56  2059.59
                             2073.37  2103.44  2122.08  2143.15  2165.95
                             2178.13  2185.94  2193.16  2199.50  2206.59
                             2240.12  2339.64  2380.33  2388.21  2560.71
                             4379.55  4411.19  4480.10  4499.89  4504.85
                             4510.18  4535.61  4544.63  4557.96  4558.62
                             4608.52  4637.31  4652.45  4668.27  4702.70
                             5135.35  5142.64  5314.96

 Zero-point correction=                           0.310063 (Hartree/Particle)
 Thermal correction to Energy=                    0.330240
 Thermal correction to Enthalpy=                  0.331184
 Thermal correction to Gibbs Free Energy=         0.260215
 Sum of electronic and zero-point Energies=          -1277.421547
 Sum of electronic and thermal Energies=             -1277.401370
 Sum of electronic and thermal Enthalpies=           -1277.400426
 Sum of electronic and thermal Free Energies=        -1277.471395

                     E (Thermal)             CV                S
                      KCal/Mol        Cal/Mol-Kelvin    Cal/Mol-Kelvin
 Total                  207.229             75.816            149.367
 Electronic               0.000              0.000              0.000
 Translational            0.889              2.981             42.934
 Rotational               0.889              2.981             34.182
 Vibrational            205.451             69.854             72.252
 Vibration     1          0.593              1.985              6.135
 Vibration     2          0.594              1.981              5.247
 Vibration     3          0.595              1.978              4.913
 Vibration     4          0.596              1.976              4.635
 Vibration     5          0.598              1.969              4.164
 Vibration     6          0.599              1.965              3.969
 Vibration     7          0.608              1.936              3.163
 Vibration     8          0.609              1.933              3.100
 Vibration     9          0.612              1.924              2.959
 Vibration    10          0.616              1.910              2.758
 Vibration    11          0.618              1.903              2.676
 Vibration    12          0.628              1.871              2.365
 Vibration    13          0.638              1.839              2.126
 Vibration    14          0.662              1.764              1.736
 Vibration    15          0.667              1.749              1.674
 Vibration    16          0.675              1.727              1.591
 Vibration    17          0.686              1.693              1.475
 Vibration    18          0.688              1.688              1.460
 Vibration    19          0.703              1.644              1.332
 Vibration    20          0.720              1.596              1.212
 Vibration    21          0.746              1.524              1.061
 Vibration    22          0.762              1.479              0.978
 Vibration    23          0.766              1.471              0.964
 Vibration    24          0.792              1.402              0.854
 Vibration    25          0.812              1.354              0.786
 Vibration    26          0.836              1.295              0.711
 Vibration    27          0.874              1.208              0.612
 Vibration    28          0.899              1.152              0.556
 Vibration    29          0.909              1.131              0.536
 Vibration    30          0.911              1.128              0.533
 Vibration    31          0.947              1.054              0.468
 Vibration    32          0.965              1.019              0.439
 Vibration    33          0.980              0.990              0.416

 Optimization completed.
    -- Stationary point found.
 Normal termination of Gaussian 16 at Sat Dec 12 17:28:55 2020.

 ----------------------------------------------------------------------
 # B3LYP/6-311++G(d,p) empiricaldispersion=gd3bj scf=xqc pop=npa geom=c
 heck
 ----------------------------------------------------------------------

 ---------------------------------------
 CID_43116945_JID_10904_Energie_neutraal
 ---------------------------------------
 Structure from the checkpoint file:  "JID_10904.chk"
 Charge =  0 Multiplicity = 1

 SCF Done:  E(RB3LYP) =  -1278.00864111     A.U. after   17 cycles
 Normal termination of Gaussian 16 at Sat Dec 12 17:38:06 2020.

 ----------------------------------------------------------------------
 # B3LYP/6-311++G(d,p) empiricaldispersion=gd3bj scf=xqc pop=npa geom=c
 heck
 ----------------------------------------------------------------------

 -------------------------------------
 CID_43116945_JID_10904_Energie_kation
 -------------------------------------
 Structure from the checkpoint file:  "JID_10904.chk"
 Charge =  1 Multiplicity = 2

 SCF Done:  E(UB3LYP) =  -1277.72981419     A.U. after   30 cycles
 Normal termination of Gaussian 16 at Sat Dec 12 17:59:50 2020.
 Gaussian 16:  ES64L-G16RevA.03 25-Dec-2016

 ----------------------------------------------------------------------
 # B3LYP/6-311++G(d,p) empiricaldispersion=gd3bj scf=xqc pop=npa geom=c
 heck
 ----------------------------------------------------------------------

 ------------------------------------
 CID_43116945_JID_10904_Energie_anion
 ------------------------------------
 Structure from the checkpoint file:  "JID_10904.chk"
 Charge = -1 Multiplicity = 2

                         Standard orientation:
 ---------------------------------------------------------------------
 Center     Atomic      Atomic             Coordinates (Angstroms)
 Number     Number       Type             X           Y           Z
 ---------------------------------------------------------------------
      1          6           0        1.718589   -2.926149   -0.552496
      2          6           0        2.165120   -1.590487    0.021786
      3          6           0        2.255274   -0.538739   -1.099788
      4          8           0        1.423260   -0.501758   -2.000285
      5          7           0        3.311015    0.326692   -1.064888
      6          6           0        4.289117    0.496905   -0.027957
      7          6           0        4.500615    1.891118    0.509848
      8          6           0        3.838170    0.850684    1.369744
      9          8           0        1.301046   -1.137319    1.095621
     10          6           0       -0.011132   -0.865692    0.790023
     11          6           0       -0.376578    0.432768    0.377666
     12          6           0       -1.706858    0.715077    0.090506
     13          6           0       -2.692057   -0.275519    0.222971
     14          6           0       -2.327878   -1.551322    0.675313
     15          6           0       -0.993166   -1.835234    0.960785
     16          6           0       -4.102638    0.049108   -0.108993
     17         16           0       -4.762060    1.577504    0.025911
     18          7           0       -4.849580   -1.004287   -0.515099
     19          8           0        0.635301    1.338640    0.298057
     20          6           0        0.422666    2.489087   -0.509594
     21          1           0        0.775546   -2.814172   -1.090989
     22          1           0        1.605099   -3.660256    0.250826
     23          1           0        2.468624   -3.294511   -1.260885
     24          1           0        3.128571   -1.693751    0.521607
     25          1           0        3.328023    0.970795   -1.847423
     26          1           0        5.178084   -0.126165   -0.124394
     27          1           0        5.518006    2.196208    0.735378
     28          1           0        3.872716    2.678364    0.101828
     29          1           0        2.768847    0.924666    1.527308
     30          1           0        4.400451    0.425532    2.195886
     31          1           0       -2.015280    1.699390   -0.237036
     32          1           0       -3.083626   -2.309731    0.851854
     33          1           0       -0.695403   -2.812997    1.323695
     34          1           0       -4.410075   -1.857469   -0.832417
     35          1           0       -5.804431   -0.826965   -0.795482
     36          1           0        0.111928    2.195522   -1.518556
     37          1           0       -0.322211    3.161836   -0.068545
     38          1           0        1.385724    3.000665   -0.553333
 ---------------------------------------------------------------------

 SCF Done:  E(UB3LYP) =  -1278.02145360     A.U. after   30 cycles

 The electronic state is 2-A.
 Alpha  occ. eigenvalues --  -88.63982 -19.04249 -19.03192 -18.99565 -14.25216
 Alpha  occ. eigenvalues --  -14.20042 -10.17832 -10.13772 -10.13729 -10.12192
 Alpha  occ. eigenvalues --  -10.10678 -10.10226 -10.09162 -10.09157 -10.08961
 Alpha  occ. eigenvalues --  -10.06967 -10.05069 -10.04511 -10.04294 -10.03620
 Alpha  occ. eigenvalues --   -7.72757  -5.69107  -5.68662  -5.68328  -0.96648
 Alpha  occ. eigenvalues --   -0.94953  -0.93436  -0.85005  -0.80369  -0.76160
 Alpha  occ. eigenvalues --   -0.72784  -0.67993  -0.64102  -0.63110  -0.58880
 Alpha  occ. eigenvalues --   -0.58398  -0.56647  -0.54390  -0.52826  -0.50747
 Alpha  occ. eigenvalues --   -0.48188  -0.46547  -0.44986  -0.44125  -0.42204
 Alpha  occ. eigenvalues --   -0.41471  -0.41087  -0.39651  -0.39187  -0.37556
 Alpha  occ. eigenvalues --   -0.36652  -0.34816  -0.34479  -0.33063  -0.32599
 Alpha  occ. eigenvalues --   -0.32303  -0.31246  -0.30533  -0.29429  -0.29023
 Alpha  occ. eigenvalues --   -0.28389  -0.27809  -0.26826  -0.25246  -0.24613
 Alpha  occ. eigenvalues --   -0.24249  -0.23705  -0.22838  -0.22541  -0.20988
 Alpha  occ. eigenvalues --   -0.19390  -0.18652  -0.16905  -0.15538  -0.12937
 Alpha  occ. eigenvalues --   -0.10701  -0.08961  -0.06579   0.03396
 Alpha virt. eigenvalues --    0.04827   0.06669   0.07462   0.07881   0.08513
 Alpha virt. eigenvalues --    0.08962   0.09045   0.10143   0.10264   0.10983
 Alpha virt. eigenvalues --    0.11272   0.11513   0.12033   0.12531   0.12829

  Beta  occ. eigenvalues --  -88.63931 -19.04259 -19.03188 -18.99553 -14.25215
  Beta  occ. eigenvalues --  -14.19917 -10.17819 -10.13761 -10.13678 -10.12191
  Beta  occ. eigenvalues --  -10.10730 -10.10220 -10.09157 -10.08894 -10.08471
  Beta  occ. eigenvalues --  -10.06966 -10.05131 -10.04433 -10.04178 -10.03474
  Beta  occ. eigenvalues --   -7.72712  -5.69093  -5.68489  -5.68299  -0.96626
  Beta  occ. eigenvalues --   -0.94932  -0.93371  -0.84989  -0.79884  -0.76143
  Beta  occ. eigenvalues --   -0.72568  -0.67873  -0.63999  -0.62762  -0.58641
  Beta  occ. eigenvalues --   -0.58074  -0.56512  -0.54354  -0.52782  -0.50497
  Beta  occ. eigenvalues --   -0.48107  -0.46332  -0.44768  -0.44039  -0.42124
  Beta  occ. eigenvalues --   -0.41439  -0.40930  -0.39549  -0.39069  -0.37459
  Beta  occ. eigenvalues --   -0.36639  -0.34736  -0.34434  -0.32951  -0.32550
  Beta  occ. eigenvalues --   -0.32123  -0.31119  -0.30446  -0.29388  -0.28975
  Beta  occ. eigenvalues --   -0.28273  -0.27574  -0.26570  -0.24820  -0.24467
  Beta  occ. eigenvalues --   -0.24094  -0.23079  -0.22568  -0.22316  -0.20548
  Beta  occ. eigenvalues --   -0.19004  -0.18593  -0.16866  -0.15491  -0.12123
  Beta  occ. eigenvalues --   -0.09890  -0.07913  -0.06366
  Beta virt. eigenvalues --    0.05267   0.06696   0.07423   0.07868   0.08467
  Beta virt. eigenvalues --    0.08598   0.08993   0.09208   0.10080   0.10296
  Beta virt. eigenvalues --    0.10989   0.11259   0.11730   0.12089   0.12568

 Mulliken charges and spin densities:
               1          2
     1  C   -0.559432  -0.081624
     2  C    0.151733  -0.008158
     3  C   -0.268493  -0.051214
     4  O   -0.256774   0.001496
     5  N   -0.075900  -0.018226
     6  C   -0.158759   0.010300
     7  C   -0.107105  -0.391974
     8  C   -0.113166  -0.122722
     9  O   -0.022599   0.002260
    10  C    0.114877   0.199872
    11  C   -0.190543  -0.028442
    12  C   -0.126007   0.054861
    13  C    1.070364  -0.022062
    14  C   -0.580487   0.115375
    15  C   -0.276836   0.016012
    16  C   -0.386263   0.217767
    17  S   -0.893075   0.168135
    18  N   -0.182895   0.081576
    19  O   -0.054531   0.002159
    20  C   -0.321626  -0.002318
    21  H    0.217890  -0.007242
    22  H    0.122383   0.029652
    23  H    0.088596   0.032466
    24  H    0.150569   0.076105
    25  H    0.273319   0.002469
    26  H   -0.231918   0.457139
    27  H    0.000357   0.144402
    28  H    0.132851  -0.009424
    29  H    0.282348   0.001054
    30  H    0.054311   0.098323
    31  H    0.048349  -0.008815
    32  H    0.111330   0.025411
    33  H    0.126158  -0.001234
    34  H    0.206084   0.011364
    35  H    0.242715  -0.003201
    36  H    0.164098   0.001027
    37  H    0.155851   0.003444
    38  H    0.092226   0.003988
 Sum of Mulliken charges =  -1.00000   1.00000

 Dipole moment (field-independent basis, Debye):
    X=              9.3753    Y=             -2.3159    Z=             -1.2742  Tot=              9.7408
 Quadrupole moment (field-independent basis, Debye-Ang):
   XX=           -214.6691   YY=           -138.0663   ZZ=           -147.2160
   XY=             25.8811   XZ=              2.0558   YZ=             -2.0673

 Summary of Natural Population Analysis:

                                       Natural Population
                Natural  -----------------------------------------------
    Atom  No    Charge         Core      Valence    Rydberg      Total
 -----------------------------------------------------------------------
      C    1   -0.30171      0.99965     2.29447    0.00759     3.30171
      C    2    0.03801      0.99950     1.94897    0.01352     2.96199
      C    3    0.33735      0.99965     1.63696    0.02603     2.66265
      O    4   -0.31657      0.99988     3.31111    0.00558     4.31657
      N    5   -0.31848      0.99965     2.80848    0.01035     3.81848
      C    6   -0.02677      0.99958     2.01413    0.01306     3.02677
      C    7   -0.19983      0.99962     2.19288    0.00734     3.19983
      C    8   -0.20135      0.99961     2.19154    0.01020     3.20135
      O    9   -0.29036      0.99987     3.28097    0.00952     4.29036
      C   10    0.17005      0.99933     1.81605    0.01458     2.82995
      C   11    0.13354      0.99934     1.85365    0.01346     2.86646
      C   12   -0.08807      0.99949     2.08024    0.00834     3.08807
      C   13   -0.03704      0.99947     2.02672    0.01085     3.03704
      C   14   -0.08552      0.99953     2.07665    0.00933     3.08552
      C   15   -0.13175      0.99953     2.12431    0.00791     3.13175
      C   16    0.13612      0.99960     1.84668    0.01760     2.86388
      S   17   -0.13542      4.99956     3.12112    0.01474     8.13542
      N   18   -0.37390      0.99968     2.86350    0.01071     3.87390
      O   19   -0.28185      0.99985     3.27176    0.01023     4.28185
      C   20   -0.09982      0.99961     2.09253    0.00769     3.09982
      H   21    0.11632      0.00000     0.38278    0.00091     0.38368
      H   22    0.09989      0.00000     0.39915    0.00096     0.40011
      H   23    0.09950      0.00000     0.39979    0.00071     0.40050
      H   24    0.09355      0.00000     0.40474    0.00172     0.40645
      H   25    0.19001      0.00000     0.30761    0.00238     0.30999
      H   26    0.09674      0.00000     0.40177    0.00148     0.40326
      H   27    0.10206      0.00000     0.39708    0.00086     0.39794
      H   28    0.10254      0.00000     0.39650    0.00096     0.39746
      H   29    0.12721      0.00000     0.37128    0.00150     0.37279
      H   30    0.10173      0.00000     0.39735    0.00092     0.39827
      H   31    0.11280      0.00000     0.38603    0.00116     0.38720
      H   32    0.09490      0.00000     0.40379    0.00131     0.40510
      H   33    0.09768      0.00000     0.40100    0.00132     0.40232
      H   34    0.18675      0.00000     0.31185    0.00140     0.31325
      H   35    0.19088      0.00000     0.30744    0.00168     0.30912
      H   36    0.09216      0.00000     0.40678    0.00106     0.40784
      H   37    0.08561      0.00000     0.41329    0.00110     0.41439
      H   38    0.08302      0.00000     0.41616    0.00082     0.41698
 =======================================================================
   * Total *   -0.00000     23.99199    53.75710    0.25091    78.00000

 Normal termination of Gaussian 16 at Sat Dec 12 18:21:36 2020.
