 Gaussian 16, Revision A.03,

 -----------------------------------------------------------
 # opt freq B3LYP/6-31G(d) empiricaldispersion=gd3bj scf=xqc
 -----------------------------------------------------------

 ------------------------------
 CID_66748576_JID_9797_neutraal
 ------------------------------
 Symbolic Z-matrix:
 Charge =  0 Multiplicity = 1

 SCF Done:  E(RB3LYP) =  -1238.39119524     A.U. after   15 cycles
 SCF Done:  E(RB3LYP) =  -1238.39671749     A.U. after   12 cycles
 SCF Done:  E(RB3LYP) =  -1238.39747517     A.U. after   12 cycles
 SCF Done:  E(RB3LYP) =  -1238.39774411     A.U. after   12 cycles
 SCF Done:  E(RB3LYP) =  -1238.39784803     A.U. after   12 cycles
 SCF Done:  E(RB3LYP) =  -1238.39790300     A.U. after   12 cycles
 SCF Done:  E(RB3LYP) =  -1238.39793355     A.U. after   11 cycles
 SCF Done:  E(RB3LYP) =  -1238.39794015     A.U. after   10 cycles
 SCF Done:  E(RB3LYP) =  -1238.39794319     A.U. after    8 cycles
 SCF Done:  E(RB3LYP) =  -1238.39794440     A.U. after    8 cycles
 SCF Done:  E(RB3LYP) =  -1238.39794517     A.U. after    8 cycles
 SCF Done:  E(RB3LYP) =  -1238.39794533     A.U. after    8 cycles
 SCF Done:  E(RB3LYP) =  -1238.39794538     A.U. after    7 cycles
 Optimization completed.
    -- Stationary point found.
 Normal termination of Gaussian 16 at Sat Dec 12 10:04:25 2020.

 --------------------------------------------------------------------
 #N Geom=AllCheck Guess=TCheck SCRF=Check GenChk RB3LYP/6-31G(d) Freq
 --------------------------------------------------------------------

 Structure from the checkpoint file:  "JID_9797.chk"
 ------------------------------
 CID_66748576_JID_9797_neutraal
 ------------------------------
 Charge =  0 Multiplicity = 1

 SCF Done:  E(RB3LYP) =  -1238.39794538     A.U. after    1 cycles

  Exact polarizability: 239.222   2.170 134.275  -0.341  -1.422 141.423
 Approx polarizability: 306.598   8.298 215.736  -3.476  -3.862 257.183

                      1                      2                      3
                      A                      A                      A
 Frequencies --     32.5225                45.5087                50.8070
 Red. masses --      4.3459                 4.6550                 4.5343
 Frc consts  --      0.0027                 0.0057                 0.0069
 IR Inten    --      1.7737                 0.6093                 1.2957

                      4                      5                      6
                      A                      A                      A
 Frequencies --     60.0282               117.0641               136.7078
 Red. masses --      4.0418                 3.0316                 4.9269
 Frc consts  --      0.0086                 0.0245                 0.0543
 IR Inten    --      0.4454                 0.2972                 0.3990

                      7                      8                      9
                      A                      A                      A
 Frequencies --    163.9575               181.6826               214.1438
 Red. masses --      6.2460                 4.9217                 5.2617
 Frc consts  --      0.0989                 0.0957                 0.1422
 IR Inten    --      0.6418                 1.6390                 0.4627

                     10                     11                     12
                      A                      A                      A
 Frequencies --    249.9248               261.3000               286.6426
 Red. masses --      4.9030                 3.2694                 3.8643
 Frc consts  --      0.1804                 0.1315                 0.1871
 IR Inten    --      4.9514                 3.3922                 3.0524

                     13                     14                     15
                      A                      A                      A
 Frequencies --    302.5719               331.3163               352.4568
 Red. masses --      5.1949                 2.5235                 3.6251
 Frc consts  --      0.2802                 0.1632                 0.2653
 IR Inten    --      5.2763                 1.0107                 4.4669

                     16                     17                     18
                      A                      A                      A
 Frequencies --    370.7412               408.7753               423.8851
 Red. masses --      1.1640                 4.5205                 3.1919
 Frc consts  --      0.0943                 0.4450                 0.3379
 IR Inten    --    113.5521                 4.7626                 0.6747

                     19                     20                     21
                      A                      A                      A
 Frequencies --    427.7924               462.2181               484.2067
 Red. masses --      4.4910                 3.2713                 5.8191
 Frc consts  --      0.4842                 0.4118                 0.8038
 IR Inten    --     16.2987                 1.7228                18.9252

                     22                     23                     24
                      A                      A                      A
 Frequencies --    488.8412               506.7349               544.8396
 Red. masses --      4.5838                 5.1539                 3.3620
 Frc consts  --      0.6454                 0.7797                 0.5880
 IR Inten    --      5.1713                37.6051                25.6392

                     25                     26                     27
                      A                      A                      A
 Frequencies --    563.9870               572.2961               614.9696
 Red. masses --      2.8147                 4.9462                 4.6508
 Frc consts  --      0.5275                 0.9545                 1.0363
 IR Inten    --      5.8836                23.2658                13.4777

                     28                     29                     30
                      A                      A                      A
 Frequencies --    649.1625               676.5026               701.1704
 Red. masses --      5.4695                 3.7566                 4.2359
 Frc consts  --      1.3580                 1.0129                 1.2270
 IR Inten    --      1.0418                12.6641                33.3525

                     31                     32                     33
                      A                      A                      A
 Frequencies --    721.3590               749.2945               803.1065
 Red. masses --      4.5168                 4.4157                 5.5022
 Frc consts  --      1.3848                 1.4607                 2.0909
 IR Inten    --     20.7052                14.4404               126.7910

                     34                     35                     36
                      A                      A                      A
 Frequencies --    811.7216               826.4525               846.1606
 Red. masses --      1.4130                 4.4944                 1.4353
 Frc consts  --      0.5485                 1.8087                 0.6055
 IR Inten    --     23.4888                20.9579                 2.3552

                     37                     38                     39
                      A                      A                      A
 Frequencies --    849.8835               884.3897               904.2607
 Red. masses --      1.5913                 4.6296                 2.5426
 Frc consts  --      0.6772                 2.1335                 1.2249
 IR Inten    --     29.6471                 0.1665                 4.3904

                     40                     41                     42
                      A                      A                      A
 Frequencies --    931.3856               944.4615               963.4346
 Red. masses --      1.3329                 1.4316                 1.8146
 Frc consts  --      0.6813                 0.7524                 0.9924
 IR Inten    --      0.3297                 0.6686                 1.5306

                     43                     44                     45
                      A                      A                      A
 Frequencies --    968.5043               987.3197              1018.0241
 Red. masses --      1.4518                 2.5239                 1.8183
 Frc consts  --      0.8023                 1.4495                 1.1103
 IR Inten    --      0.6491                29.3936                 7.5178

                     46                     47                     48
                      A                      A                      A
 Frequencies --   1037.0024              1079.6570              1098.1582
 Red. masses --      2.6724                 2.4029                 2.3434
 Frc consts  --      1.6932                 1.6503                 1.6650
 IR Inten    --      1.0193                 3.5289                 1.6492

                     49                     50                     51
                      A                      A                      A
 Frequencies --   1125.3735              1132.6626              1144.5046
 Red. masses --      3.2223                 2.7787                 1.7031
 Frc consts  --      2.4044                 2.1004                 1.3144
 IR Inten    --    129.6119                84.6800                21.3837

                     52                     53                     54
                      A                      A                      A
 Frequencies --   1148.3157              1179.0452              1211.0283
 Red. masses --      2.5134                 1.9262                 1.4529
 Frc consts  --      1.9527                 1.5776                 1.2554
 IR Inten    --     19.6358                35.9506                22.0417

                     55                     56                     57
                      A                      A                      A
 Frequencies --   1211.6336              1213.3664              1214.6405
 Red. masses --      1.3644                 1.3503                 1.2623
 Frc consts  --      1.1802                 1.1713                 1.0972
 IR Inten    --    179.3460                25.1272                16.8513

                     58                     59                     60
                      A                      A                      A
 Frequencies --   1232.0076              1258.5234              1293.3029
 Red. masses --      1.8165                 1.7597                 1.9336
 Frc consts  --      1.6244                 1.6421                 1.9055
 IR Inten    --      2.9294                 7.0419                32.4547

                     61                     62                     63
                      A                      A                      A
 Frequencies --   1300.9575              1317.0562              1318.0442
 Red. masses --      1.2568                 1.5612                 2.7461
 Frc consts  --      1.2532                 1.5955                 2.8108
 IR Inten    --      5.8281                27.6573               112.3803

                     64                     65                     66
                      A                      A                      A
 Frequencies --   1324.5409              1339.8763              1360.6836
 Red. masses --      2.3658                 1.8524                 1.5863
 Frc consts  --      2.4454                 1.9593                 1.7304
 IR Inten    --     63.8690                89.2392                18.9538

                     67                     68                     69
                      A                      A                      A
 Frequencies --   1375.0758              1384.2717              1391.5687
 Red. masses --      1.4360                 1.4848                 2.6696
 Frc consts  --      1.5998                 1.6763                 3.0458
 IR Inten    --      9.9197                18.1731                43.9959

                     70                     71                     72
                      A                      A                      A
 Frequencies --   1397.4895              1410.5535              1411.5445
 Red. masses --      1.7040                 1.4984                 1.4646
 Frc consts  --      1.9607                 1.7565                 1.7193
 IR Inten    --     46.6477                 4.4696                22.9068

                     73                     74                     75
                      A                      A                      A
 Frequencies --   1481.5096              1493.6448              1501.2456
 Red. masses --      1.7395                 2.5967                 1.1498
 Frc consts  --      2.2494                 3.4132                 1.5268
 IR Inten    --     34.8644                31.4670                 8.1737

                     76                     77                     78
                      A                      A                      A
 Frequencies --   1518.2491              1519.9767              1530.9549
 Red. masses --      1.0867                 1.1100                 1.1619
 Frc consts  --      1.4759                 1.5110                 1.6045
 IR Inten    --      7.3624                 0.7677                15.7320

                     79                     80                     81
                      A                      A                      A
 Frequencies --   1550.0879              1569.9232              1643.7057
 Red. masses --      1.2249                 2.6694                 5.0172
 Frc consts  --      1.7340                 3.8764                 7.9866
 IR Inten    --     55.6284               107.5177               404.8191

                     82                     83                     84
                      A                      A                      A
 Frequencies --   1650.5443              1680.4473              3007.9776
 Red. masses --      5.7574                 5.9079                 1.0709
 Frc consts  --      9.2413                 9.8295                 5.7090
 IR Inten    --     23.0908                60.6365                38.3598

                     85                     86                     87
                      A                      A                      A
 Frequencies --   3041.6563              3047.9540              3051.1059
 Red. masses --      1.0723                 1.0671                 1.0611
 Frc consts  --      5.8452                 5.8410                 5.8202
 IR Inten    --      5.3662                14.9737                16.6987

                     88                     89                     90
                      A                      A                      A
 Frequencies --   3054.5472              3083.5456              3090.5379
 Red. masses --      1.0616                 1.0926                 1.0892
 Frc consts  --      5.8359                 6.1211                 6.1298
 IR Inten    --     30.9133                28.6726                13.8457

                     91                     92                     93
                      A                      A                      A
 Frequencies --   3100.2746              3103.0389              3104.5485
 Red. masses --      1.0970                 1.0985                 1.1044
 Frc consts  --      6.2123                 6.2319                 6.2717
 IR Inten    --     40.3129                10.8987                38.8422

                     94                     95                     96
                      A                      A                      A
 Frequencies --   3144.9464              3171.5195              3194.9048
 Red. masses --      1.0924                 1.0882                 1.0936
 Frc consts  --      6.3659                 6.4488                 6.5768
 IR Inten    --      4.6839                21.4677                12.7538

                     97                     98                     99
                      A                      A                      A
 Frequencies --   3216.4874              3233.2478              3750.5457
 Red. masses --      1.0889                 1.0939                 1.0659
 Frc consts  --      6.6372                 6.7374                 8.8341
 IR Inten    --      5.5085                 1.6537                53.7904

 - Thermochemistry -
 -------------------
 Temperature   298.150 Kelvin.  Pressure   1.00000 Atm.
 Atom     1 has atomic number  6 and mass  12.00000

 Molecular mass:   280.08816 amu.
 Principal axes and moments of inertia in atomic units:
                           1         2         3
     Eigenvalues --  2237.355769692.14402**********
           X            0.99995  -0.01023   0.00199
           Y            0.01024   0.99993  -0.00565
           Z           -0.00193   0.00567   0.99998
 This molecule is an asymmetric top.
 Rotational symmetry number  1.
 Warning -- assumption of classical behavior for rotation
           may cause significant error
 Rotational temperatures (Kelvin)      0.03871     0.00894     0.00803
 Rotational constants (GHZ):           0.80664     0.18621     0.16742
 Zero-point vibrational energy     749702.8 (Joules/Mol)
                                  179.18328 (Kcal/Mol)
 Warning -- explicit consideration of  27 degrees of freedom as
           vibrations may cause significant error
 Vibrational temperatures:     46.79    65.48    73.10    86.37   168.43
          (Kelvin)            196.69   235.90   261.40   308.11   359.59
                              375.95   412.41   435.33   476.69   507.11
                              533.41   588.14   609.88   615.50   665.03
                              696.67   703.33   729.08   783.90   811.45
                              823.41   884.80   934.00   973.34  1008.83
                             1037.87  1078.07  1155.49  1167.89  1189.08
                             1217.44  1222.79  1272.44  1301.03  1340.06
                             1358.87  1386.17  1393.46  1420.53  1464.71
                             1492.02  1553.39  1580.00  1619.16  1629.65
                             1646.69  1652.17  1696.38  1742.40  1743.27
                             1745.76  1747.60  1772.58  1810.73  1860.77
                             1871.79  1894.95  1896.37  1905.72  1927.78
                             1957.72  1978.43  1991.66  2002.16  2010.68
                             2029.47  2030.90  2131.56  2149.02  2159.96
                             2184.42  2186.91  2202.70  2230.23  2258.77
                             2364.93  2374.77  2417.79  4327.81  4376.27
                             4385.33  4389.86  4394.81  4436.53  4446.59
                             4460.60  4464.58  4466.75  4524.88  4563.11
                             4596.76  4627.81  4651.92  5396.20

 Zero-point correction=                           0.285547 (Hartree/Particle)
 Thermal correction to Energy=                    0.301991
 Thermal correction to Enthalpy=                  0.302935
 Thermal correction to Gibbs Free Energy=         0.240669
 Sum of electronic and zero-point Energies=          -1238.112399
 Sum of electronic and thermal Energies=             -1238.095954
 Sum of electronic and thermal Enthalpies=           -1238.095010
 Sum of electronic and thermal Free Energies=        -1238.157277

                     E (Thermal)             CV                S
                      KCal/Mol        Cal/Mol-Kelvin    Cal/Mol-Kelvin
 Total                  189.502             64.914            131.051
 Electronic               0.000              0.000              0.000
 Translational            0.889              2.981             42.788
 Rotational               0.889              2.981             33.813
 Vibrational            187.725             58.953             54.450
 Vibration     1          0.594              1.983              5.669
 Vibration     2          0.595              1.979              5.004
 Vibration     3          0.595              1.977              4.786
 Vibration     4          0.597              1.973              4.456
 Vibration     5          0.608              1.935              3.148
 Vibration     6          0.614              1.917              2.849
 Vibration     7          0.623              1.887              2.504
 Vibration     8          0.630              1.865              2.311
 Vibration     9          0.644              1.819              2.008
 Vibration    10          0.663              1.763              1.731
 Vibration    11          0.669              1.744              1.653
 Vibration    12          0.684              1.699              1.494
 Vibration    13          0.694              1.669              1.403
 Vibration    14          0.714              1.613              1.254
 Vibration    15          0.729              1.570              1.155
 Vibration    16          0.743              1.532              1.077
 Vibration    17          0.773              1.451              0.931
 Vibration    18          0.786              1.418              0.879
 Vibration    19          0.789              1.410              0.866
 Vibration    20          0.820              1.334              0.760
 Vibration    21          0.840              1.285              0.699
 Vibration    22          0.845              1.275              0.687
 Vibration    23          0.862              1.235              0.641
 Vibration    24          0.900              1.151              0.555
 Vibration    25          0.920              1.109              0.516
 Vibration    26          0.928              1.091              0.500
 Vibration    27          0.974              1.000              0.425

 Optimization completed.
    -- Stationary point found.
 Normal termination of Gaussian 16 at Sat Dec 12 10:21:25 2020.

 ----------------------------------------------------------------------
 # B3LYP/6-311++G(d,p) empiricaldispersion=gd3bj scf=xqc pop=npa geom=c
 heck
 ----------------------------------------------------------------------

 --------------------------------------
 CID_66748576_JID_9797_Energie_neutraal
 --------------------------------------
 Structure from the checkpoint file:  "JID_9797.chk"
 Charge =  0 Multiplicity = 1

 SCF Done:  E(RB3LYP) =  -1238.65961683     A.U. after   16 cycles
 Normal termination of Gaussian 16 at Sat Dec 12 10:29:40 2020.

 ----------------------------------------------------------------------
 # B3LYP/6-311++G(d,p) empiricaldispersion=gd3bj scf=xqc pop=npa geom=c
 heck
 ----------------------------------------------------------------------

 ------------------------------------
 CID_66748576_JID_9797_Energie_kation
 ------------------------------------
 Structure from the checkpoint file:  "JID_9797.chk"
 Charge =  1 Multiplicity = 2

 SCF Done:  E(UB3LYP) =  -1238.36358803     A.U. after   27 cycles
 Normal termination of Gaussian 16 at Sat Dec 12 10:48:43 2020.
 Gaussian 16:  ES64L-G16RevA.03 25-Dec-2016

 ----------------------------------------------------------------------
 # B3LYP/6-311++G(d,p) empiricaldispersion=gd3bj scf=xqc pop=npa geom=c
 heck
 ----------------------------------------------------------------------

 -----------------------------------
 CID_66748576_JID_9797_Energie_anion
 -----------------------------------
 Structure from the checkpoint file:  "JID_9797.chk"
 Charge = -1 Multiplicity = 2

                         Standard orientation:
 ---------------------------------------------------------------------
 Center     Atomic      Atomic             Coordinates (Angstroms)
 Number     Number       Type             X           Y           Z
 ---------------------------------------------------------------------
      1          6           0        4.881763   -0.599530    0.170236
      2          6           0        4.264308   -1.952692   -0.171481
      3          6           0        2.835174   -2.015137    0.350852
      4          7           0        2.021404   -0.844450   -0.019323
      5          6           0        0.591307   -1.031421    0.242997
      6          6           0       -0.279264   -0.002972   -0.475750
      7         16           0        0.291272    1.628216    0.121122
      8          8           0       -0.284618    2.676928   -0.717996
      9          8           0        0.102264    1.657334    1.581457
     10          7           0        1.927326    1.543598   -0.211616
     11          6           0        2.558256    0.403209   -0.185822
     12          6           0        4.044487    0.499245   -0.482867
     13          6           0       -1.753081   -0.222268   -0.279239
     14          6           0       -2.582237   -0.395655   -1.390953
     15          6           0       -3.948838   -0.617672   -1.241798
     16          6           0       -4.507945   -0.661850    0.038486
     17          6           0       -3.693003   -0.478322    1.160647
     18          6           0       -2.330970   -0.257885    0.999819
     19          8           0       -5.838388   -0.877969    0.255847
     20          1           0        5.917703   -0.537526   -0.178910
     21          1           0        4.899819   -0.462480    1.259597
     22          1           0        4.266190   -2.095293   -1.259742
     23          1           0        4.831709   -2.780568    0.267502
     24          1           0        2.324153   -2.900890   -0.041565
     25          1           0        2.841203   -2.106936    1.448171
     26          1           0        0.395329   -0.994652    1.322328
     27          1           0        0.313987   -2.028905   -0.112993
     28          1           0       -0.037593    0.000983   -1.543237
     29          1           0        4.155873    0.442814   -1.574718
     30          1           0        4.361444    1.500026   -0.184530
     31          1           0       -2.156471   -0.353978   -2.389893
     32          1           0       -4.579417   -0.750708   -2.118476
     33          1           0       -4.145520   -0.498805    2.146366
     34          1           0       -1.714660   -0.075985    1.872860
     35          1           0       -6.289028   -0.955218   -0.599363
 ---------------------------------------------------------------------

 SCF Done:  E(UB3LYP) =  -1238.65962795     A.U. after   33 cycles
 SCF Done:  E(UB3LYP) =  -1238.65962795     a.u. after    1 cycles

 The electronic state is 2-A.
 Alpha  occ. eigenvalues --  -88.95574 -19.07661 -19.01502 -19.01495 -14.27542
 Alpha  occ. eigenvalues --  -14.21532 -10.18080 -10.16048 -10.14240 -10.13346
 Alpha  occ. eigenvalues --  -10.13046 -10.10702 -10.10338 -10.09895 -10.09772
 Alpha  occ. eigenvalues --  -10.09641 -10.09466 -10.09124 -10.09069  -8.01825
 Alpha  occ. eigenvalues --   -5.98072  -5.98042  -5.97951  -1.01539  -0.98766
 Alpha  occ. eigenvalues --   -0.90845  -0.90290  -0.81408  -0.78794  -0.74778
 Alpha  occ. eigenvalues --   -0.71563  -0.67691  -0.67441  -0.65408  -0.59731
 Alpha  occ. eigenvalues --   -0.58250  -0.56705  -0.55180  -0.52516  -0.49530
 Alpha  occ. eigenvalues --   -0.47330  -0.45779  -0.45415  -0.42655  -0.41100
 Alpha  occ. eigenvalues --   -0.40655  -0.39735  -0.38755  -0.36884  -0.36623
 Alpha  occ. eigenvalues --   -0.36288  -0.35164  -0.34945  -0.34544  -0.33748
 Alpha  occ. eigenvalues --   -0.33327  -0.32700  -0.31691  -0.30140  -0.29530
 Alpha  occ. eigenvalues --   -0.27144  -0.26819  -0.26710  -0.26548  -0.25806
 Alpha  occ. eigenvalues --   -0.25522  -0.24153  -0.22595  -0.21944  -0.20844
 Alpha  occ. eigenvalues --   -0.18569  -0.18162  -0.15707  -0.14622   0.02983
 Alpha virt. eigenvalues --    0.04054   0.05792   0.06316   0.06534   0.06807
 Alpha virt. eigenvalues --    0.06956   0.07677   0.07998   0.08810   0.09442
 Alpha virt. eigenvalues --    0.09956   0.10490   0.10706   0.11688   0.11797

  Beta  occ. eigenvalues --  -88.95574 -19.07622 -19.01496 -19.01493 -14.27544
  Beta  occ. eigenvalues --  -14.21490 -10.17995 -10.16048 -10.14229 -10.13340
  Beta  occ. eigenvalues --  -10.13013 -10.10700 -10.10335 -10.09894 -10.09750
  Beta  occ. eigenvalues --  -10.09638 -10.09462 -10.09095 -10.09027  -8.01825
  Beta  occ. eigenvalues --   -5.98073  -5.98042  -5.97950  -1.01526  -0.98692
  Beta  occ. eigenvalues --   -0.90804  -0.90255  -0.81331  -0.78779  -0.74741
  Beta  occ. eigenvalues --   -0.71530  -0.67673  -0.67350  -0.65375  -0.59689
  Beta  occ. eigenvalues --   -0.58187  -0.56635  -0.55139  -0.52473  -0.49451
  Beta  occ. eigenvalues --   -0.47277  -0.45739  -0.45356  -0.42615  -0.41061
  Beta  occ. eigenvalues --   -0.40621  -0.39687  -0.38699  -0.36823  -0.36597
  Beta  occ. eigenvalues --   -0.36244  -0.35113  -0.34901  -0.34491  -0.33715
  Beta  occ. eigenvalues --   -0.33293  -0.32645  -0.31626  -0.30103  -0.29498
  Beta  occ. eigenvalues --   -0.27103  -0.26771  -0.26624  -0.26511  -0.25756
  Beta  occ. eigenvalues --   -0.25457  -0.24089  -0.22550  -0.21919  -0.20816
  Beta  occ. eigenvalues --   -0.18518  -0.18149  -0.15605  -0.14590
  Beta virt. eigenvalues --    0.05365   0.05561   0.05874   0.06723   0.06994
  Beta virt. eigenvalues --    0.07108   0.07586   0.08003   0.08135   0.09051
  Beta virt. eigenvalues --    0.09775   0.10197   0.10856   0.10955   0.11877

 Mulliken charges and spin densities:
               1          2
     1  C   -0.273170   0.118051
     2  C    0.377584  -0.865693
     3  C    0.919246  -1.023274
     4  N    0.187364   0.177758
     5  C   -0.583251  -0.330924
     6  C   -0.432003  -0.114812
     7  S    0.643172  -0.050292
     8  O   -0.143753  -0.000533
     9  O   -0.176247   0.004041
    10  N   -0.116794   0.055337
    11  C    0.171875  -0.608041
    12  C   -0.660626   0.262490
    13  C    0.482055   0.009673
    14  C   -0.743813   0.639689
    15  C    0.045042  -0.054067
    16  C    1.003589  -1.430320
    17  C   -0.109079  -0.172879
    18  C   -0.255078   0.118414
    19  O   -0.254980   0.026711
    20  H   -0.366562   0.564731
    21  H    0.060769   0.074352
    22  H   -0.168059   0.340822
    23  H   -0.529697   0.715231
    24  H   -0.285620   0.433339
    25  H   -0.093820   0.271728
    26  H    0.185754   0.031531
    27  H    0.051674   0.143578
    28  H    0.168668   0.175637
    29  H   -0.109669   0.316600
    30  H    0.240111  -0.055567
    31  H    0.110204   0.028736
    32  H   -0.615324   0.783310
    33  H    0.155370   0.025055
    34  H    0.219640   0.011782
    35  H   -0.104572   0.377806
 Sum of Mulliken charges =  -1.00000   1.00000

 Dipole moment (field-independent basis, Debye):
    X=             -0.2788    Y=             -0.1647    Z=              1.4325  Tot=              1.4687
 Quadrupole moment (field-independent basis, Debye-Ang):
   XX=           -231.5995   YY=           -173.8925   ZZ=           -148.4615
   XY=             11.1175   XZ=             -3.0543   YZ=             -2.4270

 Summary of Natural Population Analysis:

                                       Natural Population
                Natural  -----------------------------------------------
    Atom  No    Charge         Core      Valence    Rydberg      Total
 -----------------------------------------------------------------------
      C    1   -0.18912      0.99963     2.18055    0.00894     3.18912
      C    2   -0.19506      0.99963     2.18643    0.00900     3.19506
      C    3   -0.07496      0.99960     2.06450    0.01085     3.07496
      N    4   -0.24649      0.99962     2.73638    0.01048     3.74649
      C    5   -0.08644      0.99958     2.07536    0.01149     3.08644
      C    6   -0.21232      0.99951     2.19581    0.01700     3.21232
      S    7    1.09368      4.99921     1.80493    0.10219     6.90632
      O    8   -0.45686      0.99990     3.45177    0.00519     4.45686
      O    9   -0.47117      0.99991     3.46571    0.00555     4.47117
      N   10   -0.39133      0.99963     2.88215    0.00956     3.89133
      C   11    0.26905      0.99958     1.71351    0.01786     2.73095
      C   12   -0.21081      0.99959     2.20101    0.01021     3.21081
      C   13   -0.04873      0.99949     2.03711    0.01213     3.04873
      C   14   -0.08017      0.99952     2.07121    0.00944     3.08017
      C   15   -0.13675      0.99952     2.12719    0.01004     3.13675
      C   16    0.16024      0.99939     1.82685    0.01352     2.83976
      C   17   -0.12233      0.99952     2.11385    0.00895     3.12233
      C   18   -0.08559      0.99952     2.07839    0.00767     3.08559
      O   19   -0.33873      0.99988     3.33204    0.00682     4.33873
      H   20    0.10491      0.00000     0.39391    0.00118     0.39509
      H   21    0.09643      0.00000     0.40239    0.00117     0.40357
      H   22    0.10045      0.00000     0.39716    0.00239     0.39955
      H   23    0.10785      0.00000     0.39011    0.00205     0.39215
      H   24    0.10094      0.00000     0.39725    0.00181     0.39906
      H   25    0.09232      0.00000     0.40624    0.00144     0.40768
      H   26    0.10459      0.00000     0.39394    0.00146     0.39541
      H   27    0.10760      0.00000     0.39119    0.00121     0.39240
      H   28    0.11887      0.00000     0.37934    0.00179     0.38113
      H   29    0.11172      0.00000     0.38693    0.00135     0.38828
      H   30    0.11377      0.00000     0.38490    0.00133     0.38623
      H   31    0.10274      0.00000     0.39632    0.00094     0.39726
      H   32    0.10398      0.00000     0.39440    0.00162     0.39602
      H   33    0.10641      0.00000     0.39278    0.00081     0.39359
      H   34    0.11318      0.00000     0.38568    0.00114     0.38682
      H   35    0.23814      0.00000     0.25576    0.00610     0.26186
 =======================================================================
   * Total *    0.00000     22.99224    50.69306    0.31470    74.00000

 Normal termination of Gaussian 16 at Sat Dec 12 11:11:34 2020.
