 Gaussian 16, Revision A.03,

 -----------------------------------------------------------
 # opt freq B3LYP/6-31G(d) empiricaldispersion=gd3bj scf=xqc
 -----------------------------------------------------------

 -------------------------------
 CID_149860743_JID_2465_neutraal
 -------------------------------
 Symbolic Z-matrix:
 Charge =  0 Multiplicity = 1

 SCF Done:  E(RB3LYP) =  -575.518418488     A.U. after   17 cycles
 SCF Done:  E(RB3LYP) =  -575.527242545     A.U. after   15 cycles
 SCF Done:  E(RB3LYP) =  -575.527536185     A.U. after   13 cycles
 SCF Done:  E(RB3LYP) =  -575.527692628     A.U. after   12 cycles
 SCF Done:  E(RB3LYP) =  -575.527725773     A.U. after   10 cycles
 Optimization completed.
    -- Stationary point found.
 Normal termination of Gaussian 16 at Wed Dec  9 17:19:04 2020.

 --------------------------------------------------------------------
 #N Geom=AllCheck Guess=TCheck SCRF=Check GenChk RB3LYP/6-31G(d) Freq
 --------------------------------------------------------------------

 Structure from the checkpoint file:  "JID_2465.chk"
 -------------------------------
 CID_149860743_JID_2465_neutraal
 -------------------------------
 Charge =  0 Multiplicity = 1

 SCF Done:  E(RB3LYP) =  -575.527725773     A.U. after    1 cycles

  Exact polarizability: 162.559  10.360  93.875   0.000   0.000  34.817
 Approx polarizability: 277.116  30.289 191.510   0.000   0.000  55.110

                      1                      2                      3
                      A                      A                      A
 Frequencies --     67.5986               110.2465               157.4494
 Red. masses --     10.3758                11.3033                13.0822
 Frc consts  --      0.0279                 0.0809                 0.1911
 IR Inten    --      0.0521                 0.5764                 3.1328

                      4                      5                      6
                      A                      A                      A
 Frequencies --    239.8046               300.0776               342.4567
 Red. masses --      6.3993                 8.7815                 8.1682
 Frc consts  --      0.2168                 0.4659                 0.5644
 IR Inten    --      3.0173                 0.8971                12.1101

                      7                      8                      9
                      A                      A                      A
 Frequencies --    439.4484               456.8266               473.1014
 Red. masses --      2.9278                11.7952                 1.2259
 Frc consts  --      0.3331                 1.4503                 0.1617
 IR Inten    --      0.6391                 1.0359               129.0572

                     10                     11                     12
                      A                      A                      A
 Frequencies --    498.7082               539.1736               628.7325
 Red. masses --      6.4512                13.7894                 9.9246
 Frc consts  --      0.9453                 2.3619                 2.3115
 IR Inten    --      4.8156                 6.7666                 1.5404

                     13                     14                     15
                      A                      A                      A
 Frequencies --    635.9879               648.7549               714.4091
 Red. masses --      8.6979                 9.6506                 7.8797
 Frc consts  --      2.0728                 2.3931                 2.3695
 IR Inten    --     11.4340                 4.3604                 2.4708

                     16                     17                     18
                      A                      A                      A
 Frequencies --    785.2670               786.1883               884.6662
 Red. masses --      8.2672                 7.1527                 5.5199
 Frc consts  --      3.0036                 2.6048                 2.5453
 IR Inten    --      6.8199                 0.3727                 4.9629

                     19                     20                     21
                      A                      A                      A
 Frequencies --    899.3433               936.8752               946.2660
 Red. masses --      1.4044                 8.3013                 1.2963
 Frc consts  --      0.6693                 4.2930                 0.6839
 IR Inten    --     11.2362                11.0356                 1.1857

                     22                     23                     24
                      A                      A                      A
 Frequencies --   1014.7304              1041.7754              1191.8835
 Red. masses --      5.2276                 4.7379                 2.0393
 Frc consts  --      3.1714                 3.0296                 1.7069
 IR Inten    --      9.0506                11.8374                 3.7346

                     25                     26                     27
                      A                      A                      A
 Frequencies --   1234.5337              1262.9923              1300.4351
 Red. masses --      6.2923                 6.5512                 2.6395
 Frc consts  --      5.6502                 6.1570                 2.6300
 IR Inten    --     26.3258                16.8665                62.4190

                     28                     29                     30
                      A                      A                      A
 Frequencies --   1303.5977              1354.0831              1414.8368
 Red. masses --      1.5124                 4.6689                 4.9991
 Frc consts  --      1.5143                 5.0438                 5.8960
 IR Inten    --     10.9706                11.0826                99.9909

                     31                     32                     33
                      A                      A                      A
 Frequencies --   1465.3152              1499.4114              1564.0860
 Red. masses --      6.2497                 2.8474                 6.0158
 Frc consts  --      7.9062                 3.7717                 8.6709
 IR Inten    --     76.9445                96.9050               412.3779

                     34                     35                     36
                      A                      A                      A
 Frequencies --   1604.6582              1657.0401              2310.3729
 Red. masses --      9.6172                 6.5953                13.9943
 Frc consts  --     14.5903                10.6696                44.0114
 IR Inten    --     40.2220                36.2580               739.5736

                     37                     38                     39
                      A                      A                      A
 Frequencies --   3194.3548              3208.6912              3656.3980
 Red. masses --      1.0919                 1.0921                 1.0809
 Frc consts  --      6.5643                 6.6248                 8.5145
 IR Inten    --     16.6936                 6.4193                88.3753

 - Thermochemistry -
 -------------------
 Temperature   298.150 Kelvin.  Pressure   1.00000 Atm.
 Atom     1 has atomic number  6 and mass  12.00000

 Molecular mass:   161.04499 amu.
 Principal axes and moments of inertia in atomic units:
                           1         2         3
     Eigenvalues --   526.494923306.976483833.47141
           X            1.00000   0.00090  -0.00000
           Y           -0.00090   1.00000  -0.00000
           Z            0.00000   0.00000   1.00000
 This molecule is an asymmetric top.
 Rotational symmetry number  1.
 Warning -- assumption of classical behavior for rotation
           may cause significant error
 Rotational temperatures (Kelvin)      0.16451     0.02619     0.02259
 Rotational constants (GHZ):           3.42784     0.54574     0.47079
 Zero-point vibrational energy     255824.9 (Joules/Mol)
                                   61.14361 (Kcal/Mol)
 Warning -- explicit consideration of  11 degrees of freedom as
           vibrations may cause significant error
 Vibrational temperatures:     97.26   158.62   226.53   345.03   431.74
          (Kelvin)            492.72   632.27   657.27   680.69   717.53
                              775.75   904.61   915.04   933.41  1027.88
                             1129.82  1131.15  1272.84  1293.95  1347.95
                             1361.47  1459.97  1498.88  1714.85  1776.22
                             1817.16  1871.04  1875.59  1948.22  2035.63
                             2108.26  2157.32  2250.37  2308.75  2384.11
                             3324.11  4595.96  4616.59  5260.74

 Zero-point correction=                           0.097439 (Hartree/Particle)
 Thermal correction to Energy=                    0.105970
 Thermal correction to Enthalpy=                  0.106914
 Thermal correction to Gibbs Free Energy=         0.063056
 Sum of electronic and zero-point Energies=           -575.430287
 Sum of electronic and thermal Energies=              -575.421756
 Sum of electronic and thermal Enthalpies=            -575.420812
 Sum of electronic and thermal Free Energies=         -575.464670

                     E (Thermal)             CV                S
                      KCal/Mol        Cal/Mol-Kelvin    Cal/Mol-Kelvin
 Total                   66.497             32.281             92.307
 Electronic               0.000              0.000              0.000
 Translational            0.889              2.981             41.138
 Rotational               0.889              2.981             30.280
 Vibrational             64.720             26.320             20.889
 Vibration     1          0.598              1.970              4.222
 Vibration     2          0.606              1.941              3.265
 Vibration     3          0.621              1.894              2.580
 Vibration     4          0.657              1.780              1.804
 Vibration     5          0.693              1.674              1.416
 Vibration     6          0.722              1.591              1.201
 Vibration     7          0.799              1.384              0.828
 Vibration     8          0.815              1.346              0.775
 Vibration     9          0.830              1.310              0.729
 Vibration    10          0.854              1.253              0.661
 Vibration    11          0.894              1.163              0.567

 Optimization completed.
    -- Stationary point found.
 Normal termination of Gaussian 16 at Wed Dec  9 17:21:45 2020.

 ----------------------------------------------------------------------
 # B3LYP/6-311++G(d,p) empiricaldispersion=gd3bj scf=xqc pop=npa geom=c
 heck
 ----------------------------------------------------------------------

 ---------------------------------------
 CID_149860743_JID_2465_Energie_neutraal
 ---------------------------------------
 Structure from the checkpoint file:  "JID_2465.chk"
 Charge =  0 Multiplicity = 1

 SCF Done:  E(RB3LYP) =  -575.678797364     A.U. after   17 cycles
 Normal termination of Gaussian 16 at Wed Dec  9 17:22:56 2020.

 ----------------------------------------------------------------------
 # B3LYP/6-311++G(d,p) empiricaldispersion=gd3bj scf=xqc pop=npa geom=c
 heck
 ----------------------------------------------------------------------

 -------------------------------------
 CID_149860743_JID_2465_Energie_kation
 -------------------------------------
 Structure from the checkpoint file:  "JID_2465.chk"
 Charge =  1 Multiplicity = 2

 SCF Done:  E(UB3LYP) =  -575.355686679     A.U. after   33 cycles
 SCF Done:  E(UB3LYP) =  -575.355686679     a.u. after    1 cycles
 Normal termination of Gaussian 16 at Wed Dec  9 17:26:24 2020.
 Gaussian 16:  ES64L-G16RevA.03 25-Dec-2016

 ----------------------------------------------------------------------
 # B3LYP/6-311++G(d,p) empiricaldispersion=gd3bj scf=xqc pop=npa geom=c
 heck
 ----------------------------------------------------------------------

 ------------------------------------
 CID_149860743_JID_2465_Energie_anion
 ------------------------------------
 Structure from the checkpoint file:  "JID_2465.chk"
 Charge = -1 Multiplicity = 2

                         Standard orientation:
 ---------------------------------------------------------------------
 Center     Atomic      Atomic             Coordinates (Angstroms)
 Number     Number       Type             X           Y           Z
 ---------------------------------------------------------------------
      1          6           0        2.343752    1.154432   -0.000006
      2          6           0        1.007533    0.759510   -0.000001
      3          6           0        0.694747   -0.612526    0.000004
      4          6           0        1.776190   -1.500646    0.000003
      5          7           0        3.037878   -1.070889   -0.000001
      6          7           0        3.319271    0.244987   -0.000006
      7          7           0       -0.676345   -0.810980    0.000009
      8          6           0       -1.168114    0.407670    0.000006
      9          7           0       -0.216348    1.402662    0.000000
     10          7           0       -2.500200    0.793737    0.000012
     11          7           0       -3.326401   -0.142184   -0.000004
     12          7           0       -4.182739   -0.883405   -0.000015
     13          1           0        2.659138    2.194798   -0.000010
     14          1           0        1.633925   -2.577743    0.000006
     15          1           0       -0.403533    2.394818   -0.000002
 ---------------------------------------------------------------------

 SCF Done:  E(UB3LYP) =  -575.694465846     A.U. after   33 cycles
 SCF Done:  E(UB3LYP) =  -575.694465846     a.u. after    1 cycles

 The electronic state is 2-A.
 Alpha  occ. eigenvalues --  -14.31583 -14.23769 -14.23301 -14.23293 -14.18988
 Alpha  occ. eigenvalues --  -14.18159 -14.15995 -10.12717 -10.08747 -10.06812
 Alpha  occ. eigenvalues --  -10.06095 -10.05397  -1.00019  -0.90247  -0.85546
 Alpha  occ. eigenvalues --   -0.83754  -0.75497  -0.67613  -0.65763  -0.56540
 Alpha  occ. eigenvalues --   -0.51430  -0.50081  -0.45581  -0.39607  -0.38903
 Alpha  occ. eigenvalues --   -0.38192  -0.35362  -0.34703  -0.32647  -0.31663
 Alpha  occ. eigenvalues --   -0.31062  -0.28383  -0.26418  -0.19469  -0.19188
 Alpha  occ. eigenvalues --   -0.17645  -0.17030  -0.14916  -0.12871  -0.09949
 Alpha  occ. eigenvalues --   -0.09006   0.04786
 Alpha virt. eigenvalues --    0.08460   0.10046   0.11505   0.11568   0.11720
 Alpha virt. eigenvalues --    0.11771   0.14014   0.15448   0.15880   0.16606
 Alpha virt. eigenvalues --    0.17851   0.18324   0.18645   0.19452   0.19932

  Beta  occ. eigenvalues --  -14.31042 -14.23671 -14.23507 -14.22740 -14.19066
  Beta  occ. eigenvalues --  -14.17941 -14.15965 -10.12293 -10.08806 -10.06780
  Beta  occ. eigenvalues --  -10.05872 -10.05175  -0.99153  -0.89919  -0.85280
  Beta  occ. eigenvalues --   -0.83501  -0.75296  -0.67302  -0.65395  -0.55935
  Beta  occ. eigenvalues --   -0.51258  -0.49856  -0.45368  -0.39387  -0.38682
  Beta  occ. eigenvalues --   -0.36078  -0.35091  -0.34317  -0.31583  -0.31313
  Beta  occ. eigenvalues --   -0.30057  -0.28287  -0.25381  -0.19166  -0.18594
  Beta  occ. eigenvalues --   -0.16970  -0.16541  -0.14838  -0.11901  -0.08865
  Beta  occ. eigenvalues --   -0.08834
  Beta virt. eigenvalues --    0.08459   0.10389   0.10886   0.11576   0.11848
  Beta virt. eigenvalues --    0.11904   0.14047   0.14158   0.15857   0.15890
  Beta virt. eigenvalues --    0.16572   0.17815   0.18472   0.18602   0.19878

 Mulliken charges and spin densities:
               1          2
     1  C   -0.616372   0.174934
     2  C    0.323590  -0.041244
     3  C    0.400179   0.005644
     4  C   -0.743083   0.185787
     5  N   -0.082331  -0.053051
     6  N   -0.124615   0.089921
     7  N   -0.225274   0.006640
     8  C    0.030054   0.257129
     9  N   -0.252531   0.023921
    10  N   -0.207449  -0.089185
    11  N    0.363988   0.128128
    12  N   -0.400467   0.338518
    13  H    0.114104  -0.014182
    14  H    0.140053  -0.011164
    15  H    0.280153  -0.001796
 Sum of Mulliken charges =  -1.00000   1.00000

 Dipole moment (field-independent basis, Debye):
    X=             -1.5984    Y=              4.4812    Z=             -0.0000  Tot=              4.7577
 Quadrupole moment (field-independent basis, Debye-Ang):
   XX=           -135.8182   YY=            -72.4081   ZZ=            -72.9519
   XY=             -2.4013   XZ=              0.0000   YZ=             -0.0001

 Summary of Natural Population Analysis:

                                       Natural Population
                Natural  -----------------------------------------------
    Atom  No    Charge         Core      Valence    Rydberg      Total
 -----------------------------------------------------------------------
      C    1    0.02032      0.99957     1.96527    0.01484     2.97968
      C    2    0.04227      0.99946     1.94897    0.00930     2.95773
      C    3    0.05643      0.99946     1.93227    0.01185     2.94357
      C    4    0.03944      0.99956     1.94614    0.01486     2.96056
      N    5   -0.16217      0.99973     2.64494    0.01750     3.66217
      N    6   -0.12070      0.99973     2.60260    0.01837     3.62070
      N    7   -0.28689      0.99967     2.77611    0.01111     3.78689
      C    8    0.34553      0.99960     1.63748    0.01739     2.65447
      N    9   -0.27819      0.99963     2.76951    0.00905     3.77819
      N   10   -0.24905      0.99965     2.73654    0.01286     3.74905
      N   11    0.17720      0.99971     2.30651    0.01659     3.32280
      N   12    0.04667      0.99982     2.44094    0.01257     3.45333
      H   13    0.08339      0.00000     0.41512    0.00149     0.41661
      H   14    0.08715      0.00000     0.41096    0.00189     0.41285
      H   15    0.19860      0.00000     0.29987    0.00153     0.30140
 =======================================================================
   * Total *    0.00000     11.99557    28.83323    0.17120    41.00000

 Normal termination of Gaussian 16 at Wed Dec  9 17:29:54 2020.
