 Gaussian 16, Revision A.03,

 -----------------------------------------------------------
 # opt freq B3LYP/6-31G(d) empiricaldispersion=gd3bj scf=xqc
 -----------------------------------------------------------

 ------------------------------
 CID_19748525_JID_2198_neutraal
 ------------------------------
 Symbolic Z-matrix:
 Charge =  0 Multiplicity = 1

 SCF Done:  E(RB3LYP) =  -520.125317758     A.U. after   14 cycles
 SCF Done:  E(RB3LYP) =  -520.127884957     A.U. after   12 cycles
 SCF Done:  E(RB3LYP) =  -520.126805068     A.U. after   12 cycles
 SCF Done:  E(RB3LYP) =  -520.127528400     A.U. after   12 cycles
 SCF Done:  E(RB3LYP) =  -520.128448744     A.U. after    9 cycles
 SCF Done:  E(RB3LYP) =  -520.128763773     A.U. after   12 cycles
 SCF Done:  E(RB3LYP) =  -520.128916957     A.U. after   11 cycles
 SCF Done:  E(RB3LYP) =  -520.128967366     A.U. after   10 cycles
 SCF Done:  E(RB3LYP) =  -520.128986966     A.U. after   10 cycles
 SCF Done:  E(RB3LYP) =  -520.128998164     A.U. after   10 cycles
 SCF Done:  E(RB3LYP) =  -520.129010416     A.U. after   10 cycles
 SCF Done:  E(RB3LYP) =  -520.129022912     A.U. after   10 cycles
 SCF Done:  E(RB3LYP) =  -520.129026502     A.U. after    9 cycles
 SCF Done:  E(RB3LYP) =  -520.129026625     A.U. after    7 cycles
 SCF Done:  E(RB3LYP) =  -520.129026647     A.U. after    7 cycles
 Optimization completed.
    -- Stationary point found.
 Normal termination of Gaussian 16 at Wed Dec  9 16:53:47 2020.

 --------------------------------------------------------------------
 #N Geom=AllCheck Guess=TCheck SCRF=Check GenChk RB3LYP/6-31G(d) Freq
 --------------------------------------------------------------------

 Structure from the checkpoint file:  "JID_2198.chk"
 ------------------------------
 CID_19748525_JID_2198_neutraal
 ------------------------------
 Charge =  0 Multiplicity = 1

 SCF Done:  E(RB3LYP) =  -520.129026647     A.U. after    1 cycles

  Exact polarizability: 150.555  -1.132 122.431   6.393   1.444  69.872
 Approx polarizability: 213.493   3.871 193.627  17.003   6.200 105.458

                      1                      2                      3
                      A                      A                      A
 Frequencies --     31.8412                72.4615               116.0650
 Red. masses --      2.4289                 3.1301                 4.3186
 Frc consts  --      0.0015                 0.0097                 0.0343
 IR Inten    --      0.2237                 1.5777                 1.3234

                      4                      5                      6
                      A                      A                      A
 Frequencies --    138.6258               188.3457               232.5715
 Red. masses --      3.2864                 1.9254                 2.1556
 Frc consts  --      0.0372                 0.0402                 0.0687
 IR Inten    --      3.1713                 0.8897                 0.0762

                      7                      8                      9
                      A                      A                      A
 Frequencies --    254.0025               300.7034               340.9165
 Red. masses --      1.9539                 1.0719                 2.1629
 Frc consts  --      0.0743                 0.0571                 0.1481
 IR Inten    --      1.8849                 0.9655                 1.6482

                     10                     11                     12
                      A                      A                      A
 Frequencies --    349.7140               362.5597               397.8388
 Red. masses --      2.1638                 2.7792                 4.6084
 Frc consts  --      0.1559                 0.2152                 0.4297
 IR Inten    --      8.1301                 0.3225                 1.9844

                     13                     14                     15
                      A                      A                      A
 Frequencies --    417.9877               438.5207               463.5315
 Red. masses --      1.9567                 2.4368                 3.7241
 Frc consts  --      0.2014                 0.2761                 0.4714
 IR Inten    --      8.2368                25.1266                 2.6034

                     16                     17                     18
                      A                      A                      A
 Frequencies --    500.0991               536.3796               580.1297
 Red. masses --      4.0091                 2.9375                 3.2784
 Frc consts  --      0.5908                 0.4979                 0.6501
 IR Inten    --      1.4075                 6.6167                 4.7182

                     19                     20                     21
                      A                      A                      A
 Frequencies --    653.7272               716.8461               751.7331
 Red. masses --      3.5945                 4.1332                 4.1385
 Frc consts  --      0.9051                 1.2514                 1.3779
 IR Inten    --      3.6082                 3.0928                 0.8756

                     22                     23                     24
                      A                      A                      A
 Frequencies --    783.5942               803.1092               845.3245
 Red. masses --      2.4820                 1.3822                 1.4914
 Frc consts  --      0.8979                 0.5252                 0.6279
 IR Inten    --     20.2308                 9.0711                37.2605

                     25                     26                     27
                      A                      A                      A
 Frequencies --    868.1561               886.1411               905.8362
 Red. masses --      1.8185                 1.6805                 1.3731
 Frc consts  --      0.8075                 0.7775                 0.6638
 IR Inten    --     30.7090                32.1370                 4.5065

                     28                     29                     30
                      A                      A                      A
 Frequencies --    933.3970               952.9549               966.2042
 Red. masses --      2.3940                 1.2933                 1.2083
 Frc consts  --      1.2289                 0.6920                 0.6646
 IR Inten    --      6.7531                 0.4033               107.6127

                     31                     32                     33
                      A                      A                      A
 Frequencies --    992.6111              1022.8836              1086.3694
 Red. masses --      2.2642                 1.4863                 1.7929
 Frc consts  --      1.3144                 0.9163                 1.2467
 IR Inten    --      2.8781                 3.1206                 4.8307

                     34                     35                     36
                      A                      A                      A
 Frequencies --   1091.6507              1097.9421              1127.9196
 Red. masses --      2.1027                 1.8734                 2.0402
 Frc consts  --      1.4764                 1.3306                 1.5292
 IR Inten    --      3.8387                16.9519                 5.0270

                     37                     38                     39
                      A                      A                      A
 Frequencies --   1164.3781              1198.3947              1215.2108
 Red. masses --      1.3525                 1.6280                 1.6050
 Frc consts  --      1.0804                 1.3776                 1.3964
 IR Inten    --      0.6012                 8.2884                 9.3866

                     40                     41                     42
                      A                      A                      A
 Frequencies --   1254.9711              1287.9966              1301.3845
 Red. masses --      1.8301                 1.4799                 1.6965
 Frc consts  --      1.6982                 1.4465                 1.6929
 IR Inten    --      4.8444                 7.3556                62.2963

                     43                     44                     45
                      A                      A                      A
 Frequencies --   1320.8315              1348.6464              1374.2105
 Red. masses --      3.5665                 2.1315                 1.5365
 Frc consts  --      3.6660                 2.2842                 1.7096
 IR Inten    --     68.7047                45.6408                14.6953

                     46                     47                     48
                      A                      A                      A
 Frequencies --   1388.8316              1414.3352              1434.6550
 Red. masses --      1.6511                 1.3213                 1.2259
 Frc consts  --      1.8764                 1.5573                 1.4866
 IR Inten    --      5.6424                22.2099                 1.9472

                     49                     50                     51
                      A                      A                      A
 Frequencies --   1436.5404              1458.5165              1516.4538
 Red. masses --      1.2573                 2.1469                 1.0733
 Frc consts  --      1.5287                 2.6908                 1.4542
 IR Inten    --      6.3380                49.3727                 0.7413

                     52                     53                     54
                      A                      A                      A
 Frequencies --   1518.4190              1524.3342              1526.0083
 Red. masses --      1.4803                 1.1827                 1.0993
 Frc consts  --      2.0108                 1.6192                 1.5083
 IR Inten    --      7.7800                 1.0160                12.3426

                     55                     56                     57
                      A                      A                      A
 Frequencies --   1534.0526              1537.5660              1550.1916
 Red. masses --      1.1082                 1.0966                 2.5355
 Frc consts  --      1.5366                 1.5275                 3.5899
 IR Inten    --     14.9755                 4.3995               152.0447

                     58                     59                     60
                      A                      A                      A
 Frequencies --   1653.2303              1679.5647              1684.4693
 Red. masses --      3.8950                 1.1074                 5.1324
 Frc consts  --      6.2723                 1.8406                 8.5802
 IR Inten    --     39.0519                41.9991                16.0987

                     61                     62                     63
                      A                      A                      A
 Frequencies --   3015.4493              3038.9757              3045.0667
 Red. masses --      1.0834                 1.0600                 1.0346
 Frc consts  --      5.8043                 5.7676                 5.6524
 IR Inten    --     22.0791                37.5533                39.2340

                     64                     65                     66
                      A                      A                      A
 Frequencies --   3047.5738              3072.5343              3113.6892
 Red. masses --      1.0357                 1.1036                 1.1029
 Frc consts  --      5.6678                 6.1382                 6.3001
 IR Inten    --     18.4292                11.9882                56.0858

                     67                     68                     69
                      A                      A                      A
 Frequencies --   3113.8660              3120.1746              3125.5143
 Red. masses --      1.1026                 1.1033                 1.1018
 Frc consts  --      6.2988                 6.3285                 6.3416
 IR Inten    --     34.9898                34.1945                20.9241

                     70                     71                     72
                      A                      A                      A
 Frequencies --   3174.2240              3190.6838              3212.4703
 Red. masses --      1.0887                 1.0882                 1.0929
 Frc consts  --      6.4628                 6.5275                 6.6450
 IR Inten    --     23.4229                14.4458                10.9844

                     73                     74                     75
                      A                      A                      A
 Frequencies --   3273.6844              3463.4749              3553.2781
 Red. masses --      1.0667                 1.0492                 1.0936
 Frc consts  --      6.7352                 7.4155                 8.1352
 IR Inten    --    596.1555                 2.6135                 0.9542

 - Thermochemistry -
 -------------------
 Temperature   298.150 Kelvin.  Pressure   1.00000 Atm.
 Atom     1 has atomic number  6 and mass  12.00000

 Molecular mass:   165.11536 amu.
 Principal axes and moments of inertia in atomic units:
                           1         2         3
     Eigenvalues --  1232.165522865.439193862.75480
           X            0.99987  -0.01474  -0.00575
           Y            0.01470   0.99987  -0.00649
           Z            0.00585   0.00641   0.99996
 This molecule is an asymmetric top.
 Rotational symmetry number  1.
 Warning -- assumption of classical behavior for rotation
           may cause significant error
 Rotational temperatures (Kelvin)      0.07029     0.03023     0.02242
 Rotational constants (GHZ):           1.46469     0.62983     0.46722
 Zero-point vibrational energy     622611.7 (Joules/Mol)
                                  148.80777 (Kcal/Mol)
 Warning -- explicit consideration of  18 degrees of freedom as
           vibrations may cause significant error
 Vibrational temperatures:     45.81   104.26   166.99   199.45   270.99
          (Kelvin)            334.62   365.45   432.65   490.50   503.16
                              521.64   572.40   601.39   630.93   666.92
                              719.53   771.73   834.68   940.57  1031.38
                             1081.58  1127.42  1155.50  1216.23  1249.08
                             1274.96  1303.30  1342.95  1371.09  1390.15
                             1428.15  1471.70  1563.04  1570.64  1579.69
                             1622.82  1675.28  1724.22  1748.42  1805.62
                             1853.14  1872.40  1900.38  1940.40  1977.18
                             1998.22  2034.91  2064.15  2066.86  2098.48
                             2181.84  2184.67  2193.18  2195.59  2207.16
                             2212.21  2230.38  2378.63  2416.52  2423.58
                             4338.56  4372.41  4381.17  4384.78  4420.69
                             4479.90  4480.16  4489.24  4496.92  4567.00
                             4590.68  4622.03  4710.10  4983.17  5112.37

 Zero-point correction=                           0.237140 (Hartree/Particle)
 Thermal correction to Energy=                    0.249020
 Thermal correction to Enthalpy=                  0.249964
 Thermal correction to Gibbs Free Energy=         0.199107
 Sum of electronic and zero-point Energies=           -519.891886
 Sum of electronic and thermal Energies=              -519.880007
 Sum of electronic and thermal Enthalpies=            -519.879063
 Sum of electronic and thermal Free Energies=         -519.929919

                     E (Thermal)             CV                S
                      KCal/Mol        Cal/Mol-Kelvin    Cal/Mol-Kelvin
 Total                  156.262             46.307            107.037
 Electronic               0.000              0.000              0.000
 Translational            0.889              2.981             41.213
 Rotational               0.889              2.981             30.990
 Vibrational            154.485             40.346             34.835
 Vibration     1          0.594              1.983              5.711
 Vibration     2          0.599              1.967              4.085
 Vibration     3          0.608              1.936              3.165
 Vibration     4          0.614              1.915              2.823
 Vibration     5          0.633              1.856              2.244
 Vibration     6          0.653              1.791              1.859
 Vibration     7          0.665              1.756              1.703
 Vibration     8          0.693              1.672              1.413
 Vibration     9          0.720              1.594              1.208
 Vibration    10          0.727              1.576              1.167
 Vibration    11          0.736              1.549              1.111
 Vibration    12          0.764              1.475              0.971
 Vibration    13          0.781              1.431              0.899
 Vibration    14          0.799              1.386              0.831
 Vibration    15          0.821              1.331              0.756
 Vibration    16          0.856              1.250              0.658
 Vibration    17          0.891              1.170              0.573
 Vibration    18          0.937              1.074              0.485

 Optimization completed.
    -- Stationary point found.
 Normal termination of Gaussian 16 at Wed Dec  9 16:59:54 2020.

 ----------------------------------------------------------------------
 # B3LYP/6-311++G(d,p) empiricaldispersion=gd3bj scf=xqc pop=npa geom=c
 heck
 ----------------------------------------------------------------------

 --------------------------------------
 CID_19748525_JID_2198_Energie_neutraal
 --------------------------------------
 Structure from the checkpoint file:  "JID_2198.chk"
 Charge =  0 Multiplicity = 1

 SCF Done:  E(RB3LYP) =  -520.284054378     A.U. after   15 cycles
 Normal termination of Gaussian 16 at Wed Dec  9 17:02:42 2020.

 ----------------------------------------------------------------------
 # B3LYP/6-311++G(d,p) empiricaldispersion=gd3bj scf=xqc pop=npa geom=c
 heck
 ----------------------------------------------------------------------

 ------------------------------------
 CID_19748525_JID_2198_Energie_kation
 ------------------------------------
 Structure from the checkpoint file:  "JID_2198.chk"
 Charge =  1 Multiplicity = 2

 SCF Done:  E(UB3LYP) =  -520.004143549     A.U. after   21 cycles
 Normal termination of Gaussian 16 at Wed Dec  9 17:08:27 2020.
 Gaussian 16:  ES64L-G16RevA.03 25-Dec-2016

 ----------------------------------------------------------------------
 # B3LYP/6-311++G(d,p) empiricaldispersion=gd3bj scf=xqc pop=npa geom=c
 heck
 ----------------------------------------------------------------------

 -----------------------------------
 CID_19748525_JID_2198_Energie_anion
 -----------------------------------
 Structure from the checkpoint file:  "JID_2198.chk"
 Charge = -1 Multiplicity = 2

                         Standard orientation:
 ---------------------------------------------------------------------
 Center     Atomic      Atomic             Coordinates (Angstroms)
 Number     Number       Type             X           Y           Z
 ---------------------------------------------------------------------
      1          6           0       -3.746737   -0.911032    0.713281
      2          6           0       -3.010573   -0.594762   -0.598873
      3          6           0       -1.678000    0.080240   -0.366564
      4          6           0       -0.511356   -0.672961   -0.199799
      5          6           0        0.728083   -0.087120    0.070906
      6          6           0        0.800458    1.322572    0.157535
      7          6           0       -0.359163    2.088127   -0.000339
      8          6           0       -1.579827    1.471325   -0.252809
      9          8           0        1.970044    1.968298    0.401307
     10          6           0        1.986247   -0.901806    0.333166
     11          6           0        1.843102   -2.406926    0.100081
     12          7           0        3.104300   -0.304451   -0.443255
     13          1           0       -3.145958   -1.575825    1.344227
     14          1           0       -4.710482   -1.397681    0.522562
     15          1           0       -3.932677    0.005717    1.283856
     16          1           0       -2.861229   -1.524884   -1.162111
     17          1           0       -3.645536    0.047108   -1.222732
     18          1           0       -0.583296   -1.754194   -0.276107
     19          1           0       -0.273946    3.167992    0.068503
     20          1           0       -2.471566    2.082285   -0.375994
     21          1           0        2.692171    1.337067    0.138538
     22          1           0        2.265026   -0.746417    1.386217
     23          1           0        1.553975   -2.620990   -0.935556
     24          1           0        2.797976   -2.906873    0.298522
     25          1           0        1.092391   -2.849396    0.762810
     26          1           0        3.976127   -0.790798   -0.238822
     27          1           0        2.923171   -0.414270   -1.441093
 ---------------------------------------------------------------------

 SCF Done:  E(UB3LYP) =  -520.273805886     A.U. after   31 cycles

 The electronic state is 2-A.
 Alpha  occ. eigenvalues --  -19.01977 -14.20217 -10.11956 -10.10589 -10.07404
 Alpha  occ. eigenvalues --  -10.07004 -10.06771 -10.06590 -10.06560 -10.06469
 Alpha  occ. eigenvalues --  -10.06099 -10.05360  -0.93709  -0.79518  -0.74837
 Alpha  occ. eigenvalues --   -0.68300  -0.65904  -0.61861  -0.60980  -0.54002
 Alpha  occ. eigenvalues --   -0.53078  -0.48330  -0.46735  -0.43007  -0.40287
 Alpha  occ. eigenvalues --   -0.38299  -0.36323  -0.34617  -0.33395  -0.32837
 Alpha  occ. eigenvalues --   -0.31847  -0.31409  -0.30299  -0.29420  -0.28282
 Alpha  occ. eigenvalues --   -0.27286  -0.26290  -0.25718  -0.24687  -0.23407
 Alpha  occ. eigenvalues --   -0.22695  -0.21402  -0.16014  -0.14576  -0.10989
 Alpha  occ. eigenvalues --    0.04400
 Alpha virt. eigenvalues --    0.06182   0.07992   0.08353   0.08708   0.08996
 Alpha virt. eigenvalues --    0.09525   0.10053   0.10719   0.10794   0.11540
 Alpha virt. eigenvalues --    0.11838   0.12820   0.12991   0.13839   0.14611

  Beta  occ. eigenvalues --  -19.01963 -14.20142 -10.11931 -10.10575 -10.07392
  Beta  occ. eigenvalues --  -10.06995 -10.06782 -10.06570 -10.06507 -10.06446
  Beta  occ. eigenvalues --  -10.06100 -10.05306  -0.93679  -0.79401  -0.74791
  Beta  occ. eigenvalues --   -0.68265  -0.65821  -0.61806  -0.60909  -0.53893
  Beta  occ. eigenvalues --   -0.53027  -0.48277  -0.46692  -0.42959  -0.40205
  Beta  occ. eigenvalues --   -0.38256  -0.36286  -0.34544  -0.33349  -0.32802
  Beta  occ. eigenvalues --   -0.31805  -0.31360  -0.30235  -0.29361  -0.28245
  Beta  occ. eigenvalues --   -0.27238  -0.26233  -0.25649  -0.24654  -0.23379
  Beta  occ. eigenvalues --   -0.22645  -0.21327  -0.15930  -0.14438  -0.10887
  Beta virt. eigenvalues --    0.06465   0.07607   0.08169   0.08605   0.09071
  Beta virt. eigenvalues --    0.09519   0.10227   0.10396   0.10929   0.11107
  Beta virt. eigenvalues --    0.12087   0.12188   0.12935   0.13250   0.14201

 Mulliken charges and spin densities:
               1          2
     1  C    0.319773  -0.942403
     2  C    0.020820  -0.286573
     3  C    1.245377  -0.688124
     4  C   -0.550909   0.148818
     5  C    0.714975   0.045337
     6  C   -0.559558  -0.278524
     7  C   -0.470103   0.281130
     8  C   -0.147240  -0.157993
     9  O   -0.308537   0.019656
    10  C   -0.789600   0.732096
    11  C    1.445328  -2.060337
    12  N   -0.443960   0.077256
    13  H   -0.121872   0.264419
    14  H   -0.187621   0.302549
    15  H    0.064398   0.065369
    16  H   -0.147378   0.289795
    17  H   -0.120046   0.256925
    18  H    0.447103  -0.298651
    19  H    0.122695   0.037427
    20  H    0.021970   0.112378
    21  H    0.362193  -0.003330
    22  H   -0.107425   0.320116
    23  H   -0.254245   0.407322
    24  H   -1.048381   1.225187
    25  H   -0.167684   0.306869
    26  H   -0.299874   0.567979
    27  H   -0.040200   0.255307
 Sum of Mulliken charges =  -1.00000   1.00000

 Dipole moment (field-independent basis, Debye):
    X=             -5.4095    Y=              4.5029    Z=             -0.2776  Tot=              7.0439
 Quadrupole moment (field-independent basis, Debye-Ang):
   XX=           -151.2526   YY=           -117.8791   ZZ=            -99.9368
   XY=              8.3110   XZ=             -0.1906   YZ=              0.6799

 Summary of Natural Population Analysis:

                                       Natural Population
                Natural  -----------------------------------------------
    Atom  No    Charge         Core      Valence    Rydberg      Total
 -----------------------------------------------------------------------
      C    1   -0.27951      0.99966     2.27549    0.00436     3.27951
      C    2   -0.19516      0.99961     2.18609    0.00946     3.19516
      C    3   -0.03493      0.99951     2.02605    0.00937     3.03493
      C    4   -0.09053      0.99948     2.08226    0.00880     3.09053
      C    5   -0.05142      0.99946     2.04127    0.01069     3.05142
      C    6    0.16959      0.99936     1.81813    0.01293     2.83041
      C    7   -0.12660      0.99953     2.11814    0.00893     3.12660
      C    8   -0.08874      0.99952     2.08066    0.00856     3.08874
      O    9   -0.36246      0.99987     3.35565    0.00693     4.36246
      C   10   -0.02019      0.99958     2.00739    0.01322     3.02019
      C   11   -0.29335      0.99965     2.28723    0.00647     3.29335
      N   12   -0.43400      0.99977     2.92259    0.01165     3.93400
      H   13    0.09862      0.00000     0.40008    0.00130     0.40138
      H   14    0.09443      0.00000     0.40415    0.00143     0.40557
      H   15    0.09477      0.00000     0.40391    0.00131     0.40523
      H   16    0.09834      0.00000     0.40041    0.00124     0.40166
      H   17    0.09599      0.00000     0.40282    0.00119     0.40401
      H   18    0.10165      0.00000     0.39696    0.00139     0.39835
      H   19    0.10055      0.00000     0.39816    0.00129     0.39945
      H   20    0.09466      0.00000     0.40444    0.00091     0.40534
      H   21    0.25166      0.00000     0.24443    0.00391     0.24834
      H   22    0.09698      0.00000     0.40092    0.00211     0.40302
      H   23    0.09900      0.00000     0.39932    0.00168     0.40100
      H   24    0.10675      0.00000     0.38989    0.00337     0.39325
      H   25    0.10236      0.00000     0.39620    0.00144     0.39764
      H   26    0.19009      0.00000     0.30192    0.00799     0.30991
      H   27    0.18145      0.00000     0.31605    0.00249     0.31855
 =======================================================================
   * Total *    0.00000     11.99501    32.86060    0.14439    45.00000

 Normal termination of Gaussian 16 at Wed Dec  9 17:17:24 2020.
