 Gaussian 16, Revision A.03,

 -----------------------------------------------------------
 # opt freq B3LYP/6-31G(d) empiricaldispersion=gd3bj scf=xqc
 -----------------------------------------------------------

 ------------------------------
 CID_67190417_JID_2868_neutraal
 ------------------------------
 Symbolic Z-matrix:
 Charge =  0 Multiplicity = 1

 SCF Done:  E(RB3LYP) =  -501.414008353     A.U. after   14 cycles
 SCF Done:  E(RB3LYP) =  -501.415027215     A.U. after   12 cycles
 SCF Done:  E(RB3LYP) =  -501.414432579     A.U. after   12 cycles
 SCF Done:  E(RB3LYP) =  -501.415605384     A.U. after   12 cycles
 SCF Done:  E(RB3LYP) =  -501.416090353     A.U. after   12 cycles
 SCF Done:  E(RB3LYP) =  -501.416217609     A.U. after   10 cycles
 SCF Done:  E(RB3LYP) =  -501.416228824     A.U. after    9 cycles
 SCF Done:  E(RB3LYP) =  -501.416233349     A.U. after    9 cycles
 SCF Done:  E(RB3LYP) =  -501.416235125     A.U. after    7 cycles
 SCF Done:  E(RB3LYP) =  -501.416236367     A.U. after    8 cycles
 SCF Done:  E(RB3LYP) =  -501.416237540     A.U. after    9 cycles
 SCF Done:  E(RB3LYP) =  -501.416238644     A.U. after    9 cycles
 SCF Done:  E(RB3LYP) =  -501.416239706     A.U. after    9 cycles
 SCF Done:  E(RB3LYP) =  -501.416240078     A.U. after    7 cycles
 SCF Done:  E(RB3LYP) =  -501.416240133     A.U. after    7 cycles
 SCF Done:  E(RB3LYP) =  -501.416240133     A.U. after    7 cycles
 Optimization completed.
    -- Stationary point found.
 Normal termination of Gaussian 16 at Wed Dec  9 18:15:08 2020.

 --------------------------------------------------------------------
 #N Geom=AllCheck Guess=TCheck SCRF=Check GenChk RB3LYP/6-31G(d) Freq
 --------------------------------------------------------------------

 Structure from the checkpoint file:  "JID_2868.chk"
 ------------------------------
 CID_67190417_JID_2868_neutraal
 ------------------------------
 Charge =  0 Multiplicity = 1

 SCF Done:  E(RB3LYP) =  -501.416240133     A.U. after    1 cycles

  Exact polarizability: 141.824   2.973 113.891  14.041  -1.285  87.518
 Approx polarizability: 175.937   4.431 179.932  25.289  -2.419 134.168

                      1                      2                      3
                      A                      A                      A
 Frequencies --     20.6535                33.7425                65.3550
 Red. masses --      3.3669                 3.1627                 3.0594
 Frc consts  --      0.0008                 0.0021                 0.0077
 IR Inten    --      0.3819                 0.2622                 0.2721

                      4                      5                      6
                      A                      A                      A
 Frequencies --     87.5891               125.9665               161.2863
 Red. masses --      3.8590                 2.4064                 2.9102
 Frc consts  --      0.0174                 0.0225                 0.0446
 IR Inten    --      0.2794                 0.2613                 2.8212

                      7                      8                      9
                      A                      A                      A
 Frequencies --    186.4551               226.0969               282.5688
 Red. masses --      2.1960                 1.8709                 1.7983
 Frc consts  --      0.0450                 0.0563                 0.0846
 IR Inten    --      2.8575                 2.1908                 0.4042

                     10                     11                     12
                      A                      A                      A
 Frequencies --    306.9858               312.7676               331.5819
 Red. masses --      2.1312                 1.1938                 2.2732
 Frc consts  --      0.1183                 0.0688                 0.1473
 IR Inten    --      0.3968                31.0516                 0.1790

                     13                     14                     15
                      A                      A                      A
 Frequencies --    386.5918               425.8776               475.4028
 Red. masses --      1.9639                 1.9441                 2.4720
 Frc consts  --      0.1729                 0.2077                 0.3292
 IR Inten    --      0.7355                 3.8197                 5.3347

                     16                     17                     18
                      A                      A                      A
 Frequencies --    508.9981               609.3798               626.5956
 Red. masses --      2.6357                 4.1297                 3.6518
 Frc consts  --      0.4023                 0.9035                 0.8448
 IR Inten    --      2.3769                 2.5354                 2.2180

                     19                     20                     21
                      A                      A                      A
 Frequencies --    667.4049               710.9734               720.5332
 Red. masses --      2.9798                 1.2850                 1.8194
 Frc consts  --      0.7820                 0.3827                 0.5565
 IR Inten    --      0.6916                43.7132                21.0894

                     22                     23                     24
                      A                      A                      A
 Frequencies --    741.4500               765.5235               788.3101
 Red. masses --      1.7929                 1.7217                 1.6531
 Frc consts  --      0.5807                 0.5945                 0.6053
 IR Inten    --      3.2601                 4.0090                 8.1824

                     25                     26                     27
                      A                      A                      A
 Frequencies --    831.7873               853.5302               862.3666
 Red. masses --      1.6608                 1.2374                 2.0497
 Frc consts  --      0.6770                 0.5311                 0.8981
 IR Inten    --      2.8260                 1.3018                 1.5794

                     28                     29                     30
                      A                      A                      A
 Frequencies --    900.1871               917.5290               936.4762
 Red. masses --      3.9199                 1.6532                 1.7096
 Frc consts  --      1.8715                 0.8200                 0.8834
 IR Inten    --      9.6064                 6.2071                37.0838

                     31                     32                     33
                      A                      A                      A
 Frequencies --    966.5445               994.9232              1018.3787
 Red. masses --      1.5053                 1.8217                 1.5437
 Frc consts  --      0.8286                 1.0625                 0.9433
 IR Inten    --     68.7744                 2.3961                 6.7371

                     34                     35                     36
                      A                      A                      A
 Frequencies --   1047.1918              1052.7300              1096.1152
 Red. masses --      1.3030                 1.7078                 1.7743
 Frc consts  --      0.8419                 1.1151                 1.2560
 IR Inten    --      4.5217                 1.2960                 3.8057

                     37                     38                     39
                      A                      A                      A
 Frequencies --   1098.5608              1116.1085              1140.4242
 Red. masses --      1.8084                 1.5263                 1.7751
 Frc consts  --      1.2858                 1.1202                 1.3602
 IR Inten    --      5.7136                 6.5820                 0.9637

                     40                     41                     42
                      A                      A                      A
 Frequencies --   1176.6895              1213.6538              1223.7485
 Red. masses --      2.4880                 1.3452                 1.5153
 Frc consts  --      2.0296                 1.1674                 1.3370
 IR Inten    --      5.8790                 0.4814                 0.9170

                     43                     44                     45
                      A                      A                      A
 Frequencies --   1266.4703              1281.7560              1313.2005
 Red. masses --      1.4137                 1.3133                 1.2177
 Frc consts  --      1.3360                 1.2712                 1.2372
 IR Inten    --      3.9558                 1.8239                 1.6820

                     46                     47                     48
                      A                      A                      A
 Frequencies --   1342.7112              1350.2643              1353.0229
 Red. masses --      1.1537                 1.1660                 2.7219
 Frc consts  --      1.2255                 1.2525                 2.9358
 IR Inten    --      1.4857                 0.7171                12.6324

                     49                     50                     51
                      A                      A                      A
 Frequencies --   1370.6789              1384.0769              1396.1270
 Red. masses --      1.7708                 1.4132                 1.4816
 Frc consts  --      1.9601                 1.5951                 1.7015
 IR Inten    --      7.3005                16.5899                 1.4832

                     52                     53                     54
                      A                      A                      A
 Frequencies --   1409.1779              1417.8127              1421.0700
 Red. masses --      2.1466                 1.6561                 1.5082
 Frc consts  --      2.5115                 1.9614                 1.7944
 IR Inten    --      5.7340                 3.4591                 0.4653

                     55                     56                     57
                      A                      A                      A
 Frequencies --   1443.9739              1485.7028              1504.8340
 Red. masses --      1.2706                 3.8993                 1.0954
 Frc consts  --      1.5610                 5.0711                 1.4615
 IR Inten    --      4.5897                 0.5036                 1.4806

                     58                     59                     60
                      A                      A                      A
 Frequencies --   1511.5489              1516.1113              1520.8546
 Red. masses --      1.2483                 1.4297                 1.7561
 Frc consts  --      1.6805                 1.9362                 2.3932
 IR Inten    --     12.0678                 5.3713                16.4128

                     61                     62                     63
                      A                      A                      A
 Frequencies --   1527.9459              1528.5336              1535.9886
 Red. masses --      1.0955                 1.0554                 1.0751
 Frc consts  --      1.5069                 1.4529                 1.4944
 IR Inten    --      4.9345                 6.0376                 5.7334

                     64                     65                     66
                      A                      A                      A
 Frequencies --   1544.3632              1606.9335              1721.7338
 Red. masses --      1.0734                 5.1257                 1.1050
 Frc consts  --      1.5083                 7.7983                 1.9299
 IR Inten    --      3.1749                 0.4477                13.7074

                     67                     68                     69
                      A                      A                      A
 Frequencies --   3021.5895              3034.4902              3040.8611
 Red. masses --      1.0609                 1.0674                 1.0599
 Frc consts  --      5.7070                 5.7908                 5.7744
 IR Inten    --     32.0226                25.9279                28.7912

                     70                     71                     72
                      A                      A                      A
 Frequencies --   3042.9670              3046.5870              3048.1289
 Red. masses --      1.0613                 1.0434                 1.0641
 Frc consts  --      5.7902                 5.7061                 5.8250
 IR Inten    --      8.0867                13.9846                 7.6485

                     73                     74                     75
                      A                      A                      A
 Frequencies --   3055.2714              3070.3113              3077.3420
 Red. masses --      1.0921                 1.0999                 1.0989
 Frc consts  --      6.0065                 6.1090                 6.1313
 IR Inten    --     46.6118                30.5721                47.6894

                     76                     77                     78
                      A                      A                      A
 Frequencies --   3081.1054              3089.4000              3111.2782
 Red. masses --      1.1002                 1.1014                 1.1014
 Frc consts  --      6.1536                 6.1934                 6.2817
 IR Inten    --     92.9750                46.8942                46.2658

                     79                     80                     81
                      A                      A                      A
 Frequencies --   3119.3912              3240.7633              3261.6274
 Red. masses --      1.1019                 1.0924                 1.0957
 Frc consts  --      6.3175                 6.7595                 6.8676
 IR Inten    --     47.1573                 8.5236                 8.1585

                     82                     83                     84
                      A                      A                      A
 Frequencies --   3298.0985              3463.1058              3554.1108
 Red. masses --      1.1010                 1.0464                 1.0966
 Frc consts  --      7.0563                 7.3940                 8.1610
 IR Inten    --      1.1684                 3.0821                 4.9001

 - Thermochemistry -
 -------------------
 Temperature   298.150 Kelvin.  Pressure   1.00000 Atm.
 Atom     1 has atomic number  6 and mass  12.00000

 Molecular mass:   166.14700 amu.
 Principal axes and moments of inertia in atomic units:
                           1         2         3
     Eigenvalues --   876.554414046.174694459.84899
           X            1.00000   0.00076  -0.00045
           Y           -0.00076   1.00000   0.00290
           Z            0.00046  -0.00290   1.00000
 This molecule is an asymmetric top.
 Rotational symmetry number  1.
 Warning -- assumption of classical behavior for rotation
           may cause significant error
 Rotational temperatures (Kelvin)      0.09881     0.02141     0.01942
 Rotational constants (GHZ):           2.05890     0.44604     0.40466
 Zero-point vibrational energy     714328.2 (Joules/Mol)
                                  170.72855 (Kcal/Mol)
 Warning -- explicit consideration of  17 degrees of freedom as
           vibrations may cause significant error
 Vibrational temperatures:     29.72    48.55    94.03   126.02   181.24
          (Kelvin)            232.05   268.27   325.30   406.55   441.68
                              450.00   477.07   556.22   612.74   684.00
                              732.33   876.76   901.53   960.25  1022.93
                             1036.69  1066.78  1101.42  1134.20  1196.76
                             1228.04  1240.75  1295.17  1320.12  1347.38
                             1390.64  1431.47  1465.22  1506.68  1514.64
                             1577.07  1580.58  1605.83  1640.82  1692.99
                             1746.18  1760.70  1822.17  1844.16  1889.40
                             1931.86  1942.73  1946.70  1972.10  1991.38
                             2008.72  2027.49  2039.92  2044.60  2077.56
                             2137.59  2165.12  2174.78  2181.35  2188.17
                             2198.37  2199.22  2209.95  2221.99  2312.02
                             2477.19  4347.39  4365.95  4375.12  4378.15
                             4383.36  4385.58  4395.85  4417.49  4427.61
                             4433.02  4444.96  4476.44  4488.11  4662.74
                             4692.75  4745.23  4982.64  5113.57

 Zero-point correction=                           0.272073 (Hartree/Particle)
 Thermal correction to Energy=                    0.285092
 Thermal correction to Enthalpy=                  0.286036
 Thermal correction to Gibbs Free Energy=         0.231129
 Sum of electronic and zero-point Energies=           -501.144167
 Sum of electronic and thermal Energies=              -501.131149
 Sum of electronic and thermal Enthalpies=            -501.130204
 Sum of electronic and thermal Free Energies=         -501.185111

                     E (Thermal)             CV                S
                      KCal/Mol        Cal/Mol-Kelvin    Cal/Mol-Kelvin
 Total                  178.898             48.949            115.561
 Electronic               0.000              0.000              0.000
 Translational            0.889              2.981             41.231
 Rotational               0.889              2.981             31.137
 Vibrational            177.120             42.987             43.192
 Vibration     1          0.593              1.986              6.570
 Vibration     2          0.594              1.983              5.596
 Vibration     3          0.597              1.971              4.289
 Vibration     4          0.601              1.958              3.713
 Vibration     5          0.611              1.927              3.007
 Vibration     6          0.622              1.890              2.535
 Vibration     7          0.632              1.858              2.263
 Vibration     8          0.650              1.801              1.910
 Vibration     9          0.682              1.706              1.518
 Vibration    10          0.697              1.660              1.379
 Vibration    11          0.701              1.649              1.348
 Vibration    12          0.714              1.612              1.252
 Vibration    13          0.755              1.499              1.013
 Vibration    14          0.788              1.414              0.872
 Vibration    15          0.832              1.305              0.723
 Vibration    16          0.864              1.230              0.636
 Vibration    17          0.968              1.012              0.434

 Optimization completed.
    -- Stationary point found.
 Normal termination of Gaussian 16 at Wed Dec  9 18:23:06 2020.

 ----------------------------------------------------------------------
 # B3LYP/6-311++G(d,p) empiricaldispersion=gd3bj scf=xqc pop=npa geom=c
 heck
 ----------------------------------------------------------------------

 --------------------------------------
 CID_67190417_JID_2868_Energie_neutraal
 --------------------------------------
 Structure from the checkpoint file:  "JID_2868.chk"
 Charge =  0 Multiplicity = 1

 SCF Done:  E(RB3LYP) =  -501.560768707     A.U. after   14 cycles
 Normal termination of Gaussian 16 at Wed Dec  9 18:26:46 2020.

 ----------------------------------------------------------------------
 # B3LYP/6-311++G(d,p) empiricaldispersion=gd3bj scf=xqc pop=npa geom=c
 heck
 ----------------------------------------------------------------------

 ------------------------------------
 CID_67190417_JID_2868_Energie_kation
 ------------------------------------
 Structure from the checkpoint file:  "JID_2868.chk"
 Charge =  1 Multiplicity = 2

 SCF Done:  E(UB3LYP) =  -501.281376730     A.U. after   19 cycles
 Normal termination of Gaussian 16 at Wed Dec  9 18:33:21 2020.
 Gaussian 16:  ES64L-G16RevA.03 25-Dec-2016

 ----------------------------------------------------------------------
 # B3LYP/6-311++G(d,p) empiricaldispersion=gd3bj scf=xqc pop=npa geom=c
 heck
 ----------------------------------------------------------------------

 -----------------------------------
 CID_67190417_JID_2868_Energie_anion
 -----------------------------------
 Structure from the checkpoint file:  "JID_2868.chk"
 Charge = -1 Multiplicity = 2

                         Standard orientation:
 ---------------------------------------------------------------------
 Center     Atomic      Atomic             Coordinates (Angstroms)
 Number     Number       Type             X           Y           Z
 ---------------------------------------------------------------------
      1          6           0        4.419650   -0.310136   -0.422599
      2          6           0        3.427524    0.481271    0.434237
      3          6           0        2.136024    0.868862   -0.303318
      4          6           0        1.318617   -0.307343   -0.864966
      5          6           0        0.836366   -1.323522    0.178399
      6          6           0       -0.255150   -0.791238    1.133355
      7          6           0       -1.556099   -0.496904    0.450589
      8          6           0       -2.537501   -1.358931   -0.001569
      9          6           0       -3.562510   -0.587961   -0.621393
     10          6           0       -3.188776    0.733775   -0.534844
     11          7           0       -1.973084    0.783194    0.108261
     12          7           0       -1.336911    2.003733    0.377972
     13          1           0        4.017169   -1.287195   -0.711127
     14          1           0        5.354837   -0.486444    0.120078
     15          1           0        4.664620    0.232537   -1.344047
     16          1           0        3.182036   -0.095745    1.335306
     17          1           0        3.910702    1.400780    0.789577
     18          1           0        1.517060    1.460669    0.385481
     19          1           0        2.391485    1.541715   -1.133804
     20          1           0        0.446429    0.082579   -1.407274
     21          1           0        1.922213   -0.830668   -1.616315
     22          1           0        0.428871   -2.198241   -0.342241
     23          1           0        1.685905   -1.683397    0.773069
     24          1           0       -0.430741   -1.543410    1.911676
     25          1           0        0.110075    0.101462    1.657045
     26          1           0       -2.514087   -2.435737    0.107344
     27          1           0       -4.470805   -0.961820   -1.073598
     28          1           0       -3.658285    1.650409   -0.856202
     29          1           0       -0.422326    2.007804   -0.069151
     30          1           0       -1.194067    2.088960    1.383206
 ---------------------------------------------------------------------

 SCF Done:  E(UB3LYP) =  -501.547343558     A.U. after   30 cycles

 The electronic state is 2-A.
 Alpha  occ. eigenvalues --  -14.28237 -14.24165 -10.09452 -10.08778 -10.07352
 Alpha  occ. eigenvalues --  -10.06530 -10.06178 -10.05873 -10.05855 -10.05660
 Alpha  occ. eigenvalues --  -10.05449 -10.05299  -0.92145  -0.77747  -0.71187
 Alpha  occ. eigenvalues --   -0.67697  -0.63489  -0.63225  -0.59320  -0.55184
 Alpha  occ. eigenvalues --   -0.50444  -0.48019  -0.46553  -0.44883  -0.42283
 Alpha  occ. eigenvalues --   -0.40875  -0.37139  -0.36754  -0.34504  -0.33102
 Alpha  occ. eigenvalues --   -0.32740  -0.30941  -0.30575  -0.29104  -0.28713
 Alpha  occ. eigenvalues --   -0.28449  -0.26947  -0.25206  -0.25111  -0.23947
 Alpha  occ. eigenvalues --   -0.22062  -0.21230  -0.21034  -0.18316  -0.14397
 Alpha  occ. eigenvalues --   -0.11097   0.04618
 Alpha virt. eigenvalues --    0.07005   0.07311   0.07718   0.08638   0.09146
 Alpha virt. eigenvalues --    0.09709   0.10331   0.10495   0.11225   0.11438
 Alpha virt. eigenvalues --    0.12037   0.12667   0.13318   0.13689   0.14340

  Beta  occ. eigenvalues --  -14.28231 -14.24101 -10.09453 -10.08774 -10.07319
  Beta  occ. eigenvalues --  -10.06516 -10.06169 -10.05871 -10.05821 -10.05631
  Beta  occ. eigenvalues --  -10.05444 -10.05266  -0.92107  -0.77678  -0.71149
  Beta  occ. eigenvalues --   -0.67651  -0.63442  -0.63190  -0.59275  -0.55118
  Beta  occ. eigenvalues --   -0.50378  -0.47993  -0.46499  -0.44805  -0.42211
  Beta  occ. eigenvalues --   -0.40832  -0.37110  -0.36702  -0.34470  -0.33074
  Beta  occ. eigenvalues --   -0.32680  -0.30913  -0.30546  -0.29087  -0.28680
  Beta  occ. eigenvalues --   -0.28414  -0.26918  -0.25153  -0.25068  -0.23917
  Beta  occ. eigenvalues --   -0.22023  -0.21177  -0.20987  -0.18261  -0.14377
  Beta  occ. eigenvalues --   -0.11088
  Beta virt. eigenvalues --    0.06889   0.07535   0.07987   0.08337   0.09016
  Beta virt. eigenvalues --    0.09516   0.10227   0.10648   0.10751   0.11568
  Beta virt. eigenvalues --    0.11742   0.12430   0.13094   0.13512   0.14187

 Mulliken charges and spin densities:
               1          2
     1  C    1.218444  -1.858040
     2  C   -0.646180   0.405970
     3  C    1.065371  -1.228652
     4  C   -0.536209   0.271693
     5  C    0.382556  -0.615338
     6  C    1.344725  -2.020286
     7  C   -0.827746   0.567730
     8  C   -0.430359   0.650087
     9  C    0.173149  -0.752778
    10  C   -0.239924   0.362357
    11  N   -0.153889   0.313570
    12  N    0.184128  -0.557376
    13  H   -0.154814   0.287340
    14  H   -0.373090   0.512547
    15  H   -0.109175   0.244014
    16  H   -0.178763   0.319647
    17  H   -0.561223   0.720625
    18  H   -0.483347   0.600826
    19  H   -0.282763   0.449622
    20  H    0.012953   0.145142
    21  H    0.029042   0.129416
    22  H    0.135519  -0.002984
    23  H    0.013819   0.140451
    24  H   -0.329948   0.528544
    25  H   -0.084752   0.244265
    26  H   -0.104189   0.255121
    27  H    0.077591   0.040390
    28  H   -0.032171   0.198396
    29  H    0.209797   0.042288
    30  H   -0.318548   0.605415
 Sum of Mulliken charges =  -1.00000   1.00000

 Dipole moment (field-independent basis, Debye):
    X=             -5.6475    Y=             -3.3360    Z=             -3.3071  Tot=              7.3457
 Quadrupole moment (field-independent basis, Debye-Ang):
   XX=           -152.6880   YY=           -115.4380   ZZ=           -110.7912
   XY=             -3.6864   XZ=             -0.6750   YZ=             -2.4730

 Summary of Natural Population Analysis:

                                       Natural Population
                Natural  -----------------------------------------------
    Atom  No    Charge         Core      Valence    Rydberg      Total
 -----------------------------------------------------------------------
      C    1   -0.28745      0.99967     2.28176    0.00602     3.28745
      C    2   -0.19074      0.99964     2.18262    0.00848     3.19074
      C    3   -0.19133      0.99963     2.18216    0.00954     3.19133
      C    4   -0.19349      0.99962     2.18659    0.00728     3.19349
      C    5   -0.18451      0.99962     2.17653    0.00836     3.18451
      C    6   -0.21099      0.99959     2.20122    0.01018     3.21099
      C    7    0.07214      0.99950     1.91385    0.01451     2.92786
      C    8   -0.14684      0.99950     2.13940    0.00794     3.14684
      C    9   -0.15217      0.99957     2.14308    0.00953     3.15217
      C   10   -0.01981      0.99955     2.00844    0.01182     3.01981
      N   11   -0.12294      0.99958     2.61094    0.01241     3.62294
      N   12   -0.31199      0.99976     2.80002    0.01221     3.81199
      H   13    0.09396      0.00000     0.40505    0.00099     0.40604
      H   14    0.10004      0.00000     0.39882    0.00115     0.39996
      H   15    0.09515      0.00000     0.40378    0.00107     0.40485
      H   16    0.09364      0.00000     0.40464    0.00173     0.40636
      H   17    0.09893      0.00000     0.39901    0.00206     0.40107
      H   18    0.09378      0.00000     0.40357    0.00266     0.40622
      H   19    0.09604      0.00000     0.40270    0.00126     0.40396
      H   20    0.09674      0.00000     0.40192    0.00134     0.40326
      H   21    0.09713      0.00000     0.40174    0.00113     0.40287
      H   22    0.09567      0.00000     0.40317    0.00116     0.40433
      H   23    0.09736      0.00000     0.40137    0.00127     0.40264
      H   24    0.10784      0.00000     0.39096    0.00121     0.39216
      H   25    0.10688      0.00000     0.39080    0.00232     0.39312
      H   26    0.10178      0.00000     0.39743    0.00078     0.39822
      H   27    0.10037      0.00000     0.39899    0.00063     0.39963
      H   28    0.10246      0.00000     0.39663    0.00090     0.39754
      H   29    0.18036      0.00000     0.31666    0.00298     0.31964
      H   30    0.18199      0.00000     0.31410    0.00391     0.31801
 =======================================================================
   * Total *    0.00000     11.99522    33.85796    0.14682    46.00000

 Normal termination of Gaussian 16 at Wed Dec  9 18:43:36 2020.
