 Gaussian 16, Revision A.03,

 -----------------------------------------------------------
 # opt freq B3LYP/6-31G(d) empiricaldispersion=gd3bj scf=xqc
 -----------------------------------------------------------

 ------------------------------
 CID_61089818_JID_9456_neutraal
 ------------------------------
 Symbolic Z-matrix:
 Charge =  0 Multiplicity = 1

 SCF Done:  E(RB3LYP) =  -821.408314633     A.U. after   15 cycles
 SCF Done:  E(RB3LYP) =  -821.412098264     A.U. after   13 cycles
 SCF Done:  E(RB3LYP) =  -821.411374725     A.U. after   14 cycles
 SCF Done:  E(RB3LYP) =  -821.413728374     A.U. after   12 cycles
 SCF Done:  E(RB3LYP) =  -821.414172034     A.U. after   12 cycles
 SCF Done:  E(RB3LYP) =  -821.414421510     A.U. after   12 cycles
 SCF Done:  E(RB3LYP) =  -821.414578602     A.U. after   11 cycles
 SCF Done:  E(RB3LYP) =  -821.414641378     A.U. after   11 cycles
 SCF Done:  E(RB3LYP) =  -821.414658667     A.U. after   10 cycles
 SCF Done:  E(RB3LYP) =  -821.414659875     A.U. after    8 cycles
 SCF Done:  E(RB3LYP) =  -821.414660361     A.U. after    8 cycles
 Optimization completed.
    -- Stationary point found.
 Normal termination of Gaussian 16 at Mon Dec 14 18:51:49 2020.

 --------------------------------------------------------------------
 #N Geom=AllCheck Guess=TCheck SCRF=Check GenChk RB3LYP/6-31G(d) Freq
 --------------------------------------------------------------------

 Structure from the checkpoint file:  "JID_9456.chk"
 ------------------------------
 CID_61089818_JID_9456_neutraal
 ------------------------------
 Charge =  0 Multiplicity = 1

 SCF Done:  E(RB3LYP) =  -821.414660361     A.U. after    1 cycles

  Exact polarizability: 219.171  -5.660 184.933  38.859   2.533 135.327
 Approx polarizability: 310.140 -15.830 308.926  81.160   1.611 231.510

                      1                      2                      3
                      A                      A                      A
 Frequencies --     27.2037                29.5437                36.1391
 Red. masses --      4.7839                 3.8595                 4.4563
 Frc consts  --      0.0021                 0.0020                 0.0034
 IR Inten    --      0.1712                 0.5627                 0.3277

                      4                      5                      6
                      A                      A                      A
 Frequencies --     84.8682               110.6557               136.8722
 Red. masses --      6.6476                 4.2318                 1.1056
 Frc consts  --      0.0282                 0.0305                 0.0122
 IR Inten    --      1.3089                 2.2352                 0.0511

                      7                      8                      9
                      A                      A                      A
 Frequencies --    155.3149               165.0274               171.9593
 Red. masses --      4.0116                 2.4714                 1.2897
 Frc consts  --      0.0570                 0.0397                 0.0225
 IR Inten    --      1.5701                 3.0538                 0.5372

                     10                     11                     12
                      A                      A                      A
 Frequencies --    215.9761               225.6538               245.4244
 Red. masses --      3.7647                 3.1943                 3.2265
 Frc consts  --      0.1035                 0.0958                 0.1145
 IR Inten    --      9.1991                 7.4991                 1.4202

                     13                     14                     15
                      A                      A                      A
 Frequencies --    263.2186               292.3401               298.8463
 Red. masses --      4.1877                 1.0696                 2.0225
 Frc consts  --      0.1709                 0.0539                 0.1064
 IR Inten    --      1.2796                 6.8368                19.3231

                     16                     17                     18
                      A                      A                      A
 Frequencies --    304.0457               309.6354               342.0299
 Red. masses --      2.1313                 1.6221                 4.1342
 Frc consts  --      0.1161                 0.0916                 0.2850
 IR Inten    --      4.4314                15.3196                 1.6622

                     19                     20                     21
                      A                      A                      A
 Frequencies --    355.6750               413.6217               434.2194
 Red. masses --      5.2844                 5.8481                 3.3081
 Frc consts  --      0.3939                 0.5895                 0.3675
 IR Inten    --      3.7595                 3.3408                 4.5189

                     22                     23                     24
                      A                      A                      A
 Frequencies --    456.7970               469.5144               513.8606
 Red. masses --      2.9996                 2.8896                 3.7659
 Frc consts  --      0.3688                 0.3753                 0.5859
 IR Inten    --      4.1347                 3.0665                 7.8074

                     25                     26                     27
                      A                      A                      A
 Frequencies --    526.9526               550.0248               567.1103
 Red. masses --      5.6407                 4.7775                 4.0399
 Frc consts  --      0.9228                 0.8516                 0.7655
 IR Inten    --      0.8524                 1.7797                33.6099

                     28                     29                     30
                      A                      A                      A
 Frequencies --    573.9932               587.3045               593.0925
 Red. masses --      1.7977                 2.1268                 2.5230
 Frc consts  --      0.3490                 0.4322                 0.5229
 IR Inten    --     59.9315               109.7206                37.0872

                     31                     32                     33
                      A                      A                      A
 Frequencies --    624.0565               631.7332               672.0800
 Red. masses --      4.1090                 1.7865                 2.8612
 Frc consts  --      0.9428                 0.4201                 0.7614
 IR Inten    --     81.2608               372.4945                68.7682

                     34                     35                     36
                      A                      A                      A
 Frequencies --    683.0603               700.5332               723.5313
 Red. masses --      1.9473                 2.2674                 3.2862
 Frc consts  --      0.5353                 0.6556                 1.0136
 IR Inten    --     73.2422                23.7223                 2.9456

                     37                     38                     39
                      A                      A                      A
 Frequencies --    766.8459               771.0627               804.0665
 Red. masses --      4.5053                 3.7724                 2.5848
 Frc consts  --      1.5610                 1.3214                 0.9846
 IR Inten    --      4.3786                72.6008                 6.6424

                     40                     41                     42
                      A                      A                      A
 Frequencies --    829.9085               837.5345               839.9883
 Red. masses --      1.6522                 1.6114                 1.4722
 Frc consts  --      0.6705                 0.6660                 0.6120
 IR Inten    --     45.1712                 9.2998                12.1149

                     43                     44                     45
                      A                      A                      A
 Frequencies --    856.7822               901.2146               940.6452
 Red. masses --      1.8464                 1.3641                 3.1146
 Frc consts  --      0.7986                 0.6528                 1.6237
 IR Inten    --     39.4919                12.6563                 2.9552

                     46                     47                     48
                      A                      A                      A
 Frequencies --    942.2398               997.7938              1015.1082
 Red. masses --      1.5530                 2.2536                 5.8476
 Frc consts  --      0.8123                 1.3220                 3.5502
 IR Inten    --      2.7920                 1.5301                 2.3533

                     49                     50                     51
                      A                      A                      A
 Frequencies --   1028.2157              1033.4888              1045.4456
 Red. masses --      1.6316                 2.8854                 1.6870
 Frc consts  --      1.0163                 1.8158                 1.0863
 IR Inten    --      2.7753                11.7947                 9.5272

                     52                     53                     54
                      A                      A                      A
 Frequencies --   1060.4813              1085.2284              1119.1311
 Red. masses --      1.4262                 1.5850                 1.6111
 Frc consts  --      0.9450                 1.0998                 1.1889
 IR Inten    --      5.7913                 0.0445                 4.8724

                     55                     56                     57
                      A                      A                      A
 Frequencies --   1145.4600              1155.0993              1165.3369
 Red. masses --      1.3201                 1.8333                 1.3423
 Frc consts  --      1.0205                 1.4412                 1.0740
 IR Inten    --      0.5691                 3.9179                 1.6069

                     58                     59                     60
                      A                      A                      A
 Frequencies --   1199.7810              1236.8535              1246.8390
 Red. masses --      1.7268                 1.6675                 1.9891
 Frc consts  --      1.4645                 1.5030                 1.8219
 IR Inten    --      2.5444                62.6081                10.5721

                     61                     62                     63
                      A                      A                      A
 Frequencies --   1286.3326              1321.7253              1335.8614
 Red. masses --      3.4185                 1.4391                 1.4854
 Frc consts  --      3.3327                 1.4813                 1.5618
 IR Inten    --     32.3235                17.9270                51.8495

                     64                     65                     66
                      A                      A                      A
 Frequencies --   1339.1934              1353.6097              1392.3248
 Red. masses --      2.5108                 4.9836                 5.6305
 Frc consts  --      2.6531                 5.3800                 6.4310
 IR Inten    --    155.1485                61.7295                16.7297

                     67                     68                     69
                      A                      A                      A
 Frequencies --   1414.2140              1438.6674              1449.5899
 Red. masses --      6.6069                 1.3208                 1.7316
 Frc consts  --      7.7854                 1.6107                 2.1438
 IR Inten    --    311.1715                 1.1840                 4.2900

                     70                     71                     72
                      A                      A                      A
 Frequencies --   1453.7291              1487.1836              1506.9121
 Red. masses --      1.5688                 1.7662                 1.0455
 Frc consts  --      1.9533                 2.3015                 1.3987
 IR Inten    --      6.7389                18.3467                 0.0195

                     73                     74                     75
                      A                      A                      A
 Frequencies --   1519.1987              1522.4725              1524.0932
 Red. masses --      3.4038                 1.0474                 1.2490
 Frc consts  --      4.6285                 1.4304                 1.7094
 IR Inten    --     55.1592                14.7584                 1.4015

                     76                     77                     78
                      A                      A                      A
 Frequencies --   1526.7036              1545.0659              1557.6657
 Red. masses --      1.1869                 3.1681                 2.5128
 Frc consts  --      1.6299                 4.4560                 3.5922
 IR Inten    --      3.4250                 4.5500                84.3642

                     79                     80                     81
                      A                      A                      A
 Frequencies --   1636.1855              1658.7988              1666.2135
 Red. masses --      5.8831                 4.8194                 3.7783
 Frc consts  --      9.2794                 7.8132                 6.1803
 IR Inten    --     29.7865                17.9907               152.3432

                     82                     83                     84
                      A                      A                      A
 Frequencies --   1676.5971              1694.7849              1696.7739
 Red. masses --      5.9568                 1.2612                 1.1991
 Frc consts  --      9.8655                 2.1344                 2.0339
 IR Inten    --     36.5976               206.1689                45.8519

                     85                     86                     87
                      A                      A                      A
 Frequencies --   1765.8587              3035.7776              3039.0451
 Red. masses --      8.5670                 1.0388                 1.0387
 Frc consts  --     15.7396                 5.6405                 5.6523
 IR Inten    --    369.4730                30.2063                36.7867

                     88                     89                     90
                      A                      A                      A
 Frequencies --   3081.5629              3085.8743              3125.8294
 Red. masses --      1.1002                 1.1000                 1.0996
 Frc consts  --      6.1553                 6.1717                 6.3302
 IR Inten    --     28.5305                12.5790                22.7734

                     91                     92                     93
                      A                      A                      A
 Frequencies --   3133.0719              3165.3265              3178.6346
 Red. masses --      1.0996                 1.0896                 1.0874
 Frc consts  --      6.3597                 6.4323                 6.4734
 IR Inten    --     13.0923                21.8524                18.3445

                     94                     95                     96
                      A                      A                      A
 Frequencies --   3198.2751              3211.9429              3212.8730
 Red. masses --      1.0943                 1.0900                 1.0907
 Frc consts  --      6.5950                 6.6252                 6.6334
 IR Inten    --     19.6123                 8.1306                 0.4956

                     97                     98                     99
                      A                      A                      A
 Frequencies --   3215.2095              3547.6876              3548.3671
 Red. masses --      1.0910                 1.0480                 1.0479
 Frc consts  --      6.6447                 7.7714                 7.7740
 IR Inten    --      5.3859                15.5043                 5.8510

                    100                    101                    102
                      A                      A                      A
 Frequencies --   3578.2264              3645.9440              3646.7908
 Red. masses --      1.0751                 1.0978                 1.0979
 Frc consts  --      8.1104                 8.5978                 8.6023
 IR Inten    --     30.3813                 7.8237                 6.9806

 - Thermochemistry -
 -------------------
 Temperature   298.150 Kelvin.  Pressure   1.00000 Atm.
 Atom     1 has atomic number  6 and mass  12.00000

 Molecular mass:   255.13716 amu.
 Principal axes and moments of inertia in atomic units:
                           1         2         3
     Eigenvalues --  3255.444177202.932908553.55267
           X            0.99997  -0.00684   0.00265
           Y            0.00679   0.99983   0.01718
           Z           -0.00277  -0.01716   0.99985
 This molecule is an asymmetric top.
 Rotational symmetry number  1.
 Warning -- assumption of classical behavior for rotation
           may cause significant error
 Rotational temperatures (Kelvin)      0.02661     0.01202     0.01013
 Rotational constants (GHZ):           0.55438     0.25056     0.21099
 Zero-point vibrational energy     783175.1 (Joules/Mol)
                                  187.18335 (Kcal/Mol)
 Warning -- explicit consideration of  30 degrees of freedom as
           vibrations may cause significant error
 Vibrational temperatures:     39.14    42.51    52.00   122.11   159.21
          (Kelvin)            196.93   223.46   237.44   247.41   310.74
                              324.67   353.11   378.71   420.61   429.97
                              437.45   445.50   492.10   511.74   595.11
                              624.74   657.23   675.53   739.33   758.17
                              791.36   815.95   825.85   845.00   853.33
                              897.88   908.92   966.97   982.77  1007.91
                             1041.00  1103.32  1109.39  1156.87  1194.05
                             1205.03  1208.56  1232.72  1296.65  1353.38
                             1355.67  1435.60  1460.51  1479.37  1486.96
                             1504.16  1525.80  1561.40  1610.18  1648.06
                             1661.93  1676.66  1726.22  1779.56  1793.92
                             1850.75  1901.67  1922.01  1926.80  1947.54
                             2003.24  2034.74  2069.92  2085.64  2091.59
                             2139.73  2168.11  2185.79  2190.50  2192.83
                             2196.59  2223.01  2241.13  2354.11  2386.64
                             2397.31  2412.25  2438.42  2441.28  2540.68
                             4367.81  4372.51  4433.68  4439.88  4497.37
                             4507.79  4554.20  4573.35  4601.60  4621.27
                             4622.61  4625.97  5104.33  5105.31  5148.27
                             5245.70  5246.92

 Zero-point correction=                           0.298296 (Hartree/Particle)
 Thermal correction to Energy=                    0.316455
 Thermal correction to Enthalpy=                  0.317399
 Thermal correction to Gibbs Free Energy=         0.251736
 Sum of electronic and zero-point Energies=           -821.116365
 Sum of electronic and thermal Energies=              -821.098205
 Sum of electronic and thermal Enthalpies=            -821.097261
 Sum of electronic and thermal Free Energies=         -821.162924

                     E (Thermal)             CV                S
                      KCal/Mol        Cal/Mol-Kelvin    Cal/Mol-Kelvin
 Total                  198.579             70.678            138.200
 Electronic               0.000              0.000              0.000
 Translational            0.889              2.981             42.510
 Rotational               0.889              2.981             33.661
 Vibrational            196.801             64.717             62.029
 Vibration     1          0.593              1.984              6.024
 Vibration     2          0.593              1.984              5.860
 Vibration     3          0.594              1.982              5.460
 Vibration     4          0.601              1.960              3.775
 Vibration     5          0.606              1.941              3.257
 Vibration     6          0.614              1.917              2.847
 Vibration     7          0.620              1.897              2.606
 Vibration     8          0.623              1.885              2.491
 Vibration     9          0.626              1.877              2.414
 Vibration    10          0.645              1.817              1.993
 Vibration    11          0.650              1.802              1.913
 Vibration    12          0.660              1.770              1.763
 Vibration    13          0.670              1.740              1.640
 Vibration    14          0.688              1.688              1.460
 Vibration    15          0.692              1.676              1.423
 Vibration    16          0.695              1.666              1.395
 Vibration    17          0.699              1.655              1.364
 Vibration    18          0.721              1.591              1.203
 Vibration    19          0.731              1.564              1.141
 Vibration    20          0.777              1.441              0.914
 Vibration    21          0.795              1.396              0.845
 Vibration    22          0.815              1.346              0.775
 Vibration    23          0.827              1.318              0.739
 Vibration    24          0.869              1.219              0.624
 Vibration    25          0.882              1.190              0.594
 Vibration    26          0.905              1.140              0.544
 Vibration    27          0.923              1.102              0.510
 Vibration    28          0.930              1.088              0.497
 Vibration    29          0.944              1.059              0.472
 Vibration    30          0.951              1.046              0.462

                           ! Non-Optimized Parameters !
 Normal termination of Gaussian 16 at Mon Dec 14 19:11:21 2020.

 ----------------------------------------------------------------------
 # B3LYP/6-311++G(d,p) empiricaldispersion=gd3bj scf=xqc pop=npa geom=c
 heck
 ----------------------------------------------------------------------

 --------------------------------------
 CID_61089818_JID_9456_Energie_neutraal
 --------------------------------------
 Structure from the checkpoint file:  "JID_9456.chk"
 Charge =  0 Multiplicity = 1

 SCF Done:  E(RB3LYP) =  -821.650599820     A.U. after   16 cycles
 Normal termination of Gaussian 16 at Mon Dec 14 19:20:22 2020.

 ----------------------------------------------------------------------
 # B3LYP/6-311++G(d,p) empiricaldispersion=gd3bj scf=xqc pop=npa geom=c
 heck
 ----------------------------------------------------------------------

 ------------------------------------
 CID_61089818_JID_9456_Energie_kation
 ------------------------------------
 Structure from the checkpoint file:  "JID_9456.chk"
 Charge =  1 Multiplicity = 2

 SCF Done:  E(UB3LYP) =  -821.386369077     A.U. after   25 cycles
 Normal termination of Gaussian 16 at Mon Dec 14 19:40:58 2020.
 Gaussian 16:  ES64L-G16RevA.03 25-Dec-2016

 ----------------------------------------------------------------------
 # B3LYP/6-311++G(d,p) empiricaldispersion=gd3bj scf=xqc pop=npa geom=c
 heck
 ----------------------------------------------------------------------

 -----------------------------------
 CID_61089818_JID_9456_Energie_anion
 -----------------------------------
 Structure from the checkpoint file:  "JID_9456.chk"
 Charge = -1 Multiplicity = 2

                         Standard orientation:
 ---------------------------------------------------------------------
 Center     Atomic      Atomic             Coordinates (Angstroms)
 Number     Number       Type             X           Y           Z
 ---------------------------------------------------------------------
      1          6           0        4.608424   -1.514917   -0.186775
      2          6           0        3.481298   -0.516564   -0.103113
      3          6           0        2.324986   -0.662283   -0.898593
      4          6           0        1.303523    0.282697   -0.811234
      5          6           0        1.384775    1.359773    0.079675
      6          6           0        2.529103    1.506126    0.866007
      7          6           0        3.563652    0.578351    0.760166
      8          7           0        0.353856    2.325749    0.181860
      9          6           0       -1.009092    2.195626   -0.021497
     10          8           0       -1.683930    3.184492   -0.285301
     11          6           0       -1.625094    0.841342    0.147476
     12          6           0       -2.707747    0.527403   -0.674101
     13          6           0       -3.341414   -0.716260   -0.542381
     14          6           0       -2.884386   -1.620020    0.425984
     15          6           0       -1.813104   -1.292786    1.267299
     16          6           0       -1.178276   -0.051186    1.123706
     17          7           0       -1.412883   -2.173399    2.277597
     18          7           0       -4.380122   -1.075131   -1.407202
     19          6           0        2.191679   -1.821363   -1.854945
     20          1           0        4.272719   -2.529996    0.062381
     21          1           0        5.032430   -1.565227   -1.198057
     22          1           0        5.417972   -1.252990    0.500917
     23          1           0        0.425878    0.177762   -1.439380
     24          1           0        2.601053    2.336270    1.563292
     25          1           0        4.452209    0.702835    1.374248
     26          1           0        0.641066    3.297971    0.180214
     27          1           0       -3.049999    1.255193   -1.402311
     28          1           0       -3.372525   -2.587198    0.530212
     29          1           0       -0.348938    0.210039    1.771649
     30          1           0       -1.625675   -3.146680    2.096603
     31          1           0       -0.450094   -2.058406    2.569739
     32          1           0       -5.031552   -1.749979   -1.025309
     33          1           0       -4.869104   -0.287573   -1.814968
     34          1           0        2.240659   -2.783560   -1.329022
     35          1           0        1.239905   -1.782270   -2.391898
     36          1           0        2.999513   -1.828313   -2.597730
 ---------------------------------------------------------------------

 SCF Done:  E(UB3LYP) =  -821.644018559     A.U. after   33 cycles
 SCF Done:  E(UB3LYP) =  -821.645568473     a.u. after    6 cycles

 The electronic state is 2-A.
 Alpha  occ. eigenvalues --  -18.96782 -14.23191 -14.21588 -14.21110 -10.14900
 Alpha  occ. eigenvalues --  -10.11114 -10.10205 -10.10186 -10.08244 -10.07670
 Alpha  occ. eigenvalues --  -10.07540 -10.07287 -10.07285 -10.07126 -10.06731
 Alpha  occ. eigenvalues --  -10.06206 -10.04905 -10.04561 -10.04554  -0.92209
 Alpha  occ. eigenvalues --   -0.82469  -0.81905  -0.80736  -0.75557  -0.71734
 Alpha  occ. eigenvalues --   -0.67699  -0.66474  -0.63500  -0.61061  -0.60226
 Alpha  occ. eigenvalues --   -0.58189  -0.53665  -0.50631  -0.49601  -0.49145
 Alpha  occ. eigenvalues --   -0.46455  -0.42961  -0.42204  -0.40878  -0.38799
 Alpha  occ. eigenvalues --   -0.37900  -0.37246  -0.36945  -0.34790  -0.33992
 Alpha  occ. eigenvalues --   -0.33920  -0.33343  -0.31670  -0.31394  -0.30534
 Alpha  occ. eigenvalues --   -0.29957  -0.29697  -0.29289  -0.28890  -0.28184
 Alpha  occ. eigenvalues --   -0.26191  -0.25620  -0.25181  -0.24824  -0.24344
 Alpha  occ. eigenvalues --   -0.23503  -0.18965  -0.17955  -0.15081  -0.14408
 Alpha  occ. eigenvalues --   -0.12144  -0.11298  -0.09334   0.04077
 Alpha virt. eigenvalues --    0.05804   0.06115   0.07088   0.07543   0.08154
 Alpha virt. eigenvalues --    0.08423   0.08704   0.09307   0.09931   0.10256
 Alpha virt. eigenvalues --    0.10395   0.11250   0.11776   0.12158   0.12398

  Beta  occ. eigenvalues --  -18.96600 -14.23218 -14.21567 -14.21084 -10.14745
  Beta  occ. eigenvalues --  -10.11055 -10.10205 -10.10204 -10.08249 -10.07612
  Beta  occ. eigenvalues --  -10.07539 -10.07275 -10.07265 -10.07107 -10.06721
  Beta  occ. eigenvalues --  -10.06137 -10.04797 -10.04520 -10.04484  -0.91897
  Beta  occ. eigenvalues --   -0.82364  -0.81854  -0.80691  -0.75495  -0.71597
  Beta  occ. eigenvalues --   -0.67645  -0.66402  -0.63289  -0.60924  -0.60172
  Beta  occ. eigenvalues --   -0.58102  -0.53399  -0.50546  -0.49550  -0.49058
  Beta  occ. eigenvalues --   -0.46345  -0.42908  -0.42157  -0.40821  -0.38726
  Beta  occ. eigenvalues --   -0.37794  -0.37157  -0.36883  -0.34702  -0.33892
  Beta  occ. eigenvalues --   -0.33815  -0.33265  -0.31508  -0.31291  -0.30486
  Beta  occ. eigenvalues --   -0.29804  -0.29597  -0.29241  -0.28603  -0.27950
  Beta  occ. eigenvalues --   -0.25942  -0.25565  -0.25094  -0.24660  -0.24305
  Beta  occ. eigenvalues --   -0.23424  -0.18727  -0.17527  -0.14981  -0.14210
  Beta  occ. eigenvalues --   -0.11772  -0.10908  -0.09006
  Beta virt. eigenvalues --    0.06152   0.06636   0.07299   0.07564   0.07671
  Beta virt. eigenvalues --    0.08235   0.08592   0.09167   0.09628   0.10067
  Beta virt. eigenvalues --    0.10467   0.10659   0.11355   0.11790   0.12327

 Mulliken charges and spin densities:
               1          2
     1  C    1.012627  -1.672048
     2  C   -0.820717   1.103291
     3  C   -0.600212   0.893542
     4  C    0.014449   0.093157
     5  C   -0.206470  -0.194737
     6  C   -0.023729   0.017870
     7  C   -0.040496  -0.370853
     8  N   -0.214716  -0.024669
     9  C   -0.400494  -0.067651
    10  O   -0.340842   0.064139
    11  C    0.687631  -0.101778
    12  C    0.148907   0.024721
    13  C    0.108379  -0.545509
    14  C   -0.612755   1.031158
    15  C   -0.481645  -0.114976
    16  C    0.475359  -0.809922
    17  N   -0.258976  -0.054281
    18  N   -0.318221   0.012486
    19  C    0.310798  -0.817002
    20  H   -0.207439   0.367836
    21  H    0.050955   0.090722
    22  H   -0.223141   0.364080
    23  H    0.167109   0.055299
    24  H    0.148175   0.011151
    25  H    0.032705   0.087465
    26  H    0.286724   0.011436
    27  H    0.148891   0.027070
    28  H   -0.319809   0.431013
    29  H    0.191914  -0.013095
    30  H   -0.037013   0.274050
    31  H    0.077500   0.162521
    32  H    0.000723   0.236212
    33  H    0.174191   0.055250
    34  H   -0.028114   0.192512
    35  H    0.067711   0.072944
    36  H    0.030043   0.106596
 Sum of Mulliken charges =  -1.00000   1.00000

 Dipole moment (field-independent basis, Debye):
    X=              2.3552    Y=              1.9456    Z=             -1.0135  Tot=              3.2186
 Quadrupole moment (field-independent basis, Debye-Ang):
   XX=           -177.0460   YY=           -160.1444   ZZ=           -137.5406
   XY=             11.6266   XZ=              4.1867   YZ=              5.2559

 Summary of Natural Population Analysis:

                                       Natural Population
                Natural  -----------------------------------------------
    Atom  No    Charge         Core      Valence    Rydberg      Total
 -----------------------------------------------------------------------
      C    1   -0.29382      0.99964     2.28873    0.00544     3.29382
      C    2   -0.01628      0.99947     2.00741    0.00940     3.01628
      C    3   -0.01057      0.99948     2.00196    0.00913     3.01057
      C    4   -0.10224      0.99947     2.09433    0.00844     3.10224
      C    5    0.08579      0.99946     1.90381    0.01093     2.91421
      C    6   -0.11590      0.99952     2.10708    0.00930     3.11590
      C    7   -0.09866      0.99952     2.08969    0.00945     3.09866
      N    8   -0.32161      0.99964     2.81203    0.00994     3.82161
      C    9    0.36073      0.99962     1.61757    0.02208     2.63927
      O   10   -0.30436      0.99988     3.29916    0.00532     4.30436
      C   11   -0.04146      0.99947     2.03171    0.01028     3.04146
      C   12   -0.12216      0.99949     2.11334    0.00933     3.12216
      C   13    0.08829      0.99950     1.90182    0.01038     2.91171
      C   14   -0.12951      0.99948     2.12091    0.00913     3.12951
      C   15    0.08838      0.99950     1.90128    0.01085     2.91162
      C   16   -0.11877      0.99949     2.11051    0.00876     3.11877
      N   17   -0.39844      0.99971     2.88929    0.00944     3.89844
      N   18   -0.40020      0.99972     2.89093    0.00955     3.90020
      C   19   -0.29393      0.99964     2.28847    0.00581     3.29393
      H   20    0.10648      0.00000     0.39156    0.00196     0.39352
      H   21    0.10045      0.00000     0.39861    0.00094     0.39955
      H   22    0.10013      0.00000     0.39897    0.00089     0.39987
      H   23    0.10811      0.00000     0.39040    0.00149     0.39189
      H   24    0.09823      0.00000     0.40082    0.00095     0.40177
      H   25    0.09607      0.00000     0.40310    0.00083     0.40393
      H   26    0.19423      0.00000     0.30426    0.00151     0.30577
      H   27    0.10327      0.00000     0.39527    0.00145     0.39673
      H   28    0.09301      0.00000     0.40544    0.00155     0.40699
      H   29    0.10158      0.00000     0.39697    0.00145     0.39842
      H   30    0.18270      0.00000     0.31567    0.00162     0.31730
      H   31    0.18509      0.00000     0.31333    0.00158     0.31491
      H   32    0.18321      0.00000     0.31499    0.00180     0.31679
      H   33    0.18163      0.00000     0.31706    0.00131     0.31837
      H   34    0.10577      0.00000     0.39318    0.00105     0.39423
      H   35    0.10402      0.00000     0.39525    0.00073     0.39598
      H   36    0.10075      0.00000     0.39833    0.00092     0.39925
 =======================================================================
   * Total *   -0.00000     18.99170    48.80327    0.20503    68.00000

 Normal termination of Gaussian 16 at Mon Dec 14 21:58:46 2020.
