 Gaussian 16, Revision A.03,

 -----------------------------------------------------------
 # opt freq B3LYP/6-31G(d) empiricaldispersion=gd3bj scf=xqc
 -----------------------------------------------------------

 ------------------------------
 CID_20326102_JID_2363_neutraal
 ------------------------------
 Symbolic Z-matrix:
 Charge =  0 Multiplicity = 1

 SCF Done:  E(RB3LYP) =  -563.382806613     A.U. after   14 cycles
 SCF Done:  E(RB3LYP) =  -563.389071859     A.U. after   12 cycles
 SCF Done:  E(RB3LYP) =  -563.389440791     A.U. after   11 cycles
 SCF Done:  E(RB3LYP) =  -563.389466830     A.U. after    9 cycles
 SCF Done:  E(RB3LYP) =  -563.389468998     A.U. after    7 cycles
 Optimization completed.
    -- Stationary point found.
 Normal termination of Gaussian 16 at Wed Dec  9 17:08:25 2020.

 --------------------------------------------------------------------
 #N Geom=AllCheck Guess=TCheck SCRF=Check GenChk RB3LYP/6-31G(d) Freq
 --------------------------------------------------------------------

 Structure from the checkpoint file:  "JID_2363.chk"
 ------------------------------
 CID_20326102_JID_2363_neutraal
 ------------------------------
 Charge =  0 Multiplicity = 1

 SCF Done:  E(RB3LYP) =  -563.389468998     A.U. after    2 cycles

  Exact polarizability: 142.707  -0.000 101.370  -0.000   0.000  36.192
 Approx polarizability: 219.284  -0.000 207.391  -0.000   0.000  58.134

                      1                      2                      3
                      A                      A                      A
 Frequencies --    109.7309               143.4077               160.6074
 Red. masses --      5.8146                 7.7807                 7.2259
 Frc consts  --      0.0413                 0.0943                 0.1098
 IR Inten    --      0.1195                 0.0000                14.3598

                      4                      5                      6
                      A                      A                      A
 Frequencies --    295.7044               297.5652               314.1536
 Red. masses --      5.7495                 6.6364                 9.0166
 Frc consts  --      0.2962                 0.3462                 0.5243
 IR Inten    --      0.2411                 0.0000                 8.6552

                      7                      8                      9
                      A                      A                      A
 Frequencies --    542.7537               583.2552               605.8219
 Red. masses --      6.9971                 8.3114                 4.1226
 Frc consts  --      1.2144                 1.6659                 0.8915
 IR Inten    --      0.0011                19.0415                 0.0830

                     10                     11                     12
                      A                      A                      A
 Frequencies --    608.5634               652.3267               675.8254
 Red. masses --      3.8382                12.0194                 7.2052
 Frc consts  --      0.8375                 3.0134                 1.9389
 IR Inten    --      0.0000                 0.4143                 5.8555

                     13                     14                     15
                      A                      A                      A
 Frequencies --    707.1622               737.5496               741.1374
 Red. masses --      4.2380                 3.5186                 1.4626
 Frc consts  --      1.2487                 1.1277                 0.4733
 IR Inten    --      0.0000                 0.1426                 0.0000

                     16                     17                     18
                      A                      A                      A
 Frequencies --    746.6423               842.7088               865.4354
 Red. masses --      1.6853                 9.1551                 1.3194
 Frc consts  --      0.5536                 3.8306                 0.5822
 IR Inten    --     96.0907                40.0459                 9.2930

                     19                     20                     21
                      A                      A                      A
 Frequencies --    866.0073               910.8715               945.5551
 Red. masses --      1.3276                 6.8785                 6.3583
 Frc consts  --      0.5866                 3.3625                 3.3494
 IR Inten    --      0.0000                 3.8106                 2.3146

                     22                     23                     24
                      A                      A                      A
 Frequencies --   1076.5643              1081.6156              1089.7819
 Red. masses --      1.5715                 2.4168                 2.5818
 Frc consts  --      1.0731                 1.6658                 1.8066
 IR Inten    --      2.9074                46.1218                10.2431

                     25                     26                     27
                      A                      A                      A
 Frequencies --   1109.4611              1122.4808              1194.1429
 Red. masses --      2.9542                 3.0672                 4.1763
 Frc consts  --      2.1424                 2.2769                 3.5088
 IR Inten    --     16.6286                17.1243                 3.4235

                     28                     29                     30
                      A                      A                      A
 Frequencies --   1244.7275              1268.1841              1350.0685
 Red. masses --      2.8489                 3.0917                 2.9047
 Frc consts  --      2.6006                 2.9296                 3.1193
 IR Inten    --     54.9474               116.1342                54.1180

                     31                     32                     33
                      A                      A                      A
 Frequencies --   1373.5577              1405.6353              1453.5682
 Red. masses --      3.0363                 5.5472                 6.6343
 Frc consts  --      3.3751                 6.4576                 8.2588
 IR Inten    --     15.8649                86.7913                29.4068

                     34                     35                     36
                      A                      A                      A
 Frequencies --   1500.1099              1523.6515              1591.6698
 Red. masses --      4.5303                 4.1757                 7.8331
 Frc consts  --      6.0066                 5.7114                11.6920
 IR Inten    --     15.3636                26.3124                50.5558

                     37                     38                     39
                      A                      A                      A
 Frequencies --   1671.1043              1897.2619              3277.9774
 Red. masses --     11.3590                13.0223                 1.0939
 Frc consts  --     18.6895                27.6180                 6.9254
 IR Inten    --     69.9390               466.6315                10.6186

                     40                     41                     42
                      A                      A                      A
 Frequencies --   3278.2861              3317.1055              3317.4326
 Red. masses --      1.0942                 1.1021                 1.1024
 Frc consts  --      6.9286                 7.1448                 7.1480
 IR Inten    --      0.6974                 0.0697                 4.2746

 - Thermochemistry -
 -------------------
 Temperature   298.150 Kelvin.  Pressure   1.00000 Atm.
 Atom     1 has atomic number  6 and mass  12.00000

 Molecular mass:   160.03851 amu.
 Principal axes and moments of inertia in atomic units:
                           1         2         3
     Eigenvalues --   922.342711882.382552804.72526
           X            1.00000  -0.00000  -0.00000
           Y            0.00000   1.00000   0.00000
           Z            0.00000  -0.00000   1.00000
 This molecule is an asymmetric top.
 Rotational symmetry number  1.
 Warning -- assumption of classical behavior for rotation
           may cause significant error
 Rotational temperatures (Kelvin)      0.09391     0.04601     0.03088
 Rotational constants (GHZ):           1.95669     0.95875     0.64346
 Zero-point vibrational energy     290077.5 (Joules/Mol)
                                   69.33019 (Kcal/Mol)
 Warning -- explicit consideration of  10 degrees of freedom as
           vibrations may cause significant error
 Vibrational temperatures:    157.88   206.33   231.08   425.45   428.13
          (Kelvin)            452.00   780.90   839.17   871.64   875.59
                              938.55   972.36  1017.45  1061.17  1066.33
                             1074.25  1212.47  1245.17  1245.99  1310.54
                             1360.44  1548.94  1556.20  1567.95  1596.27
                             1615.00  1718.11  1790.89  1824.63  1942.45
                             1976.24  2022.40  2091.36  2158.32  2192.19
                             2290.06  2404.35  2729.74  4716.28  4716.72
                             4772.57  4773.05

 Zero-point correction=                           0.110485 (Hartree/Particle)
 Thermal correction to Energy=                    0.118402
 Thermal correction to Enthalpy=                  0.119346
 Thermal correction to Gibbs Free Energy=         0.077130
 Sum of electronic and zero-point Energies=           -563.278984
 Sum of electronic and thermal Energies=              -563.271067
 Sum of electronic and thermal Enthalpies=            -563.270123
 Sum of electronic and thermal Free Energies=         -563.312339

                     E (Thermal)             CV                S
                      KCal/Mol        Cal/Mol-Kelvin    Cal/Mol-Kelvin
 Total                   74.298             31.100             88.852
 Electronic               0.000              0.000              0.000
 Translational            0.889              2.981             41.120
 Rotational               0.889              2.981             29.966
 Vibrational             72.521             25.139             17.766
 Vibration     1          0.606              1.941              3.274
 Vibration     2          0.616              1.910              2.758
 Vibration     3          0.622              1.891              2.543
 Vibration     4          0.690              1.682              1.441
 Vibration     5          0.691              1.678              1.431
 Vibration     6          0.702              1.647              1.340
 Vibration     7          0.898              1.156              0.559
 Vibration     8          0.940              1.068              0.479
 Vibration     9          0.964              1.019              0.440
 Vibration    10          0.967              1.014              0.435

 Optimization completed.
    -- Stationary point found.
 Normal termination of Gaussian 16 at Wed Dec  9 17:11:43 2020.

 ----------------------------------------------------------------------
 # B3LYP/6-311++G(d,p) empiricaldispersion=gd3bj scf=xqc pop=npa geom=c
 heck
 ----------------------------------------------------------------------

 --------------------------------------
 CID_20326102_JID_2363_Energie_neutraal
 --------------------------------------
 Structure from the checkpoint file:  "JID_2363.chk"
 Charge =  0 Multiplicity = 1

 SCF Done:  E(RB3LYP) =  -563.537533179     A.U. after   13 cycles
 Normal termination of Gaussian 16 at Wed Dec  9 17:13:20 2020.

 ----------------------------------------------------------------------
 # B3LYP/6-311++G(d,p) empiricaldispersion=gd3bj scf=xqc pop=npa geom=c
 heck
 ----------------------------------------------------------------------

 ------------------------------------
 CID_20326102_JID_2363_Energie_kation
 ------------------------------------
 Structure from the checkpoint file:  "JID_2363.chk"
 Charge =  1 Multiplicity = 2

 SCF Done:  E(UB3LYP) =  -563.222285987     A.U. after   18 cycles
 Normal termination of Gaussian 16 at Wed Dec  9 17:15:22 2020.
 Gaussian 16:  ES64L-G16RevA.03 25-Dec-2016

 ----------------------------------------------------------------------
 # B3LYP/6-311++G(d,p) empiricaldispersion=gd3bj scf=xqc pop=npa geom=c
 heck
 ----------------------------------------------------------------------

 -----------------------------------
 CID_20326102_JID_2363_Energie_anion
 -----------------------------------
 Structure from the checkpoint file:  "JID_2363.chk"
 Charge = -1 Multiplicity = 2

                         Standard orientation:
 ---------------------------------------------------------------------
 Center     Atomic      Atomic             Coordinates (Angstroms)
 Number     Number       Type             X           Y           Z
 ---------------------------------------------------------------------
      1          6           0        2.862707   -0.787092    0.000000
      2          6           0        2.484385    0.531624    0.000010
      3          7           0        1.099129    0.490798   -0.000002
      4          6           0        0.728991   -0.852050   -0.000003
      5          7           0        1.762391   -1.647019   -0.000000
      6          6           0       -0.728991   -0.852050   -0.000007
      7          7           0       -1.762393   -1.647017    0.000001
      8          6           0       -2.862708   -0.787091    0.000008
      9          6           0       -2.484384    0.531625    0.000004
     10          7           0       -1.099128    0.490798   -0.000011
     11          6           0        0.000001    1.380475   -0.000008
     12          8           0        0.000001    2.580569    0.000002
     13          1           0        3.868080   -1.183225   -0.000001
     14          1           0        3.035477    1.458163    0.000016
     15          1           0       -3.868083   -1.183221    0.000015
     16          1           0       -3.035475    1.458164    0.000006
 ---------------------------------------------------------------------

 SCF Done:  E(UB3LYP) =  -563.581337190     A.U. after   17 cycles

 The electronic state is 2-A.
 Alpha  occ. eigenvalues --  -18.95691 -14.22655 -14.22653 -14.15285 -14.15283
 Alpha  occ. eigenvalues --  -10.15172 -10.08208 -10.08175 -10.06405 -10.06404
 Alpha  occ. eigenvalues --  -10.05542 -10.05541  -0.93819  -0.88530  -0.86089
 Alpha  occ. eigenvalues --   -0.76545  -0.72210  -0.65470  -0.58384  -0.54645
 Alpha  occ. eigenvalues --   -0.49049  -0.46065  -0.44099  -0.43604  -0.36011
 Alpha  occ. eigenvalues --   -0.35459  -0.33925  -0.32305  -0.30546  -0.29490
 Alpha  occ. eigenvalues --   -0.27878  -0.27786  -0.26409  -0.25805  -0.16399
 Alpha  occ. eigenvalues --   -0.15840  -0.14772  -0.13973  -0.13918  -0.12987
 Alpha  occ. eigenvalues --   -0.07665   0.02217
 Alpha virt. eigenvalues --    0.09512   0.09656   0.11465   0.11915   0.14535
 Alpha virt. eigenvalues --    0.14765   0.15586   0.15724   0.17175   0.17277
 Alpha virt. eigenvalues --    0.17347   0.17992   0.19716   0.19873   0.20853

  Beta  occ. eigenvalues --  -18.95202 -14.22716 -14.22714 -14.15062 -14.15060
  Beta  occ. eigenvalues --  -10.14766 -10.08021 -10.07989 -10.06196 -10.06196
  Beta  occ. eigenvalues --  -10.05593 -10.05592  -0.93214  -0.87965  -0.85917
  Beta  occ. eigenvalues --   -0.76088  -0.71928  -0.65030  -0.58160  -0.53792
  Beta  occ. eigenvalues --   -0.48932  -0.45777  -0.43746  -0.43431  -0.35844
  Beta  occ. eigenvalues --   -0.34246  -0.33647  -0.31932  -0.30402  -0.29090
  Beta  occ. eigenvalues --   -0.27708  -0.27319  -0.26214  -0.23620  -0.16049
  Beta  occ. eigenvalues --   -0.14164  -0.13921  -0.13651  -0.12704  -0.12657
  Beta  occ. eigenvalues --   -0.06839
  Beta virt. eigenvalues --    0.08566   0.09497   0.09639   0.11459   0.11906
  Beta virt. eigenvalues --    0.14562   0.15153   0.16208   0.16355   0.17191
  Beta virt. eigenvalues --    0.17354   0.17357   0.18001   0.19697   0.20730

 Mulliken charges and spin densities:
               1          2
     1  C    0.075772  -0.032667
     2  C   -0.193485   0.160971
     3  N   -0.046520  -0.045522
     4  C   -0.246148   0.113529
     5  N   -0.239789   0.112652
     6  C   -0.246149   0.113528
     7  N   -0.239789   0.112652
     8  C    0.075774  -0.032668
     9  C   -0.193486   0.160972
    10  N   -0.046519  -0.045521
    11  C    0.248917   0.221841
    12  O   -0.460069   0.180496
    13  H    0.129788   0.002256
    14  H    0.125959  -0.012388
    15  H    0.129788   0.002256
    16  H    0.125958  -0.012388
 Sum of Mulliken charges =  -1.00000   1.00000

 Dipole moment (field-independent basis, Debye):
    X=              0.0000    Y=              1.8997    Z=             -0.0000  Tot=              1.8997
 Quadrupole moment (field-independent basis, Debye-Ang):
   XX=            -80.4858   YY=            -99.9587   ZZ=            -74.3871
   XY=              0.0000   XZ=             -0.0000   YZ=             -0.0000

 Summary of Natural Population Analysis:

                                       Natural Population
                Natural  -----------------------------------------------
    Atom  No    Charge         Core      Valence    Rydberg      Total
 -----------------------------------------------------------------------
      C    1   -0.05630      0.99960     2.04227    0.01443     3.05630
      C    2    0.00407      0.99958     1.98550    0.01085     2.99593
      N    3   -0.23912      0.99960     2.72903    0.01050     3.73912
      C    4    0.20754      0.99958     1.77711    0.01577     2.79246
      N    5   -0.21750      0.99969     2.70692    0.01089     3.71750
      C    6    0.19944      0.99960     1.78239    0.01857     2.80056
      N    7   -0.20056      0.99969     2.69517    0.00571     3.70056
      C    8   -0.06258      0.99961     2.04600    0.01697     3.06258
      C    9    0.00394      0.99958     1.98533    0.01116     2.99606
      N   10   -0.24008      0.99960     2.72918    0.01130     3.74008
      C   11    0.47714      0.99970     1.50163    0.02153     2.52286
      O   12   -0.25116      0.99987     3.24599    0.00530     4.25116
      H   13    0.08805      0.00000     0.41095    0.00100     0.41195
      H   14    0.10002      0.00000     0.39908    0.00090     0.39998
      H   15    0.08772      0.00000     0.41098    0.00130     0.41228
      H   16    0.09997      0.00000     0.39910    0.00093     0.40003
 =======================================================================
   * Total *    0.00058     11.99569    28.84663    0.15710    40.99942

 Normal termination of Gaussian 16 at Wed Dec  9 17:17:07 2020.
