 Gaussian 16, Revision A.03,

 -----------------------------------------------------------
 # opt freq B3LYP/6-31G(d) empiricaldispersion=gd3bj scf=xqc
 -----------------------------------------------------------

 ------------------------------
 CID_72819977_JID_6410_neutraal
 ------------------------------
 Symbolic Z-matrix:
 Charge =  0 Multiplicity = 1

 SCF Done:  E(RB3LYP) =  -797.368672451     A.U. after   15 cycles
 SCF Done:  E(RB3LYP) =  -797.375107592     A.U. after   12 cycles
 SCF Done:  E(RB3LYP) =  -797.374896132     A.U. after   12 cycles
 SCF Done:  E(RB3LYP) =  -797.375811348     A.U. after   12 cycles
 SCF Done:  E(RB3LYP) =  -797.376116429     A.U. after   11 cycles
 SCF Done:  E(RB3LYP) =  -797.376351213     A.U. after   12 cycles
 SCF Done:  E(RB3LYP) =  -797.376510671     A.U. after   11 cycles
 SCF Done:  E(RB3LYP) =  -797.376619977     A.U. after   11 cycles
 SCF Done:  E(RB3LYP) =  -797.376662166     A.U. after   11 cycles
 SCF Done:  E(RB3LYP) =  -797.376692045     A.U. after   11 cycles
 SCF Done:  E(RB3LYP) =  -797.379496077     A.U. after    9 cycles
 SCF Done:  E(RB3LYP) =  -797.379497881     A.U. after    9 cycles
 SCF Done:  E(RB3LYP) =  -797.379499092     A.U. after    9 cycles
 SCF Done:  E(RB3LYP) =  -797.379499482     A.U. after    8 cycles
 SCF Done:  E(RB3LYP) =  -797.379499530     A.U. after    7 cycles
 Optimization completed.
    -- Stationary point found.
 Normal termination of Gaussian 16 at Thu Dec 10 23:08:05 2020.

 --------------------------------------------------------------------
 #N Geom=AllCheck Guess=TCheck SCRF=Check GenChk RB3LYP/6-31G(d) Freq
 --------------------------------------------------------------------

 Structure from the checkpoint file:  "JID_6410.chk"
 ------------------------------
 CID_72819977_JID_6410_neutraal
 ------------------------------
 Charge =  0 Multiplicity = 1

 SCF Done:  E(RB3LYP) =  -797.379499530     A.U. after    1 cycles

  Exact polarizability: 159.969  -7.379 119.463  11.311  -1.865  99.384
 Approx polarizability: 204.149 -10.783 180.890  28.766 -10.212 157.936

                      1                      2                      3
                      A                      A                      A
 Frequencies --     17.1921                22.3811                51.8080
 Red. masses --      4.1615                 5.4566                 6.5048
 Frc consts  --      0.0007                 0.0016                 0.0103
 IR Inten    --      1.7804                 3.1569                 1.3346

                      4                      5                      6
                      A                      A                      A
 Frequencies --     74.1344                90.3260               108.5949
 Red. masses --      6.2695                 3.6794                 2.9499
 Frc consts  --      0.0203                 0.0177                 0.0205
 IR Inten    --      1.3349                 1.6790                 7.2447

                      7                      8                      9
                      A                      A                      A
 Frequencies --    134.6965               150.4412               158.3758
 Red. masses --      4.1560                 5.2068                 5.8998
 Frc consts  --      0.0444                 0.0694                 0.0872
 IR Inten    --      2.2452                 2.8784                 2.7618

                     10                     11                     12
                      A                      A                      A
 Frequencies --    206.6060               222.8357               255.6239
 Red. masses --      4.1039                 1.1583                 2.8013
 Frc consts  --      0.1032                 0.0339                 0.1078
 IR Inten    --      0.5010                 0.0589                 2.6345

                     13                     14                     15
                      A                      A                      A
 Frequencies --    281.3013               308.8844               324.2862
 Red. masses --      1.1851                 3.9907                 2.1787
 Frc consts  --      0.0553                 0.2243                 0.1350
 IR Inten    --     29.1406                 1.0836                 2.4738

                     16                     17                     18
                      A                      A                      A
 Frequencies --    337.6289               372.3451               394.5572
 Red. masses --      2.7073                 3.0602                 6.9624
 Frc consts  --      0.1818                 0.2500                 0.6386
 IR Inten    --      0.8378                 9.2185                30.8417

                     19                     20                     21
                      A                      A                      A
 Frequencies --    441.3262               491.3918               525.4623
 Red. masses --      4.8849                 2.7747                 2.6755
 Frc consts  --      0.5606                 0.3947                 0.4353
 IR Inten    --     16.8648                15.1417                20.6779

                     22                     23                     24
                      A                      A                      A
 Frequencies --    538.4096               566.1370               593.5048
 Red. masses --      5.9629                 3.5577                 3.7451
 Frc consts  --      1.0184                 0.6718                 0.7772
 IR Inten    --     14.0674                27.2940                 0.5143

                     25                     26                     27
                      A                      A                      A
 Frequencies --    662.3303               675.2657               719.3809
 Red. masses --      1.7629                 1.7252                 4.7850
 Frc consts  --      0.4557                 0.4635                 1.4590
 IR Inten    --     27.7626                60.7973                10.5153

                     28                     29                     30
                      A                      A                      A
 Frequencies --    753.7751               757.6821               781.2361
 Red. masses --      4.5640                 6.4139                 1.6620
 Frc consts  --      1.5279                 2.1694                 0.5976
 IR Inten    --      8.1678                46.6902                63.0102

                     31                     32                     33
                      A                      A                      A
 Frequencies --    802.7843               840.9399               868.5652
 Red. masses --      2.1455                 1.9871                 2.3956
 Frc consts  --      0.8146                 0.8279                 1.0648
 IR Inten    --     34.4595                26.5675                52.2936

                     34                     35                     36
                      A                      A                      A
 Frequencies --    873.2124               897.2102               920.7872
 Red. masses --      2.7902                 2.3711                 1.9720
 Frc consts  --      1.2535                 1.1246                 0.9851
 IR Inten    --     10.3391                 4.7061                28.4159

                     37                     38                     39
                      A                      A                      A
 Frequencies --    955.5453               970.4683               992.5539
 Red. masses --      2.1572                 1.7574                 1.8255
 Frc consts  --      1.1605                 0.9752                 1.0596
 IR Inten    --     40.1170                 4.7357                 3.9537

                     40                     41                     42
                      A                      A                      A
 Frequencies --   1016.0645              1055.5071              1097.3112
 Red. masses --      1.3827                 1.6856                 2.2022
 Frc consts  --      0.8410                 1.1064                 1.5623
 IR Inten    --      7.5543                 8.9781                10.8786

                     43                     44                     45
                      A                      A                      A
 Frequencies --   1108.2116              1135.2537              1157.1676
 Red. masses --      1.7009                 2.3488                 2.3242
 Frc consts  --      1.2307                 1.7836                 1.8337
 IR Inten    --     23.5650                 5.0918                26.7343

                     46                     47                     48
                      A                      A                      A
 Frequencies --   1162.4222              1204.5834              1212.6617
 Red. masses --      2.9015                 1.6499                 1.5512
 Frc consts  --      2.3099                 1.4105                 1.3440
 IR Inten    --      9.4098                38.5528                22.8992

                     49                     50                     51
                      A                      A                      A
 Frequencies --   1262.2446              1305.9414              1314.3510
 Red. masses --      2.3190                 1.5419                 1.2397
 Frc consts  --      2.1769                 1.5493                 1.2618
 IR Inten    --    187.5553                82.5236                18.7348

                     52                     53                     54
                      A                      A                      A
 Frequencies --   1322.9088              1344.1733              1347.7192
 Red. masses --      1.7552                 1.5395                 1.3973
 Frc consts  --      1.8099                 1.6388                 1.4953
 IR Inten    --     51.0381                27.4166                16.9816

                     55                     56                     57
                      A                      A                      A
 Frequencies --   1354.5410              1360.2059              1391.4836
 Red. masses --      1.3247                 1.5893                 1.7515
 Frc consts  --      1.4320                 1.7325                 1.9980
 IR Inten    --     32.6620                 8.2553                46.4114

                     58                     59                     60
                      A                      A                      A
 Frequencies --   1403.9063              1422.6395              1434.4310
 Red. masses --      1.3203                 1.6316                 1.4188
 Frc consts  --      1.5332                 1.9456                 1.7200
 IR Inten    --     11.7176                22.8265                 6.6958

                     61                     62                     63
                      A                      A                      A
 Frequencies --   1438.2385              1446.9858              1482.4425
 Red. masses --      1.5299                 1.7193                 2.1049
 Frc consts  --      1.8646                 2.1209                 2.7254
 IR Inten    --     25.3151                35.0012               143.6012

                     64                     65                     66
                      A                      A                      A
 Frequencies --   1500.0913              1515.3464              1522.9595
 Red. masses --      1.2926                 1.8056                 1.1254
 Frc consts  --      1.7138                 2.4428                 1.5380
 IR Inten    --     49.6025                91.5525                16.4922

                     67                     68                     69
                      A                      A                      A
 Frequencies --   1527.2412              1529.8392              1532.7526
 Red. masses --      1.0741                 1.0880                 1.0592
 Frc consts  --      1.4760                 1.5002                 1.4661
 IR Inten    --     18.0134                 3.9486                 3.3320

                     70                     71                     72
                      A                      A                      A
 Frequencies --   1545.6914              1696.5056              1767.4587
 Red. masses --      1.2153                 1.0896                 8.0456
 Frc consts  --      1.7108                 1.8477                14.8084
 IR Inten    --     76.7172                26.8956               262.5362

                     73                     74                     75
                      A                      A                      A
 Frequencies --   1787.7808              1824.3639              2992.1305
 Red. masses --      8.3540                10.0491                 1.0727
 Frc consts  --     15.7316                19.7062                 5.6582
 IR Inten    --    637.9404               355.6210                64.3151

                     76                     77                     78
                      A                      A                      A
 Frequencies --   3013.1670              3060.9831              3069.3067
 Red. masses --      1.0733                 1.0350                 1.0662
 Frc consts  --      5.7415                 5.7134                 5.9178
 IR Inten    --     87.1521                18.5133                12.8224

                     79                     80                     81
                      A                      A                      A
 Frequencies --   3097.6814              3100.9133              3107.9973
 Red. masses --      1.0854                 1.0668                 1.0919
 Frc consts  --      6.1366                 6.0436                 6.2144
 IR Inten    --      8.2916                12.8758                29.1924

                     82                     83                     84
                      A                      A                      A
 Frequencies --   3125.9577              3131.2214              3145.6841
 Red. masses --      1.1005                 1.1019                 1.1031
 Frc consts  --      6.3361                 6.3651                 6.4312
 IR Inten    --     11.1054                26.2519                16.5210

                     85                     86                     87
                      A                      A                      A
 Frequencies --   3173.9992              3187.6416              3477.4682
 Red. masses --      1.0975                 1.0915                 1.0509
 Frc consts  --      6.5146                 6.5344                 7.4873
 IR Inten    --      2.7597                 6.5647                 0.5700

                     88                     89                     90
                      A                      A                      A
 Frequencies --   3534.1231              3566.5600              3604.6117
 Red. masses --      1.0747                 1.0920                 1.0771
 Frc consts  --      7.9085                 8.1840                 8.2458
 IR Inten    --     80.6096                 0.4301                50.3528

 - Thermochemistry -
 -------------------
 Temperature   298.150 Kelvin.  Pressure   1.00000 Atm.
 Atom     1 has atomic number  6 and mass  12.00000

 Molecular mass:   228.12224 amu.
 Principal axes and moments of inertia in atomic units:
                           1         2         3
     Eigenvalues --  1733.176116338.974197142.69514
           X            0.99961  -0.02729  -0.00554
           Y            0.02742   0.99934   0.02390
           Z            0.00489  -0.02404   0.99970
 This molecule is an asymmetric top.
 Rotational symmetry number  1.
 Warning -- assumption of classical behavior for rotation
           may cause significant error
 Rotational temperatures (Kelvin)      0.04997     0.01366     0.01213
 Rotational constants (GHZ):           1.04129     0.28471     0.25267
 Zero-point vibrational energy     712142.1 (Joules/Mol)
                                  170.20604 (Kcal/Mol)
 Warning -- explicit consideration of  24 degrees of freedom as
           vibrations may cause significant error
 Vibrational temperatures:     24.74    32.20    74.54   106.66   129.96
          (Kelvin)            156.24   193.80   216.45   227.87   297.26
                              320.61   367.79   404.73   444.42   466.58
                              485.77   535.72   567.68   634.97   707.00
                              756.02   774.65   814.54   853.92   952.95
                              971.56  1035.03  1084.51  1090.14  1124.02
                             1155.03  1209.92  1249.67  1256.36  1290.89
                             1324.81  1374.82  1396.29  1428.06  1461.89
                             1518.64  1578.79  1594.47  1633.38  1664.91
                             1672.47  1733.13  1744.75  1816.09  1878.96
                             1891.06  1903.37  1933.97  1939.07  1948.88
                             1957.03  2002.03  2019.91  2046.86  2063.83
                             2069.30  2081.89  2132.90  2158.30  2180.25
                             2191.20  2197.36  2201.10  2205.29  2223.91
                             2440.89  2542.98  2572.22  2624.85  4305.01
                             4335.28  4404.07  4416.05  4456.87  4461.52
                             4471.71  4497.56  4505.13  4525.94  4566.68
                             4586.31  5003.30  5084.81  5131.48  5186.23

 Zero-point correction=                           0.271241 (Hartree/Particle)
 Thermal correction to Energy=                    0.287466
 Thermal correction to Enthalpy=                  0.288411
 Thermal correction to Gibbs Free Energy=         0.225321
 Sum of electronic and zero-point Energies=           -797.108259
 Sum of electronic and thermal Energies=              -797.092033
 Sum of electronic and thermal Enthalpies=            -797.091089
 Sum of electronic and thermal Free Energies=         -797.154178

                     E (Thermal)             CV                S
                      KCal/Mol        Cal/Mol-Kelvin    Cal/Mol-Kelvin
 Total                  180.388             59.568            132.783
 Electronic               0.000              0.000              0.000
 Translational            0.889              2.981             42.176
 Rotational               0.889              2.981             32.728
 Vibrational            178.610             53.607             57.878
 Vibration     1          0.593              1.986              6.935
 Vibration     2          0.593              1.985              6.411
 Vibration     3          0.596              1.977              4.747
 Vibration     4          0.599              1.966              4.040
 Vibration     5          0.602              1.956              3.653
 Vibration     6          0.606              1.942              3.294
 Vibration     7          0.613              1.919              2.878
 Vibration     8          0.618              1.902              2.667
 Vibration     9          0.621              1.893              2.569
 Vibration    10          0.641              1.830              2.073
 Vibration    11          0.649              1.806              1.936
 Vibration    12          0.666              1.753              1.691
 Vibration    13          0.681              1.708              1.526
 Vibration    14          0.698              1.657              1.368
 Vibration    15          0.709              1.627              1.288
 Vibration    16          0.718              1.600              1.223
 Vibration    17          0.744              1.529              1.070
 Vibration    18          0.762              1.482              0.983
 Vibration    19          0.801              1.380              0.822
 Vibration    20          0.847              1.269              0.680
 Vibration    21          0.880              1.194              0.597
 Vibration    22          0.893              1.165              0.569
 Vibration    23          0.922              1.105              0.512
 Vibration    24          0.951              1.046              0.461

 Optimization completed.
    -- Stationary point found.
 Normal termination of Gaussian 16 at Thu Dec 10 23:19:57 2020.

 ----------------------------------------------------------------------
 # B3LYP/6-311++G(d,p) empiricaldispersion=gd3bj scf=xqc pop=npa geom=c
 heck
 ----------------------------------------------------------------------

 --------------------------------------
 CID_72819977_JID_6410_Energie_neutraal
 --------------------------------------
 Structure from the checkpoint file:  "JID_6410.chk"
 Charge =  0 Multiplicity = 1

 SCF Done:  E(RB3LYP) =  -797.626180899     A.U. after   14 cycles
 Normal termination of Gaussian 16 at Thu Dec 10 23:25:02 2020.

 ----------------------------------------------------------------------
 # B3LYP/6-311++G(d,p) empiricaldispersion=gd3bj scf=xqc pop=npa geom=c
 heck
 ----------------------------------------------------------------------

 ------------------------------------
 CID_72819977_JID_6410_Energie_kation
 ------------------------------------
 Structure from the checkpoint file:  "JID_6410.chk"
 Charge =  1 Multiplicity = 2

 SCF Done:  E(UB3LYP) =  -797.312704185     A.U. after   28 cycles
 Normal termination of Gaussian 16 at Thu Dec 10 23:39:21 2020.
 Gaussian 16:  ES64L-G16RevA.03 25-Dec-2016

 ----------------------------------------------------------------------
 # B3LYP/6-311++G(d,p) empiricaldispersion=gd3bj scf=xqc pop=npa geom=c
 heck
 ----------------------------------------------------------------------

 -----------------------------------
 CID_72819977_JID_6410_Energie_anion
 -----------------------------------
 Structure from the checkpoint file:  "JID_6410.chk"
 Charge = -1 Multiplicity = 2

                         Standard orientation:
 ---------------------------------------------------------------------
 Center     Atomic      Atomic             Coordinates (Angstroms)
 Number     Number       Type             X           Y           Z
 ---------------------------------------------------------------------
      1          6           0       -3.795053    0.823819    0.952840
      2          6           0       -3.079593    0.535974   -0.379235
      3          6           0       -1.699810    1.189882   -0.465417
      4          7           0       -0.766423    0.532278    0.456256
      5          6           0       -0.674718   -0.832157    0.458387
      6          8           0        0.246721   -1.473151    0.954041
      7          7           0       -1.751416   -1.499770   -0.144607
      8          6           0       -2.964181   -0.968326   -0.565569
      9          8           0       -3.851975   -1.679444   -0.995662
     10          6           0        0.397739    1.276251    0.929424
     11          6           0        1.419427    1.454601   -0.203135
     12          8           0        1.101037    2.125921   -1.184251
     13          7           0        2.636077    0.868360   -0.089636
     14          6           0        3.115024   -0.131910    0.852969
     15          6           0        3.715662   -1.306669    0.077760
     16          7           0        4.734210   -0.814307   -0.858632
     17          1           0       -3.973941    1.899064    1.058889
     18          1           0       -3.188646    0.493534    1.802249
     19          1           0       -4.757441    0.305968    0.989059
     20          1           0       -3.697920    0.901320   -1.204711
     21          1           0       -1.305323    1.158881   -1.487640
     22          1           0       -1.758650    2.242875   -0.180332
     23          1           0       -1.667992   -2.509741   -0.152741
     24          1           0        0.060201    2.276004    1.215413
     25          1           0        0.789321    0.774480    1.812127
     26          1           0        3.235330    0.977458   -0.904738
     27          1           0        3.875847    0.308213    1.515423
     28          1           0        2.292131   -0.505522    1.459529
     29          1           0        4.083383   -2.057003    0.796927
     30          1           0        2.912492   -1.772914   -0.501627
     31          1           0        5.597043   -0.603684   -0.359156
     32          1           0        4.963789   -1.530267   -1.543496
 ---------------------------------------------------------------------

 SCF Done:  E(UB3LYP) =  -797.619285366     A.U. after   33 cycles
 SCF Done:  E(UB3LYP) =  -797.619285367     a.u. after    1 cycles

 The electronic state is 2-A.
 Alpha  occ. eigenvalues --  -19.01218 -19.00728 -18.99294 -14.26941 -14.26453
 Alpha  occ. eigenvalues --  -14.24094 -14.20315 -10.21840 -10.19047 -10.18109
 Alpha  occ. eigenvalues --  -10.12882 -10.12519 -10.10942 -10.10582 -10.10221
 Alpha  occ. eigenvalues --  -10.08156  -0.98177  -0.95866  -0.94422  -0.87164
 Alpha  occ. eigenvalues --   -0.83545  -0.83255  -0.78617  -0.72266  -0.65590
 Alpha  occ. eigenvalues --   -0.63892  -0.61672  -0.57522  -0.54531  -0.52817
 Alpha  occ. eigenvalues --   -0.50072  -0.47077  -0.44463  -0.42716  -0.41562
 Alpha  occ. eigenvalues --   -0.40034  -0.38461  -0.38094  -0.37525  -0.36484
 Alpha  occ. eigenvalues --   -0.35648  -0.35343  -0.35028  -0.33723  -0.33291
 Alpha  occ. eigenvalues --   -0.32029  -0.30855  -0.30233  -0.29227  -0.28862
 Alpha  occ. eigenvalues --   -0.27992  -0.27144  -0.26514  -0.26348  -0.20515
 Alpha  occ. eigenvalues --   -0.19758  -0.18857  -0.17588  -0.16737  -0.15612
 Alpha  occ. eigenvalues --   -0.15158   0.03796
 Alpha virt. eigenvalues --    0.05042   0.06528   0.07320   0.08039   0.08213
 Alpha virt. eigenvalues --    0.08439   0.09135   0.09592   0.10233   0.10734
 Alpha virt. eigenvalues --    0.11197   0.11459   0.12305   0.12781   0.12829

  Beta  occ. eigenvalues --  -19.01118 -19.00685 -18.99292 -14.26962 -14.26454
  Beta  occ. eigenvalues --  -14.24088 -14.20255 -10.21779 -10.18926 -10.18105
  Beta  occ. eigenvalues --  -10.12869 -10.12506 -10.10927 -10.10586 -10.10203
  Beta  occ. eigenvalues --  -10.08105  -0.98077  -0.95700  -0.94412  -0.87120
  Beta  occ. eigenvalues --   -0.83525  -0.83227  -0.78529  -0.72209  -0.65541
  Beta  occ. eigenvalues --   -0.63833  -0.61604  -0.57369  -0.54448  -0.52743
  Beta  occ. eigenvalues --   -0.50038  -0.47048  -0.44413  -0.42658  -0.41516
  Beta  occ. eigenvalues --   -0.39984  -0.38372  -0.38008  -0.37462  -0.36386
  Beta  occ. eigenvalues --   -0.35558  -0.35200  -0.34939  -0.33663  -0.33124
  Beta  occ. eigenvalues --   -0.31959  -0.30829  -0.30078  -0.29145  -0.28817
  Beta  occ. eigenvalues --   -0.27946  -0.27074  -0.26393  -0.26286  -0.20432
  Beta  occ. eigenvalues --   -0.19595  -0.18776  -0.17515  -0.16702  -0.15575
  Beta  occ. eigenvalues --   -0.15124
  Beta virt. eigenvalues --    0.06104   0.06530   0.07317   0.07785   0.08308
  Beta virt. eigenvalues --    0.08626   0.08742   0.09546   0.09904   0.10533
  Beta virt. eigenvalues --    0.11085   0.11404   0.11571   0.12523   0.12821

 Mulliken charges and spin densities:
               1          2
     1  C    0.656605  -1.196955
     2  C   -0.637453   0.691469
     3  C   -0.178016  -0.287129
     4  N    0.010026   0.060690
     5  C    0.226117  -0.091193
     6  O   -0.344627   0.009355
     7  N   -0.367570   0.018731
     8  C    0.209147  -0.176030
     9  O   -0.351950   0.038929
    10  C    0.194869  -0.325857
    11  C    0.005853   0.023475
    12  O   -0.341420   0.001289
    13  N   -0.100620  -0.010328
    14  C   -0.367960   0.202811
    15  C    0.988395  -1.552630
    16  N   -0.424705   0.030763
    17  H   -0.421343   0.573310
    18  H   -0.041915   0.210763
    19  H    0.073075   0.091391
    20  H   -0.101959   0.341788
    21  H    0.187895   0.032550
    22  H    0.063910   0.124625
    23  H    0.336300   0.010244
    24  H   -0.007113   0.210780
    25  H   -0.077135   0.291735
    26  H    0.344913  -0.008196
    27  H   -0.420074   0.611704
    28  H    0.449961  -0.319657
    29  H   -0.270859   0.416344
    30  H    0.069482   0.142514
    31  H   -0.214726   0.447286
    32  H   -0.147104   0.385428
 Sum of Mulliken charges =  -1.00000   1.00000

 Dipole moment (field-independent basis, Debye):
    X=             -3.5602    Y=             -0.2645    Z=              1.1689  Tot=              3.7565
 Quadrupole moment (field-independent basis, Debye-Ang):
   XX=           -209.3569   YY=           -135.0478   ZZ=           -126.1759
   XY=              9.4135   XZ=              1.8071   YZ=              0.0491

 Summary of Natural Population Analysis:

                                       Natural Population
                Natural  -----------------------------------------------
    Atom  No    Charge         Core      Valence    Rydberg      Total
 -----------------------------------------------------------------------
      C    1   -0.28199      0.99965     2.27619    0.00616     3.28199
      C    2   -0.15840      0.99956     2.14745    0.01139     3.15840
      C    3   -0.08201      0.99960     2.07004    0.01238     3.08201
      N    4   -0.25842      0.99964     2.74878    0.01000     3.75842
      C    5    0.42082      0.99965     1.55742    0.02211     2.57918
      O    6   -0.33177      0.99988     3.32645    0.00545     4.33177
      N    7   -0.33192      0.99964     2.82511    0.00717     3.83192
      C    8    0.36876      0.99965     1.60751    0.02408     2.63124
      O    9   -0.29909      0.99987     3.29346    0.00576     4.29909
      C   10   -0.12109      0.99958     2.11028    0.01124     3.12109
      C   11    0.33409      0.99967     1.64500    0.02125     2.66591
      O   12   -0.33336      0.99988     3.32758    0.00590     4.33336
      N   13   -0.31107      0.99966     2.80180    0.00962     3.81107
      C   14   -0.09678      0.99960     2.08626    0.01092     3.09678
      C   15   -0.09212      0.99964     2.08113    0.01136     3.09212
      N   16   -0.43300      0.99977     2.92246    0.01077     3.93300
      H   17    0.10432      0.00000     0.39347    0.00220     0.39568
      H   18    0.10081      0.00000     0.39778    0.00141     0.39919
      H   19    0.10497      0.00000     0.39412    0.00090     0.39503
      H   20    0.11562      0.00000     0.38317    0.00122     0.38438
      H   21    0.10554      0.00000     0.39324    0.00122     0.39446
      H   22    0.10544      0.00000     0.39339    0.00118     0.39456
      H   23    0.20369      0.00000     0.29360    0.00271     0.29631
      H   24    0.10730      0.00000     0.39161    0.00109     0.39270
      H   25    0.11096      0.00000     0.38787    0.00117     0.38904
      H   26    0.20513      0.00000     0.29191    0.00296     0.29487
      H   27    0.08803      0.00000     0.41063    0.00135     0.41197
      H   28    0.11486      0.00000     0.38341    0.00173     0.38514
      H   29    0.08516      0.00000     0.41316    0.00168     0.41484
      H   30    0.09540      0.00000     0.40307    0.00153     0.40460
      H   31    0.17893      0.00000     0.31545    0.00562     0.32107
      H   32    0.18120      0.00000     0.31628    0.00252     0.31880
 =======================================================================
   * Total *    0.00000     15.99493    44.78907    0.21600    61.00000

 Normal termination of Gaussian 16 at Thu Dec 10 23:56:20 2020.
