 Gaussian 16, Revision A.03,

 -----------------------------------------------------------
 # opt freq B3LYP/6-31G(d) empiricaldispersion=gd3bj scf=xqc
 -----------------------------------------------------------

 ------------------------------
 CID_64236808_JID_7376_neutraal
 ------------------------------
 Symbolic Z-matrix:
 Charge =  0 Multiplicity = 1

 SCF Done:  E(RB3LYP) =  -783.383929385     A.U. after   17 cycles
 SCF Done:  E(RB3LYP) =  -783.388580950     A.U. after   15 cycles
 SCF Done:  E(RB3LYP) =  -783.379270890     A.U. after   17 cycles
 SCF Done:  E(RB3LYP) =  -783.390497999     A.U. after   14 cycles
 SCF Done:  E(RB3LYP) =  -783.390753718     A.U. after   14 cycles
 SCF Done:  E(RB3LYP) =  -783.390809422     A.U. after   12 cycles
 SCF Done:  E(RB3LYP) =  -783.390841842     A.U. after   11 cycles
 SCF Done:  E(RB3LYP) =  -783.390845945     A.U. after   10 cycles
 SCF Done:  E(RB3LYP) =  -783.390847760     A.U. after    9 cycles
 SCF Done:  E(RB3LYP) =  -783.390848414     A.U. after    8 cycles
 SCF Done:  E(RB3LYP) =  -783.390848614     A.U. after    8 cycles
 SCF Done:  E(RB3LYP) =  -783.390848691     A.U. after    7 cycles
 SCF Done:  E(RB3LYP) =  -783.390848725     A.U. after    7 cycles
 Optimization completed.
    -- Stationary point found.
 Normal termination of Gaussian 16 at Fri Dec 11 12:08:30 2020.

 --------------------------------------------------------------------
 #N Geom=AllCheck Guess=TCheck SCRF=Check GenChk RB3LYP/6-31G(d) Freq
 --------------------------------------------------------------------

 Structure from the checkpoint file:  "JID_7376.chk"
 ------------------------------
 CID_64236808_JID_7376_neutraal
 ------------------------------
 Charge =  0 Multiplicity = 1

 SCF Done:  E(RB3LYP) =  -783.390848726     A.U. after    1 cycles

  Exact polarizability: 168.653  11.716 136.170   9.633  -8.992 145.108
 Approx polarizability: 237.097  32.228 210.453  12.477 -21.476 246.929

                      1                      2                      3
                      A                      A                      A
 Frequencies --     23.7667                44.4020                54.6244
 Red. masses --      4.7925                 4.1494                 3.8394
 Frc consts  --      0.0016                 0.0048                 0.0067
 IR Inten    --      0.0112                 1.2662                 2.5737

                      4                      5                      6
                      A                      A                      A
 Frequencies --     65.5290                85.5498                92.2115
 Red. masses --      3.8670                 2.8169                 2.5423
 Frc consts  --      0.0098                 0.0121                 0.0127
 IR Inten    --      0.4026                 0.0838                 0.2887

                      7                      8                      9
                      A                      A                      A
 Frequencies --    126.0636               132.3007               150.5989
 Red. masses --      2.5008                 3.5242                 1.0851
 Frc consts  --      0.0234                 0.0363                 0.0145
 IR Inten    --      1.1421                 0.8371                 0.1733

                     10                     11                     12
                      A                      A                      A
 Frequencies --    172.5929               209.1995               219.7340
 Red. masses --      1.8563                 2.8459                 2.6199
 Frc consts  --      0.0326                 0.0734                 0.0745
 IR Inten    --      0.5127                 2.0954                 0.4090

                     13                     14                     15
                      A                      A                      A
 Frequencies --    224.1225               240.6322               251.9655
 Red. masses --      1.9471                 1.4095                 2.0675
 Frc consts  --      0.0576                 0.0481                 0.0773
 IR Inten    --      2.3252                 0.4866                 0.7304

                     16                     17                     18
                      A                      A                      A
 Frequencies --    261.8686               291.4382               317.1493
 Red. masses --      1.9004                 2.7917                 2.4954
 Frc consts  --      0.0768                 0.1397                 0.1479
 IR Inten    --      1.8151                 1.8187                 0.1876

                     19                     20                     21
                      A                      A                      A
 Frequencies --    343.9292               355.8381               410.4280
 Red. masses --      3.0613                 4.6814                 3.7565
 Frc consts  --      0.2133                 0.3492                 0.3728
 IR Inten    --      0.2251                 2.8215                 1.4344

                     22                     23                     24
                      A                      A                      A
 Frequencies --    413.9796               451.0050               488.3960
 Red. masses --      4.0647                 2.4888                 3.6930
 Frc consts  --      0.4104                 0.2983                 0.5190
 IR Inten    --      1.5033                 1.9123                 7.1789

                     25                     26                     27
                      A                      A                      A
 Frequencies --    519.4055               543.9481               600.4794
 Red. masses --      3.0227                 5.4647                 3.5713
 Frc consts  --      0.4805                 0.9526                 0.7587
 IR Inten    --      9.2970                 4.6938                 4.2685

                     28                     29                     30
                      A                      A                      A
 Frequencies --    626.5853               675.6044               745.5375
 Red. masses --      6.2864                 2.7157                 4.6274
 Frc consts  --      1.4542                 0.7303                 1.5154
 IR Inten    --      2.0947                 6.0558                27.4940

                     31                     32                     33
                      A                      A                      A
 Frequencies --    759.8823               775.8332               805.7032
 Red. masses --      2.1634                 3.1417                 5.3165
 Frc consts  --      0.7360                 1.1142                 2.0334
 IR Inten    --     36.5646                22.0168                16.1367

                     34                     35                     36
                      A                      A                      A
 Frequencies --    840.0434               850.3420               870.2693
 Red. masses --      1.7657                 1.2746                 6.1886
 Frc consts  --      0.7341                 0.5430                 2.7615
 IR Inten    --     11.7878                10.6305                22.0461

                     37                     38                     39
                      A                      A                      A
 Frequencies --    878.4616               900.4116               956.7737
 Red. masses --      1.9932                 1.8506                 1.8170
 Frc consts  --      0.9062                 0.8840                 0.9800
 IR Inten    --     21.9258                 2.0412                 0.5679

                     40                     41                     42
                      A                      A                      A
 Frequencies --    966.1330               981.9532              1033.9042
 Red. masses --      2.3632                 1.3858                 1.7787
 Frc consts  --      1.2996                 0.7873                 1.1203
 IR Inten    --      0.8970                 0.0513                 1.0769

                     43                     44                     45
                      A                      A                      A
 Frequencies --   1048.3015              1062.1713              1074.2163
 Red. masses --      1.7444                 2.1209                 1.5518
 Frc consts  --      1.1295                 1.4098                 1.0550
 IR Inten    --      2.1659                 0.6685                 3.3344

                     46                     47                     48
                      A                      A                      A
 Frequencies --   1090.1197              1093.0792              1124.9575
 Red. masses --      2.1090                 1.8910                 2.5284
 Frc consts  --      1.4766                 1.3312                 1.8852
 IR Inten    --      5.3122                 8.1937                 4.3537

                     49                     50                     51
                      A                      A                      A
 Frequencies --   1131.1883              1136.2561              1171.8270
 Red. masses --      2.1596                 2.0329                 2.1238
 Frc consts  --      1.6281                 1.5464                 1.7183
 IR Inten    --      2.7762                 7.3725                13.3890

                     52                     53                     54
                      A                      A                      A
 Frequencies --   1179.0434              1182.7780              1224.1109
 Red. masses --      1.6222                 2.2691                 2.0796
 Frc consts  --      1.3286                 1.8703                 1.8360
 IR Inten    --     12.5302                41.7839                10.2209

                     55                     56                     57
                      A                      A                      A
 Frequencies --   1277.1659              1300.3255              1304.6385
 Red. masses --      2.4923                 1.6815                 2.4058
 Frc consts  --      2.3952                 1.6752                 2.4126
 IR Inten    --      0.5977                 2.2412                 5.6775

                     58                     59                     60
                      A                      A                      A
 Frequencies --   1310.1202              1327.8814              1368.3579
 Red. masses --      2.0905                 1.6577                 1.3234
 Frc consts  --      2.1141                 1.7221                 1.4599
 IR Inten    --      3.5455                 0.0144                13.5481

                     61                     62                     63
                      A                      A                      A
 Frequencies --   1382.9309              1390.0420              1400.9638
 Red. masses --      1.2988                 1.5669                 1.4491
 Frc consts  --      1.4635                 1.7838                 1.6757
 IR Inten    --      1.2315                 1.3541                 4.7852

                     64                     65                     66
                      A                      A                      A
 Frequencies --   1423.4726              1433.7851              1443.1286
 Red. masses --     11.9260                 1.2461                 1.2603
 Frc consts  --     14.2378                 1.5093                 1.5464
 IR Inten    --    145.5227                 3.4225                 4.6516

                     67                     68                     69
                      A                      A                      A
 Frequencies --   1443.8940              1455.6201              1482.3979
 Red. masses --      1.2439                 2.2522                 1.1630
 Frc consts  --      1.5279                 2.8116                 1.5058
 IR Inten    --      0.9553                 8.9168                 3.2857

                     70                     71                     72
                      A                      A                      A
 Frequencies --   1508.5933              1509.2103              1511.3317
 Red. masses --      1.1973                 1.2560                 1.5567
 Frc consts  --      1.6054                 1.6855                 2.0949
 IR Inten    --     11.5726                22.2058                11.0576

                     73                     74                     75
                      A                      A                      A
 Frequencies --   1515.2710              1520.4896              1520.9272
 Red. masses --      1.1999                 1.0778                 1.0791
 Frc consts  --      1.6232                 1.4681                 1.4708
 IR Inten    --      3.9492                10.6618                 9.8277

                     76                     77                     78
                      A                      A                      A
 Frequencies --   1524.4629              1528.2554              1537.9080
 Red. masses --      1.0878                 1.0504                 1.0562
 Frc consts  --      1.4895                 1.4454                 1.4718
 IR Inten    --      1.4280                 5.9893                 4.7925

                     79                     80                     81
                      A                      A                      A
 Frequencies --   1540.6973              1549.2296              1617.6129
 Red. masses --      1.0561                 1.0532                 6.4099
 Frc consts  --      1.4770                 1.4893                 9.8822
 IR Inten    --      4.5331                12.9592                39.4587

                     82                     83                     84
                      A                      A                      A
 Frequencies --   1626.9734              1653.5120              2967.6208
 Red. masses --      8.1264                 8.3392                 1.0591
 Frc consts  --     12.6738                13.4334                 5.4956
 IR Inten    --    110.4456               172.6859               104.8876

                     85                     86                     87
                      A                      A                      A
 Frequencies --   3042.3257              3052.9320              3056.1122
 Red. masses --      1.0426                 1.0358                 1.0802
 Frc consts  --      5.6858                 5.6879                 5.9444
 IR Inten    --     17.3660                27.3651                 6.9818

                     88                     89                     90
                      A                      A                      A
 Frequencies --   3063.0530              3067.5574              3075.3817
 Red. masses --      1.0596                 1.0358                 1.0742
 Frc consts  --      5.8575                 5.7427                 5.9857
 IR Inten    --     26.6701                10.8720                35.8382

                     91                     92                     93
                      A                      A                      A
 Frequencies --   3092.0990              3106.4477              3112.2812
 Red. masses --      1.0927                 1.0949                 1.0972
 Frc consts  --      6.1553                 6.2250                 6.2617
 IR Inten    --      0.0611                 8.6785                31.3365

                     94                     95                     96
                      A                      A                      A
 Frequencies --   3119.9618              3121.3933              3125.9639
 Red. masses --      1.1021                 1.1027                 1.1019
 Frc consts  --      6.3206                 6.3298                 6.3442
 IR Inten    --     40.7113                27.3906                47.1752

                     97                     98                     99
                      A                      A                      A
 Frequencies --   3129.5878              3131.2091              3146.7507
 Red. masses --      1.1017                 1.1007                 1.1038
 Frc consts  --      6.3577                 6.3584                 6.4399
 IR Inten    --     38.3084                 6.5759                14.0989

                    100                    101                    102
                      A                      A                      A
 Frequencies --   3176.1333              3209.4971              3482.7662
 Red. masses --      1.0892                 1.0940                 1.0737
 Frc consts  --      6.4739                 6.6397                 7.6731
 IR Inten    --     21.7792                18.0926                 0.3988

 - Thermochemistry -
 -------------------
 Temperature   298.150 Kelvin.  Pressure   1.00000 Atm.
 Atom     1 has atomic number  6 and mass  12.00000

 Molecular mass:   237.14773 amu.
 Principal axes and moments of inertia in atomic units:
                           1         2         3
     Eigenvalues --  3137.353154630.242845009.47188
           X            0.99989  -0.00738   0.01259
           Y            0.00563   0.99099   0.13378
           Z           -0.01347  -0.13370   0.99093
 This molecule is an asymmetric top.
 Rotational symmetry number  1.
 Warning -- assumption of classical behavior for rotation
           may cause significant error
 Rotational temperatures (Kelvin)      0.02761     0.01871     0.01729
 Rotational constants (GHZ):           0.57524     0.38977     0.36027
 Zero-point vibrational energy     807269.5 (Joules/Mol)
                                  192.94204 (Kcal/Mol)
 Warning -- explicit consideration of  27 degrees of freedom as
           vibrations may cause significant error
 Vibrational temperatures:     34.19    63.88    78.59    94.28   123.09
          (Kelvin)            132.67   181.38   190.35   216.68   248.32
                              300.99   316.15   322.46   346.22   362.52
                              376.77   419.31   456.31   494.84   511.97
                              590.51   595.62   648.90   702.69   747.31
                              782.62   863.96   901.52   972.04  1072.66
                             1093.30  1116.25  1159.23  1208.64  1223.45
                             1252.12  1263.91  1295.49  1376.58  1390.05
                             1412.81  1487.56  1508.27  1528.23  1545.56
                             1568.44  1572.70  1618.56  1627.53  1634.82
                             1686.00  1696.38  1701.75  1761.22  1837.56
                             1870.88  1877.08  1884.97  1910.53  1968.76
                             1989.73  1999.96  2015.67  2048.06  2062.90
                             2076.34  2077.44  2094.31  2132.84  2170.53
                             2171.42  2174.47  2180.14  2187.65  2188.28
                             2193.36  2198.82  2212.71  2216.72  2229.00
                             2327.38  2340.85  2379.04  4269.74  4377.23
                             4392.49  4397.06  4407.05  4413.53  4424.79
                             4448.84  4469.49  4477.88  4488.93  4490.99
                             4497.56  4502.78  4505.11  4527.47  4569.75
                             4617.75  5010.92

 Zero-point correction=                           0.307473 (Hartree/Particle)
 Thermal correction to Energy=                    0.325589
 Thermal correction to Enthalpy=                  0.326534
 Thermal correction to Gibbs Free Energy=         0.260619
 Sum of electronic and zero-point Energies=           -783.083376
 Sum of electronic and thermal Energies=              -783.065259
 Sum of electronic and thermal Enthalpies=            -783.064315
 Sum of electronic and thermal Free Energies=         -783.130230

                     E (Thermal)             CV                S
                      KCal/Mol        Cal/Mol-Kelvin    Cal/Mol-Kelvin
 Total                  204.310             66.240            138.730
 Electronic               0.000              0.000              0.000
 Translational            0.889              2.981             42.292
 Rotational               0.889              2.981             32.653
 Vibrational            202.533             60.278             63.784
 Vibration     1          0.593              1.985              6.292
 Vibration     2          0.595              1.980              5.052
 Vibration     3          0.596              1.976              4.643
 Vibration     4          0.597              1.971              4.283
 Vibration     5          0.601              1.959              3.759
 Vibration     6          0.602              1.955              3.613
 Vibration     7          0.611              1.927              3.005
 Vibration     8          0.612              1.921              2.912
 Vibration     9          0.618              1.902              2.665
 Vibration    10          0.626              1.876              2.407
 Vibration    11          0.642              1.827              2.051
 Vibration    12          0.647              1.811              1.961
 Vibration    13          0.649              1.804              1.926
 Vibration    14          0.658              1.778              1.798
 Vibration    15          0.664              1.759              1.717
 Vibration    16          0.669              1.743              1.649
 Vibration    17          0.687              1.690              1.466
 Vibration    18          0.704              1.641              1.325
 Vibration    19          0.723              1.588              1.194
 Vibration    20          0.731              1.563              1.140
 Vibration    21          0.775              1.448              0.925
 Vibration    22          0.778              1.440              0.913
 Vibration    23          0.810              1.359              0.793
 Vibration    24          0.844              1.276              0.688
 Vibration    25          0.874              1.207              0.611
 Vibration    26          0.899              1.153              0.557
 Vibration    27          0.959              1.031              0.449

                           ! Non-Optimized Parameters !
 Normal termination of Gaussian 16 at Fri Dec 11 12:25:09 2020.

 ----------------------------------------------------------------------
 # B3LYP/6-311++G(d,p) empiricaldispersion=gd3bj scf=xqc pop=npa geom=c
 heck
 ----------------------------------------------------------------------

 --------------------------------------
 CID_64236808_JID_7376_Energie_neutraal
 --------------------------------------
 Structure from the checkpoint file:  "JID_7376.chk"
 Charge =  0 Multiplicity = 1

 SCF Done:  E(RB3LYP) =  -783.611440792     A.U. after   18 cycles
 Normal termination of Gaussian 16 at Fri Dec 11 12:35:11 2020.

 ----------------------------------------------------------------------
 # B3LYP/6-311++G(d,p) empiricaldispersion=gd3bj scf=xqc pop=npa geom=c
 heck
 ----------------------------------------------------------------------

 ------------------------------------
 CID_64236808_JID_7376_Energie_kation
 ------------------------------------
 Structure from the checkpoint file:  "JID_7376.chk"
 Charge =  1 Multiplicity = 2

 SCF Done:  E(UB3LYP) =  -783.308072706     A.U. after   27 cycles
 Normal termination of Gaussian 16 at Fri Dec 11 12:58:21 2020.
 Gaussian 16:  ES64L-G16RevA.03 25-Dec-2016

 ----------------------------------------------------------------------
 # B3LYP/6-311++G(d,p) empiricaldispersion=gd3bj scf=xqc pop=npa geom=c
 heck
 ----------------------------------------------------------------------

 -----------------------------------
 CID_64236808_JID_7376_Energie_anion
 -----------------------------------
 Structure from the checkpoint file:  "JID_7376.chk"
 Charge = -1 Multiplicity = 2

                         Standard orientation:
 ---------------------------------------------------------------------
 Center     Atomic      Atomic             Coordinates (Angstroms)
 Number     Number       Type             X           Y           Z
 ---------------------------------------------------------------------
      1          6           0        1.007176    3.082457    0.875100
      2          6           0        1.897275    2.021895    0.220450
      3          6           0        1.287515    0.610185    0.286592
      4          6           0       -0.077427    0.578643   -0.375894
      5          7           0       -0.123321    1.056204   -1.627372
      6          6           0       -1.278414    1.005416   -2.294318
      7          6           0       -2.448374    0.461503   -1.773140
      8          6           0       -2.441986   -0.068617   -0.481518
      9          6           0       -1.226610    0.025530    0.205684
     10          7           0       -1.162424   -0.505635    1.572063
     11          8           0       -0.805500    0.259134    2.469000
     12          8           0       -1.477945   -1.682332    1.739590
     13          6           0       -3.678112   -0.689101    0.113308
     14          6           0        2.151735   -0.488464   -0.381699
     15          6           0        3.593385   -0.511664    0.144168
     16          7           0        1.441814   -1.762612   -0.211247
     17          6           0        1.862531   -2.833800   -1.103004
     18          1           0        0.066400    3.202296    0.327618
     19          1           0        1.508485    4.056284    0.893748
     20          1           0        0.757172    2.806416    1.905664
     21          1           0        2.080036    2.282376   -0.828131
     22          1           0        2.868349    2.005418    0.726646
     23          1           0        1.182806    0.344871    1.342368
     24          1           0       -1.267854    1.422982   -3.299367
     25          1           0       -3.359755    0.447268   -2.362765
     26          1           0       -3.576013   -1.777388    0.162222
     27          1           0       -3.858060   -0.339634    1.135063
     28          1           0       -4.553265   -0.444964   -0.494331
     29          1           0        2.165872   -0.282617   -1.459556
     30          1           0        3.605177   -0.598451    1.238669
     31          1           0        4.138493   -1.367352   -0.267947
     32          1           0        4.147057    0.391914   -0.128663
     33          1           0        1.519471   -2.067387    0.758076
     34          1           0        2.931748   -3.104962   -1.043814
     35          1           0        1.275077   -3.731468   -0.885099
     36          1           0        1.651711   -2.539600   -2.137615
 ---------------------------------------------------------------------

 SCF Done:  E(UB3LYP) =  -783.637976333     A.U. after   24 cycles

 The electronic state is 2-A.
 Alpha  occ. eigenvalues --  -18.93256 -18.93240 -14.29737 -14.17891 -14.16758
 Alpha  occ. eigenvalues --  -10.08350 -10.08237 -10.07317 -10.06155 -10.06101
 Alpha  occ. eigenvalues --  -10.05762 -10.05597 -10.04760 -10.04515 -10.04397
 Alpha  occ. eigenvalues --  -10.04223 -10.03880  -1.01286  -0.84110  -0.81064
 Alpha  occ. eigenvalues --   -0.79088  -0.69312  -0.68576  -0.63761  -0.63176
 Alpha  occ. eigenvalues --   -0.58576  -0.57727  -0.55406  -0.52739  -0.49047
 Alpha  occ. eigenvalues --   -0.48230  -0.44802  -0.43123  -0.38446  -0.37167
 Alpha  occ. eigenvalues --   -0.35719  -0.35282  -0.34780  -0.33846  -0.32620
 Alpha  occ. eigenvalues --   -0.32199  -0.31102  -0.30292  -0.29448  -0.29384
 Alpha  occ. eigenvalues --   -0.28966  -0.28418  -0.27500  -0.27046  -0.26036
 Alpha  occ. eigenvalues --   -0.25389  -0.24946  -0.24225  -0.23062  -0.21157
 Alpha  occ. eigenvalues --   -0.21066  -0.20543  -0.14532  -0.13185  -0.13071
 Alpha  occ. eigenvalues --   -0.12700  -0.10798  -0.10447  -0.08517   0.04159
 Alpha virt. eigenvalues --    0.07488   0.08617   0.08753   0.09741   0.10040
 Alpha virt. eigenvalues --    0.10359   0.10953   0.11644   0.12027   0.12383
 Alpha virt. eigenvalues --    0.12503   0.13235   0.13321   0.13723   0.14242

  Beta  occ. eigenvalues --  -18.92722 -18.92683 -14.28866 -14.17891 -14.16758
  Beta  occ. eigenvalues --  -10.08347 -10.08237 -10.07253 -10.06108 -10.05892
  Beta  occ. eigenvalues --  -10.05760 -10.05433 -10.04759 -10.04519 -10.04450
  Beta  occ. eigenvalues --  -10.04234 -10.03880  -0.99966  -0.83069  -0.80920
  Beta  occ. eigenvalues --   -0.79068  -0.69123  -0.68397  -0.63527  -0.63085
  Beta  occ. eigenvalues --   -0.58375  -0.57665  -0.55344  -0.52097  -0.48998
  Beta  occ. eigenvalues --   -0.48113  -0.44325  -0.42819  -0.37950  -0.36963
  Beta  occ. eigenvalues --   -0.35259  -0.35175  -0.34416  -0.33788  -0.32317
  Beta  occ. eigenvalues --   -0.31393  -0.30123  -0.29446  -0.29384  -0.28942
  Beta  occ. eigenvalues --   -0.28623  -0.28064  -0.27081  -0.26990  -0.26001
  Beta  occ. eigenvalues --   -0.25305  -0.24681  -0.24041  -0.23025  -0.21094
  Beta  occ. eigenvalues --   -0.21008  -0.20428  -0.13970  -0.13066  -0.12615
  Beta  occ. eigenvalues --   -0.10785  -0.10084  -0.08887  -0.07794
  Beta virt. eigenvalues --    0.07464   0.08564   0.08730   0.09698   0.10009
  Beta virt. eigenvalues --    0.10620   0.10749   0.11373   0.11650   0.12031
  Beta virt. eigenvalues --    0.12478   0.13121   0.13220   0.13707   0.14187

 Mulliken charges and spin densities:
               1          2
     1  C   -0.755955  -0.001858
     2  C   -0.178040  -0.010978
     3  C    1.181602  -0.025920
     4  C   -0.911983   0.017137
     5  N    0.187086  -0.013908
     6  C    0.228589   0.172802
     7  C   -1.034056  -0.105917
     8  C    1.189887   0.113689
     9  C   -0.482327   0.041943
    10  N   -0.368165   0.296046
    11  O   -0.126764   0.200738
    12  O   -0.174061   0.209720
    13  C   -0.270612   0.010497
    14  C   -1.389854   0.026700
    15  C   -0.522319  -0.011422
    16  N    0.084044   0.002964
    17  C   -0.345491  -0.007805
    18  H    0.163016   0.000296
    19  H    0.110645  -0.000058
    20  H    0.167366  -0.002351
    21  H    0.149761  -0.000891
    22  H    0.103442   0.002220
    23  H    0.187252   0.033824
    24  H    0.144396  -0.012637
    25  H    0.084027   0.009717
    26  H    0.186101   0.021340
    27  H    0.177512   0.008152
    28  H    0.093032   0.006571
    29  H    0.158962   0.001205
    30  H    0.154579  -0.000161
    31  H    0.115288  -0.000353
    32  H    0.140073  -0.000361
    33  H    0.200746   0.011220
    34  H    0.091939   0.002639
    35  H    0.120290   0.006427
    36  H    0.139992  -0.001229
 Sum of Mulliken charges =  -1.00000   1.00000

 Dipole moment (field-independent basis, Debye):
    X=              3.7361    Y=              0.5645    Z=             -4.5798  Tot=              5.9373
 Quadrupole moment (field-independent basis, Debye-Ang):
   XX=           -118.5646   YY=           -122.2240   ZZ=           -133.7534
   XY=             -5.0838   XZ=              8.6932   YZ=              5.8203

 Summary of Natural Population Analysis:

                                       Natural Population
                Natural  -----------------------------------------------
    Atom  No    Charge         Core      Valence    Rydberg      Total
 -----------------------------------------------------------------------
      C    1   -0.28601      0.99967     2.28208    0.00427     3.28601
      C    2   -0.18441      0.99963     2.17815    0.00663     3.18441
      C    3   -0.13292      0.99954     2.11785    0.01554     3.13292
      C    4    0.13092      0.99948     1.85121    0.01838     2.86908
      N    5   -0.26103      0.99968     2.74910    0.01225     3.76103
      C    6    0.05792      0.99960     1.92852    0.01396     2.94208
      C    7   -0.14246      0.99952     2.13518    0.00777     3.14246
      C    8    0.03042      0.99947     1.96222    0.00789     2.96958
      C    9    0.05141      0.99928     1.93558    0.01372     2.94859
      N   10    0.33083      0.99971     2.14142    0.02804     3.16917
      O   11   -0.19893      0.99990     3.19114    0.00790     4.19893
      O   12   -0.18878      0.99990     3.18063    0.00825     4.18878
      C   13   -0.29580      0.99964     2.29125    0.00491     3.29580
      C   14   -0.00340      0.99959     1.99232    0.01150     3.00340
      C   15   -0.29513      0.99965     2.29100    0.00448     3.29513
      N   16   -0.33231      0.99975     2.82080    0.01176     3.83231
      C   17   -0.17619      0.99967     2.16978    0.00675     3.17619
      H   18    0.10260      0.00000     0.39651    0.00089     0.39740
      H   19    0.08738      0.00000     0.41171    0.00091     0.41262
      H   20    0.10495      0.00000     0.39414    0.00091     0.39505
      H   21    0.09916      0.00000     0.39968    0.00116     0.40084
      H   22    0.08920      0.00000     0.40974    0.00105     0.41080
      H   23    0.11753      0.00000     0.38104    0.00143     0.38247
      H   24    0.07793      0.00000     0.42086    0.00121     0.42207
      H   25    0.09321      0.00000     0.40570    0.00108     0.40679
      H   26    0.11602      0.00000     0.38295    0.00103     0.38398
      H   27    0.11036      0.00000     0.38876    0.00088     0.38964
      H   28    0.08913      0.00000     0.40985    0.00102     0.41087
      H   29    0.09369      0.00000     0.40491    0.00140     0.40631
      H   30    0.09585      0.00000     0.40317    0.00098     0.40415
      H   31    0.09488      0.00000     0.40424    0.00089     0.40512
      H   32    0.09771      0.00000     0.40139    0.00091     0.40229
      H   33    0.17264      0.00000     0.32500    0.00237     0.32736
      H   34    0.06872      0.00000     0.42917    0.00211     0.43128
      H   35    0.09458      0.00000     0.40462    0.00079     0.40542
      H   36    0.09032      0.00000     0.40875    0.00094     0.40968
 =======================================================================
   * Total *    0.00000     16.99364    46.80041    0.20594    64.00000

 Normal termination of Gaussian 16 at Fri Dec 11 13:17:02 2020.
