 Gaussian 16, Revision A.03,

 -----------------------------------------------------------
 # opt freq B3LYP/6-31G(d) empiricaldispersion=gd3bj scf=xqc
 -----------------------------------------------------------

 ------------------------------
 CID_79191700_JID_9887_neutraal
 ------------------------------
 Symbolic Z-matrix:
 Charge =  0 Multiplicity = 1

 SCF Done:  E(RB3LYP) =  -865.926054287     A.U. after   15 cycles
 SCF Done:  E(RB3LYP) =  -865.759202235     A.U. after   14 cycles
 SCF Done:  E(RB3LYP) =  -865.932156734     A.U. after   13 cycles
 SCF Done:  E(RB3LYP) =  -865.935364201     A.U. after   14 cycles
 SCF Done:  E(RB3LYP) =  -865.936720140     A.U. after   15 cycles
 SCF Done:  E(RB3LYP) =  -865.937819912     A.U. after   12 cycles
 SCF Done:  E(RB3LYP) =  -865.937305252     A.U. after   13 cycles
 SCF Done:  E(RB3LYP) =  -865.938349337     A.U. after   12 cycles
 SCF Done:  E(RB3LYP) =  -865.938446570     A.U. after   11 cycles
 SCF Done:  E(RB3LYP) =  -865.938502388     A.U. after   11 cycles
 SCF Done:  E(RB3LYP) =  -865.938701474     A.U. after    8 cycles
 SCF Done:  E(RB3LYP) =  -865.938701981     A.U. after    9 cycles
 SCF Done:  E(RB3LYP) =  -865.938702412     A.U. after    9 cycles
 SCF Done:  E(RB3LYP) =  -865.938702588     A.U. after    7 cycles
 SCF Done:  E(RB3LYP) =  -865.938702675     A.U. after    6 cycles
 Optimization completed.
    -- Stationary point found.
 Normal termination of Gaussian 16 at Sat Dec 12 10:31:02 2020.

 --------------------------------------------------------------------
 #N Geom=AllCheck Guess=TCheck SCRF=Check GenChk RB3LYP/6-31G(d) Freq
 --------------------------------------------------------------------

 Structure from the checkpoint file:  "JID_9887.chk"
 ------------------------------
 CID_79191700_JID_9887_neutraal
 ------------------------------
 Charge =  0 Multiplicity = 1

 SCF Done:  E(RB3LYP) =  -865.938702675     A.U. after    1 cycles

  Exact polarizability: 157.740  17.115 171.170  21.936   0.030 160.779
 Approx polarizability: 220.330  34.990 254.290  34.242  -7.748 274.989

                      1                      2                      3
                      A                      A                      A
 Frequencies --     29.1597                36.1022                43.8968
 Red. masses --      4.2750                 2.8932                 3.5191
 Frc consts  --      0.0021                 0.0022                 0.0040
 IR Inten    --      0.8622                 0.8543                 0.6453

                      4                      5                      6
                      A                      A                      A
 Frequencies --     57.6583                68.7240                80.1920
 Red. masses --      2.7658                 4.5220                 1.8593
 Frc consts  --      0.0054                 0.0126                 0.0070
 IR Inten    --      0.9514                 2.0183                 0.8454

                      7                      8                      9
                      A                      A                      A
 Frequencies --     91.3235               105.3545               105.4709
 Red. masses --      3.9756                 3.5556                 3.5032
 Frc consts  --      0.0195                 0.0233                 0.0230
 IR Inten    --      3.9854                 1.2799                 1.7749

                     10                     11                     12
                      A                      A                      A
 Frequencies --    147.1253               173.5182               177.3466
 Red. masses --      4.0038                 4.5800                 1.1076
 Frc consts  --      0.0511                 0.0812                 0.0205
 IR Inten    --      1.0673                 4.6061                 1.8609

                     13                     14                     15
                      A                      A                      A
 Frequencies --    183.7314               201.4840               235.1077
 Red. masses --      2.2083                 3.1207                 2.6471
 Frc consts  --      0.0439                 0.0746                 0.0862
 IR Inten    --      6.3545                 6.0625                 2.9513

                     16                     17                     18
                      A                      A                      A
 Frequencies --    253.4348               301.0136               308.4668
 Red. masses --      3.0684                 1.2534                 3.1607
 Frc consts  --      0.1161                 0.0669                 0.1772
 IR Inten    --      1.7140                98.6082                 9.1503

                     19                     20                     21
                      A                      A                      A
 Frequencies --    330.7275               342.9294               350.9226
 Red. masses --      2.8416                 3.2633                 2.4540
 Frc consts  --      0.1831                 0.2261                 0.1781
 IR Inten    --      4.1526                 6.0676                 6.6178

                     22                     23                     24
                      A                      A                      A
 Frequencies --    400.3106               422.7363               443.2170
 Red. masses --      2.1483                 3.9274                 2.0902
 Frc consts  --      0.2028                 0.4135                 0.2419
 IR Inten    --     10.9560                 1.4084                 3.0724

                     25                     26                     27
                      A                      A                      A
 Frequencies --    450.8516               468.6633               497.6766
 Red. masses --      2.4924                 2.8799                 2.4578
 Frc consts  --      0.2985                 0.3727                 0.3587
 IR Inten    --     12.8788                 1.6516                 1.0133

                     28                     29                     30
                      A                      A                      A
 Frequencies --    504.6856               539.7158               570.1144
 Red. masses --      2.3463                 3.9881                 4.7016
 Frc consts  --      0.3521                 0.6845                 0.9004
 IR Inten    --      4.7647                 3.0060                 1.4061

                     31                     32                     33
                      A                      A                      A
 Frequencies --    579.2457               597.6782               701.1411
 Red. masses --      4.6815                 4.2498                 3.5150
 Frc consts  --      0.9255                 0.8944                 1.0181
 IR Inten    --      5.6152                 2.5241                 9.8586

                     34                     35                     36
                      A                      A                      A
 Frequencies --    727.5065               741.7268               750.4839
 Red. masses --      2.9964                 2.4846                 2.5740
 Frc consts  --      0.9344                 0.8054                 0.8542
 IR Inten    --     11.6966                 6.4892                10.5311

                     37                     38                     39
                      A                      A                      A
 Frequencies --    779.0773               789.9686               822.2474
 Red. masses --      1.5783                 2.1349                 2.8136
 Frc consts  --      0.5644                 0.7849                 1.1208
 IR Inten    --     35.0210                 5.4743                 5.1059

                     40                     41                     42
                      A                      A                      A
 Frequencies --    831.2266               874.0258               894.8455
 Red. masses --      3.6812                 1.3837                 2.8814
 Frc consts  --      1.4986                 0.6228                 1.3594
 IR Inten    --      4.5526                 5.5030                 4.6685

                     43                     44                     45
                      A                      A                      A
 Frequencies --    911.6810               935.8462               946.4718
 Red. masses --      2.3579                 2.1360                 1.3970
 Frc consts  --      1.1547                 1.1022                 0.7373
 IR Inten    --      5.7654                29.6730                 8.1146

                     46                     47                     48
                      A                      A                      A
 Frequencies --    969.4621               979.7175               996.0327
 Red. masses --      1.7311                 1.2570                 1.9203
 Frc consts  --      0.9586                 0.7109                 1.1224
 IR Inten    --      3.9011                 0.3080                30.8270

                     49                     50                     51
                      A                      A                      A
 Frequencies --   1012.2893              1049.0650              1069.7866
 Red. masses --      1.5703                 2.2168                 2.5582
 Frc consts  --      0.9481                 1.4374                 1.7250
 IR Inten    --      1.0668                11.3824                30.2350

                     52                     53                     54
                      A                      A                      A
 Frequencies --   1075.1948              1078.8566              1088.6774
 Red. masses --      1.5071                 2.0494                 1.7218
 Frc consts  --      1.0265                 1.4054                 1.2023
 IR Inten    --      3.9595                11.4095                59.6964

                     55                     56                     57
                      A                      A                      A
 Frequencies --   1092.1993              1098.9602              1107.6165
 Red. masses --      2.6877                 2.9681                 2.8311
 Frc consts  --      1.8890                 2.1120                 2.0464
 IR Inten    --     37.2303                 7.8340                17.7469

                     58                     59                     60
                      A                      A                      A
 Frequencies --   1147.3575              1149.2391              1154.5136
 Red. masses --      1.7096                 1.5517                 1.3412
 Frc consts  --      1.3260                 1.2074                 1.0533
 IR Inten    --     31.9864                39.6745                 2.7799

                     61                     62                     63
                      A                      A                      A
 Frequencies --   1186.9190              1192.5468              1217.3606
 Red. masses --      1.3801                 1.0921                 1.3156
 Frc consts  --      1.1455                 0.9151                 1.1487
 IR Inten    --     39.1319                 0.5245                 1.9964

                     64                     65                     66
                      A                      A                      A
 Frequencies --   1221.4277              1232.3045              1260.6489
 Red. masses --      2.2138                 1.6048                 1.5724
 Frc consts  --      1.9459                 1.4358                 1.4724
 IR Inten    --     28.6779                30.5849                27.3374

                     67                     68                     69
                      A                      A                      A
 Frequencies --   1271.8247              1312.8213              1315.3714
 Red. masses --      3.1850                 1.8684                 1.5325
 Frc consts  --      3.0353                 1.8973                 1.5622
 IR Inten    --    105.6409                59.5645                 5.8046

                     70                     71                     72
                      A                      A                      A
 Frequencies --   1329.3352              1344.3205              1353.3024
 Red. masses --      1.2370                 1.6135                 2.8578
 Frc consts  --      1.2880                 1.7180                 3.0837
 IR Inten    --      6.2466                 9.6044                12.3221

                     73                     74                     75
                      A                      A                      A
 Frequencies --   1372.1894              1387.6568              1407.5962
 Red. masses --      1.3957                 1.3702                 1.1800
 Frc consts  --      1.5484                 1.5545                 1.3775
 IR Inten    --     12.7550                 9.8818                20.8125

                     76                     77                     78
                      A                      A                      A
 Frequencies --   1409.7215              1415.8608              1435.0197
 Red. masses --      1.3087                 1.4936                 1.3046
 Frc consts  --      1.5324                 1.7641                 1.5829
 IR Inten    --      4.5128                 3.0080                10.7405

                     79                     80                     81
                      A                      A                      A
 Frequencies --   1439.9461              1440.3116              1447.7456
 Red. masses --      1.2701                 1.2763                 1.9959
 Frc consts  --      1.5516                 1.5599                 2.4647
 IR Inten    --     22.1833                29.3944                70.9228

                     82                     83                     84
                      A                      A                      A
 Frequencies --   1489.9890              1493.1924              1500.3215
 Red. masses --      1.1196                 1.8918                 1.1087
 Frc consts  --      1.4645                 2.4851                 1.4704
 IR Inten    --      9.7438                23.0237                 9.7985

                     85                     86                     87
                      A                      A                      A
 Frequencies --   1507.0552              1509.1073              1515.9045
 Red. masses --      1.2070                 1.1760                 1.0854
 Frc consts  --      1.6152                 1.5780                 1.4696
 IR Inten    --     24.2551                 6.6199                 4.2697

                     88                     89                     90
                      A                      A                      A
 Frequencies --   1521.5424              1530.0517              1530.2930
 Red. masses --      1.0768                 1.1381                 1.2000
 Frc consts  --      1.4688                 1.5697                 1.6557
 IR Inten    --      6.8687                 3.0387                23.8262

                     91                     92                     93
                      A                      A                      A
 Frequencies --   1530.9580              1544.6377              1545.4530
 Red. masses --      1.0823                 1.6802                 1.2747
 Frc consts  --      1.4946                 2.3620                 1.7938
 IR Inten    --      0.5343                22.8263                74.8264

                     94                     95                     96
                      A                      A                      A
 Frequencies --   1548.4287              1637.1243              1664.4319
 Red. masses --      1.0790                 5.6737                 6.0269
 Frc consts  --      1.5242                 8.9594                 9.8374
 IR Inten    --      3.8400                 8.8743                 6.9114

                     97                     98                     99
                      A                      A                      A
 Frequencies --   1748.9038              2977.8755              3018.6949
 Red. masses --      9.6792                 1.0722                 1.0703
 Frc consts  --     17.4429                 5.6018                 5.7464
 IR Inten    --    199.7651                79.8187                27.5669

                    100                    101                    102
                      A                      A                      A
 Frequencies --   3025.5304              3032.0213              3037.3879
 Red. masses --      1.0573                 1.0710                 1.0461
 Frc consts  --      5.7023                 5.8011                 5.6860
 IR Inten    --     73.9571                45.5693                17.5966

                    103                    104                    105
                      A                      A                      A
 Frequencies --   3058.0799              3064.3752              3084.2541
 Red. masses --      1.0591                 1.0636                 1.0603
 Frc consts  --      5.8353                 5.8844                 5.9425
 IR Inten    --     61.6457                16.5388                18.0113

                    106                    107                    108
                      A                      A                      A
 Frequencies --   3099.6080              3100.1676              3104.3316
 Red. masses --      1.0898                 1.0902                 1.0935
 Frc consts  --      6.1691                 6.1737                 6.2086
 IR Inten    --     25.9670                24.2910                16.9470

                    109                    110                    111
                      A                      A                      A
 Frequencies --   3107.3627              3111.0387              3118.9074
 Red. masses --      1.1046                 1.0993                 1.0870
 Frc consts  --      6.2838                 6.2686                 6.2300
 IR Inten    --     46.5279                26.3862                19.6348

                    112                    113                    114
                      A                      A                      A
 Frequencies --   3126.0232              3134.2699              3165.7047
 Red. masses --      1.1033                 1.1029                 1.0911
 Frc consts  --      6.3525                 6.3834                 6.4423
 IR Inten    --     26.5937                10.9083                 4.2300

                    115                    116                    117
                      A                      A                      A
 Frequencies --   3174.4507              3189.8984              3192.4299
 Red. masses --      1.0871                 1.0891                 1.0949
 Frc consts  --      6.4541                 6.5293                 6.5747
 IR Inten    --      9.0184                14.7957                 6.6575

                    118                    119                    120
                      A                      A                      A
 Frequencies --   3206.3091              3246.3372              3753.0781
 Red. masses --      1.0959                 1.0929                 1.0658
 Frc consts  --      6.6376                 6.7858                 8.8454
 IR Inten    --     22.9834                 0.1658                 6.9954

 - Thermochemistry -
 -------------------
 Temperature   298.150 Kelvin.  Pressure   1.00000 Atm.
 Atom     1 has atomic number  6 and mass  12.00000

 Molecular mass:   265.16779 amu.
 Principal axes and moments of inertia in atomic units:
                           1         2         3
     Eigenvalues --  4141.377445534.242037102.94401
           X            0.99978  -0.00265   0.02090
           Y            0.00222   0.99979   0.02021
           Z           -0.02095  -0.02016   0.99958
 This molecule is an asymmetric top.
 Rotational symmetry number  1.
 Warning -- assumption of classical behavior for rotation
           may cause significant error
 Rotational temperatures (Kelvin)      0.02091     0.01565     0.01219
 Rotational constants (GHZ):           0.43578     0.32610     0.25408
 Zero-point vibrational energy     961878.7 (Joules/Mol)
                                  229.89453 (Kcal/Mol)
 Warning -- explicit consideration of  32 degrees of freedom as
           vibrations may cause significant error
 Vibrational temperatures:     41.95    51.94    63.16    82.96    98.88
          (Kelvin)            115.38   131.39   151.58   151.75   211.68
                              249.65   255.16   264.35   289.89   338.27
                              364.64   433.09   443.81   475.84   493.40
                              504.90   575.96   608.22   637.69   648.67
                              674.30   716.05   726.13   776.53   820.27
                              833.41   859.93  1008.79  1046.72  1067.18
                             1079.78  1120.92  1136.59  1183.03  1195.95
                             1257.53  1287.48  1311.71  1346.47  1361.76
                             1394.84  1409.59  1433.07  1456.46  1509.37
                             1539.18  1546.97  1552.23  1566.36  1571.43
                             1581.16  1593.61  1650.79  1653.50  1661.09
                             1707.71  1715.81  1751.51  1757.36  1773.01
                             1813.79  1829.87  1888.86  1892.53  1912.62
                             1934.18  1947.10  1974.27  1996.53  2025.22
                             2028.27  2037.11  2064.67  2071.76  2072.29
                             2082.98  2143.76  2148.37  2158.63  2168.32
                             2171.27  2181.05  2189.16  2201.40  2201.75
                             2202.71  2222.39  2223.56  2227.84  2355.46
                             2394.75  2516.28  4284.50  4343.23  4353.06
                             4362.40  4370.12  4399.89  4408.95  4437.55
                             4459.64  4460.45  4466.44  4470.80  4476.09
                             4487.41  4497.65  4509.52  4554.74  4567.33
                             4589.55  4593.19  4613.16  4670.76  5399.84

 Zero-point correction=                           0.366360 (Hartree/Particle)
 Thermal correction to Energy=                    0.386513
 Thermal correction to Enthalpy=                  0.387458
 Thermal correction to Gibbs Free Energy=         0.316604
 Sum of electronic and zero-point Energies=           -865.572342
 Sum of electronic and thermal Energies=              -865.552189
 Sum of electronic and thermal Enthalpies=            -865.551245
 Sum of electronic and thermal Free Energies=         -865.622099

                     E (Thermal)             CV                S
                      KCal/Mol        Cal/Mol-Kelvin    Cal/Mol-Kelvin
 Total                  242.541             75.115            149.125
 Electronic               0.000              0.000              0.000
 Translational            0.889              2.981             42.625
 Rotational               0.889              2.981             33.453
 Vibrational            240.763             69.153             73.046
 Vibration     1          0.593              1.984              5.886
 Vibration     2          0.594              1.982              5.462
 Vibration     3          0.595              1.980              5.075
 Vibration     4          0.596              1.974              4.536
 Vibration     5          0.598              1.969              4.190
 Vibration     6          0.600              1.963              3.886
 Vibration     7          0.602              1.955              3.632
 Vibration     8          0.605              1.945              3.353
 Vibration     9          0.605              1.945              3.351
 Vibration    10          0.617              1.906              2.709
 Vibration    11          0.627              1.875              2.397
 Vibration    12          0.628              1.870              2.356
 Vibration    13          0.631              1.862              2.290
 Vibration    14          0.638              1.838              2.120
 Vibration    15          0.655              1.787              1.840
 Vibration    16          0.665              1.757              1.707
 Vibration    17          0.693              1.672              1.411
 Vibration    18          0.698              1.658              1.371
 Vibration    19          0.713              1.614              1.257
 Vibration    20          0.722              1.590              1.198
 Vibration    21          0.728              1.573              1.162
 Vibration    22          0.766              1.469              0.962
 Vibration    23          0.785              1.421              0.883
 Vibration    24          0.803              1.376              0.817
 Vibration    25          0.810              1.359              0.793
 Vibration    26          0.826              1.320              0.741
 Vibration    27          0.853              1.255              0.664
 Vibration    28          0.860              1.240              0.647
 Vibration    29          0.895              1.162              0.566
 Vibration    30          0.926              1.096              0.504
 Vibration    31          0.936              1.076              0.487
 Vibration    32          0.956              1.037              0.454

                           ! Non-Optimized Parameters !
 Normal termination of Gaussian 16 at Sat Dec 12 10:56:27 2020.

 ----------------------------------------------------------------------
 # B3LYP/6-311++G(d,p) empiricaldispersion=gd3bj scf=xqc pop=npa geom=c
 heck
 ----------------------------------------------------------------------

 --------------------------------------
 CID_79191700_JID_9887_Energie_neutraal
 --------------------------------------
 Structure from the checkpoint file:  "JID_9887.chk"
 Charge =  0 Multiplicity = 1

 SCF Done:  E(RB3LYP) =  -866.190386367     A.U. after   15 cycles
 Normal termination of Gaussian 16 at Sat Dec 12 11:08:32 2020.

 ----------------------------------------------------------------------
 # B3LYP/6-311++G(d,p) empiricaldispersion=gd3bj scf=xqc pop=npa geom=c
 heck
 ----------------------------------------------------------------------

 ------------------------------------
 CID_79191700_JID_9887_Energie_kation
 ------------------------------------
 Structure from the checkpoint file:  "JID_9887.chk"
 Charge =  1 Multiplicity = 2

 SCF Done:  E(UB3LYP) =  -865.897630753     A.U. after   25 cycles
 Normal termination of Gaussian 16 at Sat Dec 12 11:35:26 2020.
 Gaussian 16:  ES64L-G16RevA.03 25-Dec-2016

 ----------------------------------------------------------------------
 # B3LYP/6-311++G(d,p) empiricaldispersion=gd3bj scf=xqc pop=npa geom=c
 heck
 ----------------------------------------------------------------------

 -----------------------------------
 CID_79191700_JID_9887_Energie_anion
 -----------------------------------
 Structure from the checkpoint file:  "JID_9887.chk"
 Charge = -1 Multiplicity = 2

                         Standard orientation:
 ---------------------------------------------------------------------
 Center     Atomic      Atomic             Coordinates (Angstroms)
 Number     Number       Type             X           Y           Z
 ---------------------------------------------------------------------
      1          6           0        2.838948   -1.426798    1.812587
      2          6           0        2.036957   -1.543405    0.540157
      3          6           0        1.336253   -2.719644    0.244345
      4          6           0        0.652660   -2.882691   -0.959456
      5          6           0        0.653199   -1.850363   -1.898088
      6          6           0        1.330174   -0.663932   -1.624367
      7          6           0        2.011180   -0.511445   -0.415341
      8          8           0        2.778568    0.628503   -0.256097
      9          6           0        2.403613    1.587228    0.727693
     10          6           0        1.317556    2.556995    0.259457
     11          7           0       -0.045071    2.039017    0.370727
     12          6           0       -0.610869    2.037858    1.712181
     13          6           0       -0.781665    1.876203   -0.780070
     14          8           0       -0.275775    2.000647   -1.893189
     15          6           0       -2.255362    1.493484   -0.675247
     16          6           0       -2.463561   -0.000450   -0.998852
     17          6           0       -2.046254   -0.967959    0.116294
     18          6           0       -2.982669   -0.985501    1.325999
     19          8           0       -4.283772   -1.477365    1.022364
     20          1           0        2.277792   -0.932994    2.617171
     21          1           0        3.122204   -2.417696    2.180543
     22          1           0        3.752036   -0.846889    1.646404
     23          1           0        1.354509   -3.531643    0.967694
     24          1           0        0.130539   -3.812792   -1.164831
     25          1           0        0.128857   -1.964889   -2.842571
     26          1           0        1.329502    0.163366   -2.323230
     27          1           0        2.108650    1.094287    1.661799
     28          1           0        3.316475    2.158097    0.926502
     29          1           0        1.389910    3.474696    0.861901
     30          1           0        1.488712    2.813281   -0.786206
     31          1           0       -1.366054    1.262880    1.826842
     32          1           0        0.182960    1.819487    2.431104
     33          1           0       -1.050692    3.010187    1.978228
     34          1           0       -2.706962    1.757694    0.284747
     35          1           0       -2.754244    2.092497   -1.442738
     36          1           0       -3.519436   -0.164765   -1.255454
     37          1           0       -1.894276   -0.225090   -1.906222
     38          1           0       -2.012624   -1.984174   -0.288923
     39          1           0       -1.023795   -0.740375    0.442501
     40          1           0       -2.585884   -1.665519    2.086373
     41          1           0       -3.051507    0.012065    1.793032
     42          1           0       -4.694312   -0.856582    0.401873
 ---------------------------------------------------------------------

 SCF Done:  E(UB3LYP) =  -866.182648706     A.U. after   33 cycles
 SCF Done:  E(UB3LYP) =  -866.182648705     a.u. after    1 cycles

 The electronic state is 2-A.
 Alpha  occ. eigenvalues --  -19.04865 -19.03239 -18.99148 -14.25198 -10.17668
 Alpha  occ. eigenvalues --  -10.13822 -10.13421 -10.12141 -10.11022 -10.10664
 Alpha  occ. eigenvalues --  -10.09617 -10.08729 -10.08704 -10.08629 -10.08465
 Alpha  occ. eigenvalues --  -10.08408 -10.07953 -10.07926 -10.07223  -0.96554
 Alpha  occ. eigenvalues --   -0.94451  -0.93262  -0.84373  -0.76966  -0.71358
 Alpha  occ. eigenvalues --   -0.68798  -0.68172  -0.64977  -0.63795  -0.61499
 Alpha  occ. eigenvalues --   -0.60014  -0.57413  -0.54801  -0.51806  -0.49846
 Alpha  occ. eigenvalues --   -0.48726  -0.45279  -0.43749  -0.42727  -0.40580
 Alpha  occ. eigenvalues --   -0.40356  -0.39755  -0.39251  -0.38271  -0.36642
 Alpha  occ. eigenvalues --   -0.36035  -0.35729  -0.34900  -0.33172  -0.32922
 Alpha  occ. eigenvalues --   -0.32778  -0.31978  -0.31714  -0.30821  -0.30566
 Alpha  occ. eigenvalues --   -0.30323  -0.29621  -0.28696  -0.27881  -0.27018
 Alpha  occ. eigenvalues --   -0.26687  -0.25980  -0.25393  -0.24710  -0.24111
 Alpha  occ. eigenvalues --   -0.23147  -0.19959  -0.18622  -0.16446  -0.16261
 Alpha  occ. eigenvalues --   -0.15952  -0.14130   0.03893
 Alpha virt. eigenvalues --    0.05650   0.06341   0.06930   0.07345   0.07578
 Alpha virt. eigenvalues --    0.07914   0.08626   0.08778   0.09402   0.09648
 Alpha virt. eigenvalues --    0.10017   0.10644   0.11111   0.11404   0.11691

  Beta  occ. eigenvalues --  -19.04862 -19.03221 -18.99144 -14.25195 -10.17666
  Beta  occ. eigenvalues --  -10.13822 -10.13396 -10.12117 -10.11005 -10.10604
  Beta  occ. eigenvalues --  -10.09606 -10.08723 -10.08698 -10.08627 -10.08445
  Beta  occ. eigenvalues --  -10.08398 -10.07951 -10.07897 -10.07220  -0.96546
  Beta  occ. eigenvalues --   -0.94443  -0.93222  -0.84358  -0.76951  -0.71334
  Beta  occ. eigenvalues --   -0.68773  -0.68145  -0.64955  -0.63755  -0.61428
  Beta  occ. eigenvalues --   -0.59973  -0.57369  -0.54759  -0.51786  -0.49818
  Beta  occ. eigenvalues --   -0.48690  -0.45231  -0.43727  -0.42687  -0.40536
  Beta  occ. eigenvalues --   -0.40319  -0.39724  -0.39225  -0.38242  -0.36608
  Beta  occ. eigenvalues --   -0.36002  -0.35698  -0.34882  -0.33122  -0.32898
  Beta  occ. eigenvalues --   -0.32747  -0.31954  -0.31674  -0.30781  -0.30540
  Beta  occ. eigenvalues --   -0.30290  -0.29597  -0.28673  -0.27861  -0.26997
  Beta  occ. eigenvalues --   -0.26666  -0.25959  -0.25373  -0.24688  -0.24090
  Beta  occ. eigenvalues --   -0.23128  -0.19934  -0.18595  -0.16431  -0.16224
  Beta  occ. eigenvalues --   -0.15929  -0.14103
  Beta virt. eigenvalues --    0.06061   0.06414   0.06869   0.07109   0.07549
  Beta virt. eigenvalues --    0.07960   0.08311   0.08973   0.09172   0.09800
  Beta virt. eigenvalues --    0.09867   0.10191   0.10804   0.11304   0.11820

 Mulliken charges and spin densities:
               1          2
     1  C    1.223499  -1.742466
     2  C   -0.338970   1.086828
     3  C    0.301561  -0.374410
     4  C   -0.322555  -0.003686
     5  C   -0.234514  -0.246937
     6  C    0.029944   0.044542
     7  C   -1.300973   0.527855
     8  O   -0.066080   0.000688
     9  C    0.534075  -0.662269
    10  C   -0.796782   0.356851
    11  N    0.088976   0.091316
    12  C    1.009268  -1.351939
    13  C   -0.923524   0.694194
    14  O   -0.305561   0.005248
    15  C    0.673010  -0.919280
    16  C   -0.034619  -0.287299
    17  C   -0.772568   0.778259
    18  C    0.413017  -0.852738
    19  O   -0.236511   0.016856
    20  H   -0.358792   0.560193
    21  H   -0.082188   0.220863
    22  H    0.069968   0.114440
    23  H   -0.034037   0.199938
    24  H    0.097520   0.054496
    25  H    0.140266   0.016151
    26  H    0.219374   0.028353
    27  H    0.543277  -0.433137
    28  H   -0.241047   0.417987
    29  H   -0.412930   0.588401
    30  H    0.215061   0.022306
    31  H    0.678321  -0.544483
    32  H   -0.601593   0.747389
    33  H   -0.773150   0.972966
    34  H   -0.023406   0.165050
    35  H   -0.033738   0.240062
    36  H   -0.025269   0.130470
    37  H    0.243076  -0.046174
    38  H    0.141609   0.072395
    39  H    0.652684  -0.654092
    40  H   -0.025443   0.227434
    41  H   -0.355057   0.522375
    42  H    0.024798   0.215006
 Sum of Mulliken charges =  -1.00000   1.00000

 Dipole moment (field-independent basis, Debye):
    X=              1.5357    Y=             -4.2792    Z=             -5.8624  Tot=              7.4187
 Quadrupole moment (field-independent basis, Debye-Ang):
   XX=           -181.3432   YY=           -169.6526   ZZ=           -170.2643
   XY=             -1.8720   XZ=              5.2109   YZ=             -4.6799

 Summary of Natural Population Analysis:

                                       Natural Population
                Natural  -----------------------------------------------
    Atom  No    Charge         Core      Valence    Rydberg      Total
 -----------------------------------------------------------------------
      C    1   -0.29673      0.99963     2.29113    0.00596     3.29673
      C    2   -0.03450      0.99946     2.02596    0.00908     3.03450
      C    3   -0.10019      0.99952     2.09110    0.00956     3.10019
      C    4   -0.10995      0.99956     2.10120    0.00919     3.10995
      C    5   -0.10482      0.99957     2.09606    0.00919     3.10482
      C    6   -0.11256      0.99951     2.10413    0.00892     3.11256
      C    7    0.15117      0.99931     1.83562    0.01391     2.84883
      O    8   -0.29149      0.99986     3.28259    0.00904     4.29149
      C    9   -0.01235      0.99954     2.00035    0.01247     3.01235
      C   10   -0.10147      0.99959     2.09039    0.01148     3.10147
      N   11   -0.25837      0.99964     2.74590    0.01283     3.75837
      C   12   -0.17703      0.99961     2.16838    0.00903     3.17703
      C   13    0.35164      0.99963     1.62529    0.02345     2.64836
      O   14   -0.33428      0.99988     3.32935    0.00505     4.33428
      C   15   -0.23183      0.99958     2.22340    0.00885     3.23183
      C   16   -0.18835      0.99961     2.17965    0.00909     3.18835
      C   17   -0.21143      0.99962     2.20301    0.00881     3.21143
      C   18   -0.00991      0.99960     1.99794    0.01237     3.00991
      O   19   -0.36923      0.99990     3.36304    0.00630     4.36923
      H   20    0.10957      0.00000     0.38874    0.00169     0.39043
      H   21    0.10221      0.00000     0.39698    0.00081     0.39779
      H   22    0.10738      0.00000     0.39153    0.00109     0.39262
      H   23    0.09921      0.00000     0.39989    0.00089     0.40079
      H   24    0.09934      0.00000     0.39982    0.00084     0.40066
      H   25    0.09979      0.00000     0.39933    0.00088     0.40021
      H   26    0.11843      0.00000     0.38027    0.00130     0.38157
      H   27    0.08750      0.00000     0.41032    0.00218     0.41250
      H   28    0.09230      0.00000     0.40648    0.00122     0.40770
      H   29    0.09801      0.00000     0.40058    0.00141     0.40199
      H   30    0.11868      0.00000     0.37993    0.00139     0.38132
      H   31    0.10037      0.00000     0.39735    0.00228     0.39963
      H   32    0.10309      0.00000     0.39401    0.00290     0.39691
      H   33    0.09725      0.00000     0.40010    0.00265     0.40275
      H   34    0.10356      0.00000     0.39483    0.00161     0.39644
      H   35    0.11173      0.00000     0.38728    0.00099     0.38827
      H   36    0.09028      0.00000     0.40849    0.00124     0.40972
      H   37    0.10652      0.00000     0.39226    0.00122     0.39348
      H   38    0.10298      0.00000     0.39578    0.00124     0.39702
      H   39    0.10450      0.00000     0.39254    0.00297     0.39550
      H   40    0.08812      0.00000     0.41069    0.00118     0.41188
      H   41    0.07505      0.00000     0.42326    0.00168     0.42495
      H   42    0.22579      0.00000     0.27097    0.00324     0.27421
 =======================================================================
   * Total *    0.00000     18.99262    52.77589    0.23149    72.00000

 Normal termination of Gaussian 16 at Sat Dec 12 12:10:02 2020.
