 Gaussian 16, Revision A.03,

 -----------------------------------------------------------
 # opt freq B3LYP/6-31G(d) empiricaldispersion=gd3bj scf=xqc
 -----------------------------------------------------------

 -------------------------------
 CID_115125108_JID_9751_neutraal
 -------------------------------
 Symbolic Z-matrix:
 Charge =  0 Multiplicity = 1

 SCF Done:  E(RB3LYP) =  -770.656717543     A.U. after   13 cycles
 SCF Done:  E(RB3LYP) =  -770.661817768     A.U. after   12 cycles
 SCF Done:  E(RB3LYP) =  -770.662664611     A.U. after   11 cycles
 SCF Done:  E(RB3LYP) =  -770.662875952     A.U. after   11 cycles
 SCF Done:  E(RB3LYP) =  -770.662936008     A.U. after   10 cycles
 SCF Done:  E(RB3LYP) =  -770.662958193     A.U. after   10 cycles
 SCF Done:  E(RB3LYP) =  -770.662967580     A.U. after    9 cycles
 SCF Done:  E(RB3LYP) =  -770.662971880     A.U. after    9 cycles
 SCF Done:  E(RB3LYP) =  -770.662975165     A.U. after    9 cycles
 SCF Done:  E(RB3LYP) =  -770.662977667     A.U. after    9 cycles
 SCF Done:  E(RB3LYP) =  -770.662989887     A.U. after    8 cycles
 SCF Done:  E(RB3LYP) =  -770.662991286     A.U. after    9 cycles
 SCF Done:  E(RB3LYP) =  -770.662991702     A.U. after    7 cycles
 SCF Done:  E(RB3LYP) =  -770.662991782     A.U. after    7 cycles
 SCF Done:  E(RB3LYP) =  -770.662991817     A.U. after    7 cycles
 Optimization completed.
    -- Stationary point found.
 Normal termination of Gaussian 16 at Sat Dec 12 10:10:57 2020.

 --------------------------------------------------------------------
 #N Geom=AllCheck Guess=TCheck SCRF=Check GenChk RB3LYP/6-31G(d) Freq
 --------------------------------------------------------------------

 Structure from the checkpoint file:  "JID_9751.chk"
 -------------------------------
 CID_115125108_JID_9751_neutraal
 -------------------------------
 Charge =  0 Multiplicity = 1

 SCF Done:  E(RB3LYP) =  -770.662991817     A.U. after    1 cycles

  Exact polarizability: 240.265 -17.831 182.815  -3.143   9.246 151.833
 Approx polarizability: 311.664 -37.297 298.393  -7.334  23.283 249.169

                      1                      2                      3
                      A                      A                      A
 Frequencies --     18.2748                26.0010                32.8220
 Red. masses --      3.8830                 3.6718                 3.1736
 Frc consts  --      0.0008                 0.0015                 0.0020
 IR Inten    --      0.0094                 0.0446                 0.1206

                      4                      5                      6
                      A                      A                      A
 Frequencies --     40.1675                66.5273                79.1590
 Red. masses --      1.1306                 4.0023                 4.2284
 Frc consts  --      0.0011                 0.0104                 0.0156
 IR Inten    --      0.2279                 0.1179                 0.7400

                      7                      8                      9
                      A                      A                      A
 Frequencies --    125.2377               139.4302               167.7616
 Red. masses --      3.2681                 1.0573                 1.1251
 Frc consts  --      0.0302                 0.0121                 0.0187
 IR Inten    --      1.1180                 0.1209                 0.3008

                     10                     11                     12
                      A                      A                      A
 Frequencies --    182.4551               196.4293               210.5315
 Red. masses --      3.0012                 3.0375                 2.8432
 Frc consts  --      0.0589                 0.0691                 0.0742
 IR Inten    --      1.2274                 1.0595                 0.9514

                     13                     14                     15
                      A                      A                      A
 Frequencies --    226.7802               279.2920               293.0117
 Red. masses --      3.4739                 3.1412                 2.6649
 Frc consts  --      0.1053                 0.1444                 0.1348
 IR Inten    --      5.3264                 0.7912                 0.2463

                     16                     17                     18
                      A                      A                      A
 Frequencies --    304.2303               323.4514               329.8768
 Red. masses --      2.5728                 2.3170                 2.8425
 Frc consts  --      0.1403                 0.1428                 0.1822
 IR Inten    --      0.0954                 0.5733                14.7829

                     19                     20                     21
                      A                      A                      A
 Frequencies --    377.8523               399.5926               426.2036
 Red. masses --      3.5251                 3.8354                 1.1716
 Frc consts  --      0.2965                 0.3608                 0.1254
 IR Inten    --      2.2844                 0.5344                50.3908

                     22                     23                     24
                      A                      A                      A
 Frequencies --    445.0126               455.9745               462.8526
 Red. masses --      3.0026                 3.0119                 2.7611
 Frc consts  --      0.3503                 0.3690                 0.3485
 IR Inten    --      0.9518                 3.9477                 2.6610

                     25                     26                     27
                      A                      A                      A
 Frequencies --    487.3732               497.6925               541.0896
 Red. masses --      3.1882                 3.4803                 4.3348
 Frc consts  --      0.4462                 0.5079                 0.7478
 IR Inten    --      4.8474                 2.4938                 7.0710

                     28                     29                     30
                      A                      A                      A
 Frequencies --    561.8646               587.1932               602.4895
 Red. masses --      4.3410                 5.1663                 3.3068
 Frc consts  --      0.8074                 1.0495                 0.7072
 IR Inten    --      1.1308                 5.2455                 5.0843

                     31                     32                     33
                      A                      A                      A
 Frequencies --    621.9717               717.2815               728.1882
 Red. masses --      3.0396                 3.7753                 2.5239
 Frc consts  --      0.6928                 1.1444                 0.7885
 IR Inten    --      6.0607                 5.7428                57.9872

                     34                     35                     36
                      A                      A                      A
 Frequencies --    733.2842               739.2015               765.4468
 Red. masses --      4.0416                 2.8151                 4.1956
 Frc consts  --      1.2804                 0.9063                 1.4484
 IR Inten    --     22.6046                 3.0578                 0.6604

                     37                     38                     39
                      A                      A                      A
 Frequencies --    781.4693               785.3227               818.9145
 Red. masses --      2.3840                 1.7442                 1.5088
 Frc consts  --      0.8578                 0.6338                 0.5961
 IR Inten    --     35.6992               140.8787                37.8668

                     40                     41                     42
                      A                      A                      A
 Frequencies --    834.4165               841.1931               864.5863
 Red. masses --      1.3068                 1.5147                 1.4778
 Frc consts  --      0.5361                 0.6315                 0.6509
 IR Inten    --     21.8373                28.5344                24.1332

                     43                     44                     45
                      A                      A                      A
 Frequencies --    889.1332               913.1156               917.3100
 Red. masses --      1.8273                 1.5789                 1.3396
 Frc consts  --      0.8511                 0.7756                 0.6642
 IR Inten    --      2.9770                 4.3208                 1.2798

                     46                     47                     48
                      A                      A                      A
 Frequencies --    939.3582               953.6603               974.5049
 Red. masses --      2.6613                 1.3122                 2.7731
 Frc consts  --      1.3836                 0.7031                 1.5516
 IR Inten    --      3.4767                 0.1522                 3.4693

                     49                     50                     51
                      A                      A                      A
 Frequencies --   1009.5447              1024.6973              1032.5531
 Red. masses --      1.8546                 1.6852                 1.5208
 Frc consts  --      1.1136                 1.0425                 0.9553
 IR Inten    --     11.4995                 3.2861                 1.2569

                     52                     53                     54
                      A                      A                      A
 Frequencies --   1037.9569              1059.7390              1066.7267
 Red. masses --      1.5741                 1.4300                 1.8757
 Frc consts  --      0.9992                 0.9462                 1.2575
 IR Inten    --      2.0837                 6.4034                 3.7916

                     55                     56                     57
                      A                      A                      A
 Frequencies --   1073.4443              1085.5542              1114.8064
 Red. masses --      1.4923                 1.5941                 3.1885
 Frc consts  --      1.0131                 1.1068                 2.3347
 IR Inten    --     10.1807                 0.0667                58.6363

                     58                     59                     60
                      A                      A                      A
 Frequencies --   1123.4451              1157.4477              1182.4721
 Red. masses --      1.6144                 2.1004                 1.2730
 Frc consts  --      1.2005                 1.6579                 1.0487
 IR Inten    --      1.8116                 3.3189                 4.1862

                     61                     62                     63
                      A                      A                      A
 Frequencies --   1192.5198              1199.7623              1220.0652
 Red. masses --      1.5580                 1.8541                 1.2539
 Frc consts  --      1.3054                 1.5724                 1.0997
 IR Inten    --      3.1008                 8.9471                30.5620

                     64                     65                     66
                      A                      A                      A
 Frequencies --   1243.4064              1259.1101              1280.1445
 Red. masses --      1.8909                 1.5470                 3.5622
 Frc consts  --      1.7224                 1.4450                 3.4394
 IR Inten    --      2.1640                76.1720                 6.3638

                     67                     68                     69
                      A                      A                      A
 Frequencies --   1287.1677              1320.9705              1331.6511
 Red. masses --      2.1320                 2.0580                 1.3982
 Frc consts  --      2.0812                 2.1158                 1.4608
 IR Inten    --     24.7868                26.9253                 1.1439

                     70                     71                     72
                      A                      A                      A
 Frequencies --   1341.3501              1357.0309              1368.6475
 Red. masses --      1.9171                 4.8806                 3.5335
 Frc consts  --      2.0323                 5.2954                 3.8998
 IR Inten    --     22.4154                 0.5462                 7.8291

                     73                     74                     75
                      A                      A                      A
 Frequencies --   1376.5454              1406.5621              1439.2661
 Red. masses --      1.4710                 1.3875                 1.2574
 Frc consts  --      1.6423                 1.6174                 1.5346
 IR Inten    --      3.7042                14.5489                 0.0752

                     76                     77                     78
                      A                      A                      A
 Frequencies --   1441.8798              1451.1267              1463.7681
 Red. masses --      1.2486                 1.2323                 2.4963
 Frc consts  --      1.5294                 1.5289                 3.1513
 IR Inten    --      0.6683                 0.6925                 1.6779

                     79                     80                     81
                      A                      A                      A
 Frequencies --   1475.1333              1506.7136              1507.3568
 Red. masses --      2.4337                 1.2428                 1.0622
 Frc consts  --      3.1201                 1.6622                 1.4220
 IR Inten    --     33.6874                14.9566                 1.6132

                     82                     83                     84
                      A                      A                      A
 Frequencies --   1510.8108              1517.2811              1522.4336
 Red. masses --      1.1440                 1.0535                 1.0460
 Frc consts  --      1.5385                 1.4289                 1.4285
 IR Inten    --     24.6758                 5.8029                15.1643

                     85                     86                     87
                      A                      A                      A
 Frequencies --   1522.6149              1525.0672              1533.8801
 Red. masses --      1.1875                 1.1347                 1.2810
 Frc consts  --      1.6220                 1.5549                 1.7757
 IR Inten    --     15.2890                 1.3350                25.0629

                     88                     89                     90
                      A                      A                      A
 Frequencies --   1543.5374              1555.6971              1568.0083
 Red. masses --      1.1045                 2.3119                 2.9512
 Frc consts  --      1.5505                 3.2966                 4.2751
 IR Inten    --      6.7904                19.8335                80.8095

                     91                     92                     93
                      A                      A                      A
 Frequencies --   1633.1502              1642.5219              1663.3579
 Red. masses --      5.8267                 2.5746                 2.3961
 Frc consts  --      9.1564                 4.0924                 3.9060
 IR Inten    --      2.4807                 5.3607                23.0084

                     94                     95                     96
                      A                      A                      A
 Frequencies --   1676.4650              1685.3300              2983.8708
 Red. masses --      5.9009                 2.3496                 1.0728
 Frc consts  --      9.7715                 3.9320                 5.6276
 IR Inten    --      3.7130                88.3906                43.7896

                     97                     98                     99
                      A                      A                      A
 Frequencies --   3036.6521              3037.9572              3038.5679
 Red. masses --      1.0389                 1.0382                 1.0391
 Frc consts  --      5.6445                 5.6455                 5.6528
 IR Inten    --     17.2290                57.7860                43.4411

                    100                    101                    102
                      A                      A                      A
 Frequencies --   3052.2644              3082.9530              3085.0993
 Red. masses --      1.0598                 1.1002                 1.1001
 Frc consts  --      5.8173                 6.1610                 6.1691
 IR Inten    --     30.4162                38.4777                 4.0043

                    103                    104                    105
                      A                      A                      A
 Frequencies --   3090.9423              3095.9721              3106.8462
 Red. masses --      1.0984                 1.1037                 1.0913
 Frc consts  --      6.1828                 6.2328                 6.2064
 IR Inten    --     25.2596                23.0905                16.9746

                    106                    107                    108
                      A                      A                      A
 Frequencies --   3122.0795              3126.3373              3128.4449
 Red. masses --      1.1011                 1.0998                 1.0997
 Frc consts  --      6.3236                 6.3334                 6.3413
 IR Inten    --     18.9543                29.9609                 7.7129

                    109                    110                    111
                      A                      A                      A
 Frequencies --   3159.8574              3168.1274              3171.1898
 Red. masses --      1.0895                 1.0875                 1.0866
 Frc consts  --      6.4091                 6.4310                 6.4381
 IR Inten    --     29.6704                16.1353                15.4467

                    112                    113                    114
                      A                      A                      A
 Frequencies --   3174.1947              3189.1655              3191.7345
 Red. masses --      1.0896                 1.0944                 1.0935
 Frc consts  --      6.4680                 6.5582                 6.5634
 IR Inten    --     16.9858                23.8873                20.3812

                    115                    116                    117
                      A                      A                      A
 Frequencies --   3501.2875              3507.4390              3616.1862
 Red. masses --      1.0501                 1.0730                 1.0953
 Frc consts  --      7.5843                 7.7770                 8.4388
 IR Inten    --     15.3833                 8.5073                12.3871

 - Thermochemistry -
 -------------------
 Temperature   298.150 Kelvin.  Pressure   1.00000 Atm.
 Atom     1 has atomic number  6 and mass  12.00000

 Molecular mass:   254.17830 amu.
 Principal axes and moments of inertia in atomic units:
                           1         2         3
     Eigenvalues --  2391.89264********************
           X            0.99998  -0.00495   0.00429
           Y            0.00496   0.99999  -0.00108
           Z           -0.00428   0.00111   0.99999
 This molecule is an asymmetric top.
 Rotational symmetry number  1.
 Warning -- assumption of classical behavior for rotation
           may cause significant error
 Rotational temperatures (Kelvin)      0.03621     0.00752     0.00703
 Rotational constants (GHZ):           0.75452     0.15677     0.14652
 Zero-point vibrational energy     938535.5 (Joules/Mol)
                                  224.31536 (Kcal/Mol)
 Warning -- explicit consideration of  30 degrees of freedom as
           vibrations may cause significant error
 Vibrational temperatures:     26.29    37.41    47.22    57.79    95.72
          (Kelvin)            113.89   180.19   200.61   241.37   262.51
                              282.62   302.91   326.29   401.84   421.58
                              437.72   465.37   474.62   543.65   574.92
                              613.21   640.27   656.05   665.94   701.22
                              716.07   778.51   808.40   844.84   866.85
                              894.88  1032.01  1047.70  1055.03  1063.55
                             1101.31  1124.36  1129.90  1178.24  1200.54
                             1210.29  1243.95  1279.26  1313.77  1319.80
                             1351.53  1372.10  1402.10  1452.51  1474.31
                             1485.61  1493.39  1524.73  1534.78  1544.45
                             1561.87  1603.96  1616.39  1665.31  1701.31
                             1715.77  1726.19  1755.40  1788.98  1811.58
                             1841.84  1851.95  1900.58  1915.95  1929.90
                             1952.46  1969.18  1980.54  2023.73  2070.78
                             2074.54  2087.85  2106.04  2122.39  2167.82
                             2168.75  2173.72  2183.03  2190.44  2190.70
                             2194.23  2206.91  2220.81  2238.30  2256.01
                             2349.74  2363.22  2393.20  2412.06  2424.81
                             4293.12  4369.07  4370.94  4371.82  4391.53
                             4435.68  4438.77  4447.18  4454.41  4470.06
                             4491.98  4498.10  4501.13  4546.33  4558.23
                             4562.63  4566.96  4588.50  4592.19  5037.57
                             5046.42  5202.89

 Zero-point correction=                           0.357469 (Hartree/Particle)
 Thermal correction to Energy=                    0.376464
 Thermal correction to Enthalpy=                  0.377408
 Thermal correction to Gibbs Free Energy=         0.308045
 Sum of electronic and zero-point Energies=           -770.305523
 Sum of electronic and thermal Energies=              -770.286528
 Sum of electronic and thermal Enthalpies=            -770.285584
 Sum of electronic and thermal Free Energies=         -770.354947

                     E (Thermal)             CV                S
                      KCal/Mol        Cal/Mol-Kelvin    Cal/Mol-Kelvin
 Total                  236.235             72.925            145.987
 Electronic               0.000              0.000              0.000
 Translational            0.889              2.981             42.499
 Rotational               0.889              2.981             34.183
 Vibrational            234.457             66.964             69.305
 Vibration     1          0.593              1.986              6.813
 Vibration     2          0.593              1.985              6.113
 Vibration     3          0.594              1.983              5.651
 Vibration     4          0.594              1.981              5.251
 Vibration     5          0.598              1.970              4.254
 Vibration     6          0.600              1.963              3.912
 Vibration     7          0.610              1.928              3.018
 Vibration     8          0.615              1.914              2.812
 Vibration     9          0.624              1.882              2.460
 Vibration    10          0.630              1.864              2.303
 Vibration    11          0.636              1.845              2.166
 Vibration    12          0.643              1.825              2.039
 Vibration    13          0.650              1.800              1.904
 Vibration    14          0.680              1.712              1.538
 Vibration    15          0.688              1.687              1.457
 Vibration    16          0.695              1.666              1.394
 Vibration    17          0.708              1.629              1.293
 Vibration    18          0.713              1.616              1.261
 Vibration    19          0.748              1.517              1.048
 Vibration    20          0.766              1.471              0.964
 Vibration    21          0.788              1.413              0.871
 Vibration    22          0.804              1.372              0.811
 Vibration    23          0.814              1.348              0.778
 Vibration    24          0.820              1.332              0.758
 Vibration    25          0.843              1.278              0.690
 Vibration    26          0.853              1.255              0.664
 Vibration    27          0.896              1.159              0.563
 Vibration    28          0.918              1.114              0.520
 Vibration    29          0.944              1.059              0.472
 Vibration    30          0.961              1.027              0.445

                           ! Non-Optimized Parameters !
 Normal termination of Gaussian 16 at Sat Dec 12 10:28:57 2020.

 ----------------------------------------------------------------------
 # B3LYP/6-311++G(d,p) empiricaldispersion=gd3bj scf=xqc pop=npa geom=c
 heck
 ----------------------------------------------------------------------

 ---------------------------------------
 CID_115125108_JID_9751_Energie_neutraal
 ---------------------------------------
 Structure from the checkpoint file:  "JID_9751.chk"
 Charge =  0 Multiplicity = 1

 SCF Done:  E(RB3LYP) =  -770.871989462     A.U. after   15 cycles
 Normal termination of Gaussian 16 at Sat Dec 12 10:37:44 2020.

 ----------------------------------------------------------------------
 # B3LYP/6-311++G(d,p) empiricaldispersion=gd3bj scf=xqc pop=npa geom=c
 heck
 ----------------------------------------------------------------------

 -------------------------------------
 CID_115125108_JID_9751_Energie_kation
 -------------------------------------
 Structure from the checkpoint file:  "JID_9751.chk"
 Charge =  1 Multiplicity = 2

 SCF Done:  E(UB3LYP) =  -770.611051054     A.U. after   24 cycles
 Normal termination of Gaussian 16 at Sat Dec 12 10:58:00 2020.
 Gaussian 16:  ES64L-G16RevA.03 25-Dec-2016

 ----------------------------------------------------------------------
 # B3LYP/6-311++G(d,p) empiricaldispersion=gd3bj scf=xqc pop=npa geom=c
 heck
 ----------------------------------------------------------------------

 ------------------------------------
 CID_115125108_JID_9751_Energie_anion
 ------------------------------------
 Structure from the checkpoint file:  "JID_9751.chk"
 Charge = -1 Multiplicity = 2

                         Standard orientation:
 ---------------------------------------------------------------------
 Center     Atomic      Atomic             Coordinates (Angstroms)
 Number     Number       Type             X           Y           Z
 ---------------------------------------------------------------------
      1          6           0       -5.899580   -1.691007   -0.285252
      2          6           0       -4.518185   -1.101252   -0.131145
      3          6           0       -4.359489    0.208883    0.336115
      4          6           0       -3.096253    0.789692    0.474566
      5          6           0       -1.950632    0.043524    0.114337
      6          6           0       -2.110769   -1.261617   -0.344911
      7          6           0       -3.377545   -1.838779   -0.457744
      8          7           0       -0.674943    0.655811    0.281341
      9          6           0       -0.304320    1.599414   -0.785807
     10          6           0        1.060396    2.238149   -0.489095
     11          6           0        2.168975    1.213028   -0.422595
     12          6           0        2.556117    0.648625    0.798987
     13          6           0        3.532507   -0.348148    0.884334
     14          6           0        4.153788   -0.803407   -0.295678
     15          6           0        3.769197   -0.240217   -1.516131
     16          6           0        2.792185    0.750793   -1.585166
     17          6           0        5.215068   -1.873956   -0.246545
     18          6           0        3.913718   -0.923370    2.225734
     19          7           0       -2.922697    2.100236    0.935739
     20          1           0       -6.530777   -1.470431    0.583627
     21          1           0       -6.412425   -1.284186   -1.166823
     22          1           0       -5.856819   -2.778451   -0.402760
     23          1           0       -5.237883    0.788538    0.615724
     24          1           0       -1.225251   -1.834047   -0.614092
     25          1           0       -3.476993   -2.861135   -0.812268
     26          1           0        0.048171   -0.056581    0.353404
     27          1           0       -0.273598    1.105118   -1.771381
     28          1           0       -1.075955    2.373763   -0.833024
     29          1           0        1.274768    2.972846   -1.274608
     30          1           0        0.993578    2.781948    0.460274
     31          1           0        2.078240    0.997291    1.712074
     32          1           0        4.247964   -0.584825   -2.429804
     33          1           0        2.513362    1.169892   -2.549207
     34          1           0        6.072880   -1.567075    0.365746
     35          1           0        4.832958   -2.804231    0.193341
     36          1           0        5.586712   -2.106697   -1.248788
     37          1           0        3.335155   -0.462415    3.031526
     38          1           0        3.740896   -2.006567    2.265573
     39          1           0        4.977908   -0.767582    2.444796
     40          1           0       -3.680575    2.430805    1.521868
     41          1           0       -2.019901    2.209561    1.391219
 ---------------------------------------------------------------------

 SCF Done:  E(UB3LYP) =  -770.859175370     A.U. after   33 cycles
 SCF Done:  E(UB3LYP) =  -770.859175370     a.u. after    1 cycles

 The electronic state is 2-A.
 Alpha  occ. eigenvalues --  -14.22130 -14.22128 -10.11832 -10.10905 -10.10754
 Alpha  occ. eigenvalues --  -10.09284 -10.09094 -10.09084 -10.09048 -10.08728
 Alpha  occ. eigenvalues --  -10.08484 -10.08368 -10.08277 -10.08107 -10.08021
 Alpha  occ. eigenvalues --  -10.07764 -10.07708 -10.07445 -10.07441  -0.84891
 Alpha  occ. eigenvalues --   -0.80929  -0.77605  -0.75104  -0.71155  -0.67964
 Alpha  occ. eigenvalues --   -0.67370  -0.64805  -0.63876  -0.60901  -0.59317
 Alpha  occ. eigenvalues --   -0.57665  -0.53160  -0.52306  -0.51224  -0.49189
 Alpha  occ. eigenvalues --   -0.47144  -0.43345  -0.42086  -0.40550  -0.39912
 Alpha  occ. eigenvalues --   -0.39550  -0.37350  -0.36346  -0.35688  -0.34945
 Alpha  occ. eigenvalues --   -0.34499  -0.33792  -0.33680  -0.33290  -0.32196
 Alpha  occ. eigenvalues --   -0.31132  -0.31061  -0.30758  -0.29917  -0.29781
 Alpha  occ. eigenvalues --   -0.28993  -0.28676  -0.27719  -0.26797  -0.25673
 Alpha  occ. eigenvalues --   -0.25329  -0.24741  -0.24326  -0.21777  -0.18174
 Alpha  occ. eigenvalues --   -0.16155  -0.14767  -0.14104  -0.11274   0.03891
 Alpha virt. eigenvalues --    0.05120   0.06069   0.06406   0.06897   0.07119
 Alpha virt. eigenvalues --    0.07496   0.07601   0.08088   0.08378   0.08663
 Alpha virt. eigenvalues --    0.08975   0.09214   0.09787   0.09894   0.10324

  Beta  occ. eigenvalues --  -14.22123 -14.22090 -10.11830 -10.10899 -10.10752
  Beta  occ. eigenvalues --  -10.09284 -10.09087 -10.09075 -10.09045 -10.08721
  Beta  occ. eigenvalues --  -10.08472 -10.08360 -10.08270 -10.08099 -10.08011
  Beta  occ. eigenvalues --  -10.07732 -10.07671 -10.07441 -10.07423  -0.84872
  Beta  occ. eigenvalues --   -0.80892  -0.77587  -0.75083  -0.71131  -0.67943
  Beta  occ. eigenvalues --   -0.67347  -0.64780  -0.63841  -0.60860  -0.59284
  Beta  occ. eigenvalues --   -0.57625  -0.53126  -0.52273  -0.51192  -0.49161
  Beta  occ. eigenvalues --   -0.47111  -0.43312  -0.42062  -0.40514  -0.39873
  Beta  occ. eigenvalues --   -0.39529  -0.37326  -0.36310  -0.35666  -0.34915
  Beta  occ. eigenvalues --   -0.34460  -0.33772  -0.33646  -0.33268  -0.32167
  Beta  occ. eigenvalues --   -0.31110  -0.31026  -0.30731  -0.29883  -0.29755
  Beta  occ. eigenvalues --   -0.28965  -0.28652  -0.27696  -0.26778  -0.25645
  Beta  occ. eigenvalues --   -0.25302  -0.24718  -0.24303  -0.21748  -0.18157
  Beta  occ. eigenvalues --   -0.16127  -0.14724  -0.14070  -0.11248
  Beta virt. eigenvalues --    0.05699   0.05988   0.06467   0.06778   0.07160
  Beta virt. eigenvalues --    0.07489   0.07635   0.07649   0.08262   0.08706
  Beta virt. eigenvalues --    0.08813   0.09000   0.09645   0.09870   0.10137

 Mulliken charges and spin densities:
               1          2
     1  C    0.700330  -1.241813
     2  C    0.919321  -0.355936
     3  C   -0.241047   0.192538
     4  C   -0.570668   0.479209
     5  C    0.096113  -0.227484
     6  C   -0.172507   0.061297
     7  C   -0.943671   0.020501
     8  N    0.176453  -0.084980
     9  C   -0.304164  -0.174341
    10  C   -0.129742  -0.657888
    11  C    1.312637  -0.321078
    12  C   -0.264937  -0.319483
    13  C   -1.283295   1.276375
    14  C   -1.485408   2.169722
    15  C    0.107384  -0.614166
    16  C   -0.482556   0.109013
    17  C    2.022366  -2.661793
    18  C    0.992686  -1.436137
    19  N   -0.330653   0.002768
    20  H   -0.027392   0.169351
    21  H    0.113081   0.040385
    22  H    0.028935   0.107942
    23  H   -0.426851   0.575467
    24  H   -0.088947   0.219752
    25  H   -0.002067   0.126386
    26  H    0.631904  -0.363862
    27  H    0.140630  -0.004062
    28  H    0.100315   0.076412
    29  H    0.070956   0.103814
    30  H    0.008691   0.140025
    31  H   -0.134289   0.327832
    32  H   -0.167627   0.309767
    33  H   -0.066141   0.209894
    34  H   -0.180431   0.336888
    35  H   -0.089594   0.241075
    36  H   -0.379300   0.527043
    37  H   -0.226703   0.374940
    38  H   -0.106603   0.269421
    39  H   -0.122639   0.279349
    40  H   -0.289154   0.542127
    41  H    0.094583   0.173732
 Sum of Mulliken charges =  -1.00000   1.00000

 Dipole moment (field-independent basis, Debye):
    X=             -2.0689    Y=              0.1493    Z=             -3.2129  Tot=              3.8243
 Quadrupole moment (field-independent basis, Debye-Ang):
   XX=           -243.2756   YY=           -160.7688   ZZ=           -154.0235
   XY=             21.3786   XZ=              4.8985   YZ=             -3.7269

 Summary of Natural Population Analysis:

                                       Natural Population
                Natural  -----------------------------------------------
    Atom  No    Charge         Core      Valence    Rydberg      Total
 -----------------------------------------------------------------------
      C    1   -0.29021      0.99964     2.28574    0.00483     3.29021
      C    2   -0.01700      0.99952     2.00932    0.00816     3.01700
      C    3   -0.12223      0.99948     2.11327    0.00948     3.12223
      C    4    0.08406      0.99945     1.90494    0.01155     2.91594
      C    5    0.05718      0.99943     1.93149    0.01189     2.94282
      C    6   -0.10497      0.99952     2.09675    0.00871     3.10497
      C    7   -0.12027      0.99952     2.11123    0.00952     3.12027
      N    8   -0.34156      0.99971     2.83095    0.01090     3.84156
      C    9   -0.08036      0.99960     2.07237    0.00838     3.08036
      C   10   -0.19966      0.99959     2.19117    0.00890     3.19966
      C   11   -0.02010      0.99950     2.01077    0.00983     3.02010
      C   12   -0.10383      0.99947     2.09459    0.00977     3.10383
      C   13   -0.01213      0.99947     2.00207    0.01058     3.01213
      C   14   -0.01655      0.99947     2.00659    0.01048     3.01655
      C   15   -0.09593      0.99952     2.08643    0.00999     3.09593
      C   16   -0.10333      0.99950     2.09480    0.00902     3.10333
      C   17   -0.29483      0.99964     2.28956    0.00564     3.29483
      C   18   -0.29301      0.99964     2.28850    0.00487     3.29301
      N   19   -0.40046      0.99972     2.89025    0.01049     3.90046
      H   20    0.10250      0.00000     0.39628    0.00122     0.39750
      H   21    0.10108      0.00000     0.39769    0.00123     0.39892
      H   22    0.09951      0.00000     0.39954    0.00095     0.40049
      H   23    0.09801      0.00000     0.40046    0.00154     0.40199
      H   24    0.10037      0.00000     0.39861    0.00103     0.39963
      H   25    0.09704      0.00000     0.40207    0.00089     0.40296
      H   26    0.18376      0.00000     0.31272    0.00352     0.31624
      H   27    0.08127      0.00000     0.41725    0.00147     0.41873
      H   28    0.10127      0.00000     0.39720    0.00152     0.39873
      H   29    0.10262      0.00000     0.39634    0.00104     0.39738
      H   30    0.10372      0.00000     0.39481    0.00147     0.39628
      H   31    0.10152      0.00000     0.39678    0.00169     0.39848
      H   32    0.09865      0.00000     0.40046    0.00089     0.40135
      H   33    0.09835      0.00000     0.40062    0.00102     0.40165
      H   34    0.10597      0.00000     0.39251    0.00153     0.39403
      H   35    0.10501      0.00000     0.39377    0.00122     0.39499
      H   36    0.10247      0.00000     0.39634    0.00119     0.39753
      H   37    0.10309      0.00000     0.39589    0.00102     0.39691
      H   38    0.10559      0.00000     0.39300    0.00141     0.39441
      H   39    0.10537      0.00000     0.39328    0.00135     0.39463
      H   40    0.18629      0.00000     0.31021    0.00350     0.31371
      H   41    0.19171      0.00000     0.30580    0.00249     0.30829
 =======================================================================
   * Total *   -0.00000     18.99139    49.80241    0.20620    69.00000

 Normal termination of Gaussian 16 at Sat Dec 12 11:26:21 2020.
