 Gaussian 16, Revision A.03,

 -----------------------------------------------------------
 # opt freq B3LYP/6-31G(d) empiricaldispersion=gd3bj scf=xqc
 -----------------------------------------------------------

 -----------------------------
 CID_89378274_JID_246_neutraal
 -----------------------------
 Symbolic Z-matrix:
 Charge =  0 Multiplicity = 1

 SCF Done:  E(RB3LYP) =  -421.584084182     A.U. after   14 cycles
 SCF Done:  E(RB3LYP) =  -421.588879835     A.U. after   12 cycles
 SCF Done:  E(RB3LYP) =  -421.589896494     A.U. after   12 cycles
 SCF Done:  E(RB3LYP) =  -421.590569484     A.U. after   12 cycles
 SCF Done:  E(RB3LYP) =  -421.590869400     A.U. after   12 cycles
 SCF Done:  E(RB3LYP) =  -421.590924872     A.U. after   10 cycles
 SCF Done:  E(RB3LYP) =  -421.590933024     A.U. after   10 cycles
 SCF Done:  E(RB3LYP) =  -421.590933655     A.U. after    8 cycles
 SCF Done:  E(RB3LYP) =  -421.590933736     A.U. after    8 cycles
 Optimization completed.
    -- Stationary point found.

 1\1\GINC-NODE117\FOpt\RB3LYP\6-31G(d)\C8H12N2\VSC10255\08-Dec-2020\0\\
 # opt freq B3LYP/6-31G(d) empiricaldispersion=gd3bj scf=xqc\\CID_89378
 274_JID_246_neutraal\\0,1\C,1.044143079,0.0975005536,-0.0142553435\C,0
 .7399985716,-0.6513939198,-1.2761274301\C,0.5756919193,-1.9883941604,-
 1.3247323064\C,0.3464472001,-2.6786219117,-2.586544879\C,0.011008592,-
 2.0113480199,-3.7117804082\C,-0.2096540785,-0.5133195439,-3.621080433\
 C,0.7108967843,0.1273107508,-2.5746063012\C,-0.2322368619,-2.730976401
 1,-4.9882391595\N,0.3511185903,-3.8066553545,-5.3859736248\N,-1.153593

 Normal termination of Gaussian 16 at Tue Dec  8 10:20:32 2020.

 --------------------------------------------------------------------
 #N Geom=AllCheck Guess=TCheck SCRF=Check GenChk RB3LYP/6-31G(d) Freq
 --------------------------------------------------------------------

 Structure from the checkpoint file:  "JID_246.chk"
 -----------------------------
 CID_89378274_JID_246_neutraal
 -----------------------------
 Charge =  0 Multiplicity = 1

 SCF Done:  E(RB3LYP) =  -421.590933736     A.U. after    1 cycles

  Exact polarizability: 140.516  -2.946  96.968  -1.445   1.976  59.926
 Approx polarizability: 196.135  -8.489 159.880  -5.523   3.967  92.538

                      1                      2                      3
                      A                      A                      A
 Frequencies --     73.0672                84.1605               155.9297
 Red. masses --      3.4500                 3.7383                 2.4958
 Frc consts  --      0.0109                 0.0156                 0.0358
 IR Inten    --      1.6742                 0.7472                 0.7535

                      4                      5                      6
                      A                      A                      A
 Frequencies --    191.2695               203.5795               282.6866
 Red. masses --      1.0940                 3.1959                 2.4226
 Frc consts  --      0.0236                 0.0780                 0.1141
 IR Inten    --      0.6062                 0.9556                 6.6198

                      7                      8                      9
                      A                      A                      A
 Frequencies --    332.7953               337.8705               388.8731
 Red. masses --      4.2928                 2.6829                 2.1187
 Frc consts  --      0.2801                 0.1804                 0.1888
 IR Inten    --      3.6501                 2.1045                 7.4924

                     10                     11                     12
                      A                      A                      A
 Frequencies --    433.6849               486.6750               531.3069
 Red. masses --      1.2674                 2.8665                 2.2681
 Frc consts  --      0.1404                 0.4000                 0.3772
 IR Inten    --     43.1287                 6.7636                 1.1075

                     13                     14                     15
                      A                      A                      A
 Frequencies --    540.5646               556.6146               627.6617
 Red. masses --      3.7892                 3.0687                 1.6382
 Frc consts  --      0.6524                 0.5602                 0.3802
 IR Inten    --      6.6185                35.7511               140.5667

                     16                     17                     18
                      A                      A                      A
 Frequencies --    700.3788               746.0258               778.4785
 Red. masses --      3.8554                 2.4340                 4.0919
 Frc consts  --      1.1142                 0.7982                 1.4610
 IR Inten    --      5.0278               125.6950                 2.8098

                     19                     20                     21
                      A                      A                      A
 Frequencies --    781.6536               854.0451               865.9871
 Red. masses --      2.0751                 1.1708                 1.2640
 Frc consts  --      0.7470                 0.5031                 0.5585
 IR Inten    --      6.3444                33.7709                 6.6726

                     22                     23                     24
                      A                      A                      A
 Frequencies --    945.3272               960.2941               992.4576
 Red. masses --      1.5331                 1.9755                 2.2475
 Frc consts  --      0.8072                 1.0733                 1.3043
 IR Inten    --      1.4533                 2.0990                 1.5018

                     25                     26                     27
                      A                      A                      A
 Frequencies --   1026.9479              1051.4713              1076.9379
 Red. masses --      1.6001                 1.8954                 2.0093
 Frc consts  --      0.9942                 1.2347                 1.3730
 IR Inten    --      2.9221                 1.0847                15.4403

                     28                     29                     30
                      A                      A                      A
 Frequencies --   1093.1745              1116.8448              1154.3803
 Red. masses --      1.9502                 1.6310                 1.6325
 Frc consts  --      1.3731                 1.1987                 1.2818
 IR Inten    --     16.6059                 3.3218                 9.2680

                     31                     32                     33
                      A                      A                      A
 Frequencies --   1195.6695              1198.3611              1226.9204
 Red. masses --      1.6990                 1.3070                 1.8167
 Frc consts  --      1.4311                 1.1058                 1.6113
 IR Inten    --     23.1223                52.7268                15.8163

                     34                     35                     36
                      A                      A                      A
 Frequencies --   1276.9171              1339.5674              1369.7920
 Red. masses --      1.3722                 1.2860                 1.4170
 Frc consts  --      1.3182                 1.3596                 1.5665
 IR Inten    --     15.6149                 1.5384                 1.6548

                     37                     38                     39
                      A                      A                      A
 Frequencies --   1405.0582              1416.0342              1438.5308
 Red. masses --      2.0071                 1.8131                 2.2109
 Frc consts  --      2.3345                 2.1420                 2.6956
 IR Inten    --      9.2045                 4.4212               129.8858

                     40                     41                     42
                      A                      A                      A
 Frequencies --   1442.5513              1499.5234              1506.5268
 Red. masses --      1.4457                 1.0774                 1.0515
 Frc consts  --      1.7725                 1.4274                 1.4061
 IR Inten    --     27.2829                 3.8274                 4.9230

                     43                     44                     45
                      A                      A                      A
 Frequencies --   1512.5186              1516.9524              1645.7301
 Red. masses --      1.0996                 1.0743                 2.0685
 Frc consts  --      1.4822                 1.4565                 3.3009
 IR Inten    --      2.8277                 7.6222               146.2285

                     46                     47                     48
                      A                      A                      A
 Frequencies --   1658.0096              1705.5284              1731.0329
 Red. masses --      3.0137                 3.4268                 5.2754
 Frc consts  --      4.8812                 5.8729                 9.3135
 IR Inten    --     15.3024               121.0900                32.6305

                     49                     50                     51
                      A                      A                      A
 Frequencies --   2975.4182              2996.1122              3024.0701
 Red. masses --      1.0738                 1.0700                 1.0395
 Frc consts  --      5.6012                 5.6593                 5.6012
 IR Inten    --     23.0656                43.0699                43.9918

                     52                     53                     54
                      A                      A                      A
 Frequencies --   3067.1051              3075.6740              3110.7327
 Red. masses --      1.0988                 1.0903                 1.0881
 Frc consts  --      6.0900                 6.0770                 6.2039
 IR Inten    --     18.8955                36.6939                14.1516

                     55                     56                     57
                      A                      A                      A
 Frequencies --   3124.5723              3174.1605              3189.0658
 Red. masses --      1.0993                 1.0881                 1.0921
 Frc consts  --      6.3234                 6.4593                 6.5437
 IR Inten    --     21.6657                24.6138                19.7691

                     58                     59                     60
                      A                      A                      A
 Frequencies --   3476.1543              3541.5209              3650.3660
 Red. masses --      1.0742                 1.0469                 1.0991
 Frc consts  --      7.6476                 7.7362                 8.6288
 IR Inten    --      3.2071                14.8625                12.4167

 - Thermochemistry -
 -------------------
 Temperature   298.150 Kelvin.  Pressure   1.00000 Atm.
 Atom     1 has atomic number  6 and mass  12.00000

 Molecular mass:   136.10005 amu.
 Principal axes and moments of inertia in atomic units:
                           1         2         3
     Eigenvalues --   531.985952396.902262774.17383
           X            0.99998   0.00270   0.00534
           Y           -0.00271   0.99999   0.00179
           Z           -0.00534  -0.00180   0.99998
 This molecule is an asymmetric top.
 Rotational symmetry number  1.
 Warning -- assumption of classical behavior for rotation
           may cause significant error
 Rotational temperatures (Kelvin)      0.16281     0.03614     0.03122
 Rotational constants (GHZ):           3.39246     0.75295     0.65055
 Zero-point vibrational energy     501602.1 (Joules/Mol)
                                  119.88578 (Kcal/Mol)
 Warning -- explicit consideration of  14 degrees of freedom as
           vibrations may cause significant error
 Vibrational temperatures:    105.13   121.09   224.35   275.19   292.91
          (Kelvin)            406.72   478.82   486.12   559.50   623.98
                              700.22   764.43   777.75   800.84   903.07
                             1007.69  1073.36  1120.06  1124.63  1228.78
                             1245.96  1360.11  1381.65  1427.93  1477.55
                             1512.83  1549.47  1572.83  1606.89  1660.90
                             1720.30  1724.17  1765.26  1837.20  1927.34
                             1970.83  2021.57  2037.36  2069.72  2075.51
                             2157.48  2167.56  2176.18  2182.56  2367.84
                             2385.51  2453.87  2490.57  4280.96  4310.74
                             4350.96  4412.88  4425.21  4475.65  4495.56
                             4566.91  4588.35  5001.41  5095.46  5252.06

 Zero-point correction=                           0.191050 (Hartree/Particle)
 Thermal correction to Energy=                    0.200880
 Thermal correction to Enthalpy=                  0.201824
 Thermal correction to Gibbs Free Energy=         0.156183
 Sum of electronic and zero-point Energies=           -421.399884
 Sum of electronic and thermal Energies=              -421.390054
 Sum of electronic and thermal Enthalpies=            -421.389110
 Sum of electronic and thermal Free Energies=         -421.434751

                     E (Thermal)             CV                S
                      KCal/Mol        Cal/Mol-Kelvin    Cal/Mol-Kelvin
 Total                  126.054             37.907             96.060
 Electronic               0.000              0.000              0.000
 Translational            0.889              2.981             40.637
 Rotational               0.889              2.981             29.649
 Vibrational            124.276             31.945             25.774
 Vibration     1          0.599              1.967              4.069
 Vibration     2          0.601              1.960              3.791
 Vibration     3          0.620              1.896              2.599
 Vibration     4          0.634              1.852              2.215
 Vibration     5          0.639              1.835              2.101
 Vibration     6          0.682              1.706              1.517
 Vibration     7          0.715              1.610              1.246
 Vibration     8          0.718              1.600              1.222
 Vibration     9          0.757              1.494              1.004
 Vibration    10          0.794              1.397              0.847
 Vibration    11          0.843              1.280              0.692
 Vibration    12          0.886              1.181              0.584
 Vibration    13          0.896              1.160              0.564
 Vibration    14          0.912              1.125              0.531

 Optimization completed.
    -- Stationary point found.

 1\1\GINC-NODE117\Freq\RB3LYP\6-31G(d)\C8H12N2\VSC10255\08-Dec-2020\0\\
 #N Geom=AllCheck Guess=TCheck SCRF=Check GenChk RB3LYP/6-31G(d) Freq\\
 CID_89378274_JID_246_neutraal\\0,1\C,1.044143079,0.0975005536,-0.01425
 53435\C,0.7399985716,-0.6513939198,-1.2761274301\C,0.5756919193,-1.988
 3941604,-1.3247323064\C,0.3464472001,-2.6786219117,-2.586544879\C,0.01
 1008592,-2.0113480199,-3.7117804082\C,-0.2096540785,-0.5133195439,-3.6
 21080433\C,0.7108967843,0.1273107508,-2.5746063012\C,-0.2322368619,-2.
 7309764011,-4.9882391595\N,0.3511185903,-3.8066553545,-5.3859736248\N,

 Normal termination of Gaussian 16 at Tue Dec  8 10:24:26 2020.

 ----------------------------------------------------------------------
 # B3LYP/6-311++G(d,p) empiricaldispersion=gd3bj scf=xqc pop=npa geom=c
 heck
 ----------------------------------------------------------------------

 -------------------------------------
 CID_89378274_JID_246_Energie_neutraal
 -------------------------------------
 Structure from the checkpoint file:  "JID_246.chk"
 Charge =  0 Multiplicity = 1

 SCF Done:  E(RB3LYP) =  -421.716755892     A.U. after   15 cycles
 Normal termination of Gaussian 16 at Tue Dec  8 10:26:11 2020.

 ----------------------------------------------------------------------
 # B3LYP/6-311++G(d,p) empiricaldispersion=gd3bj scf=xqc pop=npa geom=c
 heck
 ----------------------------------------------------------------------

 -----------------------------------
 CID_89378274_JID_246_Energie_kation
 -----------------------------------
 Structure from the checkpoint file:  "JID_246.chk"
 Charge =  1 Multiplicity = 2

 SCF Done:  E(UB3LYP) =  -421.431431446     A.U. after   22 cycles
 Normal termination of Gaussian 16 at Tue Dec  8 10:29:52 2020.
 Gaussian 16:  ES64L-G16RevA.03 25-Dec-2016

 ----------------------------------
 CID_89378274_JID_246_Energie_anion
 ----------------------------------
 Structure from the checkpoint file:  "JID_246.chk"
 Charge = -1 Multiplicity = 2

                         Standard orientation:
 ---------------------------------------------------------------------
 Center     Atomic      Atomic             Coordinates (Angstroms)
 Number     Number       Type             X           Y           Z
 ---------------------------------------------------------------------
      1          6           0        3.629198    0.029992   -0.041475
      2          6           0        2.132332    0.089717   -0.002819
      3          6           0        1.423870    1.184022   -0.345612
      4          6           0       -0.027504    1.214830   -0.228558
      5          6           0       -0.750621    0.088864   -0.046265
      6          6           0       -0.022698   -1.241973   -0.049272
      7          6           0        1.387464   -1.111791    0.540158
      8          6           0       -2.231595    0.135280    0.058334
      9          7           0       -2.935505    1.083759    0.568707
     10          7           0       -2.886254   -1.003022   -0.406286
     11          1           0        4.066516    0.973888   -0.381202
     12          1           0        3.977664   -0.770894   -0.708141
     13          1           0        4.036607   -0.198227    0.954050
     14          1           0        1.933552    2.082598   -0.685632
     15          1           0       -0.532979    2.173233   -0.320425
     16          1           0        0.057126   -1.602666   -1.089514
     17          1           0       -0.595619   -1.996002    0.497578
     18          1           0        1.321659   -1.007502    1.636268
     19          1           0        1.954095   -2.032288    0.356597
     20          1           0       -2.320009    1.780958    0.991270
     21          1           0       -2.498785   -1.432294   -1.237758
     22          1           0       -3.890189   -0.869604   -0.456988
 ---------------------------------------------------------------------

 SCF Done:  E(UB3LYP) =  -421.714795242     A.U. after   32 cycles

 The electronic state is 2-A.
 Alpha  occ. eigenvalues --  -14.17830 -14.11285 -10.07879 -10.03434 -10.02823
 Alpha  occ. eigenvalues --  -10.02531 -10.00770 -10.00406  -9.99937  -9.99849
 Alpha  occ. eigenvalues --   -0.79545  -0.69783  -0.68852  -0.62171  -0.58989
 Alpha  occ. eigenvalues --   -0.54573  -0.47185  -0.46222  -0.41395  -0.38903
 Alpha  occ. eigenvalues --   -0.33811  -0.33358  -0.30792  -0.29867  -0.29084
 Alpha  occ. eigenvalues --   -0.27717  -0.26396  -0.24809  -0.23660  -0.23159
 Alpha  occ. eigenvalues --   -0.20858  -0.18548  -0.17722  -0.15376  -0.11252
 Alpha  occ. eigenvalues --   -0.10526  -0.05978   0.05663
 Alpha virt. eigenvalues --    0.08445   0.09186   0.10430   0.11155   0.11507
 Alpha virt. eigenvalues --    0.12352   0.12789   0.13540   0.14142   0.14806
 Alpha virt. eigenvalues --    0.15568   0.16077   0.17054   0.18153   0.18687

  Beta  occ. eigenvalues --  -14.17818 -14.11117 -10.07798 -10.03465 -10.02846
  Beta  occ. eigenvalues --  -10.02539 -10.00479 -10.00286  -9.99707  -9.99597
  Beta  occ. eigenvalues --   -0.79365  -0.69511  -0.68448  -0.61693  -0.58724
  Beta  occ. eigenvalues --   -0.54311  -0.47060  -0.45767  -0.41035  -0.38730
  Beta  occ. eigenvalues --   -0.33495  -0.33110  -0.30563  -0.29527  -0.28937
  Beta  occ. eigenvalues --   -0.27423  -0.26144  -0.24697  -0.23450  -0.22726
  Beta  occ. eigenvalues --   -0.20514  -0.18315  -0.17521  -0.14127  -0.10977
  Beta  occ. eigenvalues --   -0.09861  -0.04238
  Beta virt. eigenvalues --    0.08512   0.09155   0.10442   0.10603   0.11210
  Beta virt. eigenvalues --    0.12191   0.12581   0.12752   0.13638   0.14016
  Beta virt. eigenvalues --    0.14977   0.15528   0.16175   0.17499   0.18263

 Mulliken charges and spin densities:
               1          2
     1  C   -0.263164  -0.339746
     2  C    0.684086   0.587067
     3  C   -0.487032  -0.365966
     4  C   -1.266942   0.645711
     5  C    1.644009  -0.041989
     6  C   -0.509330   0.026131
     7  C   -0.593104  -0.242120
     8  C   -0.503373  -0.120845
     9  N   -0.378488   0.098247
    10  N   -0.310539   0.022773
    11  H    0.085977   0.034287
    12  H   -0.142026   0.291642
    13  H    0.127841  -0.008311
    14  H    0.096660  -0.017014
    15  H    0.014994   0.055955
    16  H   -0.088186   0.209972
    17  H    0.167390  -0.015761
    18  H    0.122018   0.001404
    19  H   -0.004908   0.139073
    20  H    0.183908  -0.011763
    21  H    0.165182   0.053538
    22  H    0.255028  -0.002284
 Sum of Mulliken charges =  -1.00000   1.00000

 Dipole moment (field-independent basis, Debye):
    X=              1.1511    Y=             -1.1923    Z=              0.2232  Tot=              1.6722
 Quadrupole moment (field-independent basis, Debye-Ang):
   XX=           -105.7642   YY=            -77.4877   ZZ=            -74.4500
   XY=             10.4343   XZ=              8.9035   YZ=             -0.4192

 Summary of Natural Population Analysis:

                                       Natural Population
                Natural  -----------------------------------------------
    Atom  No    Charge         Core      Valence    Rydberg      Total
 -----------------------------------------------------------------------
      C    1   -0.29621      0.99963     2.29142    0.00516     3.29621
      C    2    0.08626      0.99951     1.90485    0.00939     2.91374
      C    3   -0.14874      0.99947     2.13778    0.01149     3.14874
      C    4   -0.05135      0.99949     2.04115    0.01071     3.05135
      C    5   -0.01776      0.99944     2.00740    0.01092     3.01776
      C    6   -0.19615      0.99962     2.18700    0.00953     3.19615
      C    7   -0.19966      0.99961     2.19108    0.00898     3.19966
      C    8    0.22304      0.99961     1.75692    0.02043     2.77696
      N    9   -0.36542      0.99971     2.85756    0.00815     3.86542
      N   10   -0.41151      0.99971     2.90216    0.00964     3.91151
      H   11    0.09483      0.00000     0.40440    0.00077     0.40517
      H   12    0.10090      0.00000     0.39706    0.00205     0.39910
      H   13    0.09504      0.00000     0.40400    0.00096     0.40496
      H   14    0.08831      0.00000     0.41069    0.00101     0.41169
      H   15    0.08984      0.00000     0.40851    0.00165     0.41016
      H   16    0.09215      0.00000     0.40535    0.00249     0.40785
      H   17    0.09972      0.00000     0.39915    0.00113     0.40028
      H   18    0.09637      0.00000     0.40239    0.00124     0.40363
      H   19    0.09511      0.00000     0.40361    0.00127     0.40489
      H   20    0.16228      0.00000     0.33606    0.00166     0.33772
      H   21    0.18090      0.00000     0.31735    0.00175     0.31910
      H   22    0.18205      0.00000     0.31582    0.00213     0.31795
 =======================================================================
   * Total *   -0.00000      9.99579    26.88171    0.12250    37.00000

 Normal termination of Gaussian 16 at Tue Dec  8 10:37:15 2020.
