 Gaussian 16, Revision A.03,

 -----------------------------------------------------------
 # opt freq B3LYP/6-31G(d) empiricaldispersion=gd3bj scf=xqc
 -----------------------------------------------------------

 ------------------------------
 CID_82286289_JID_6842_neutraal
 ------------------------------
 Symbolic Z-matrix:
 Charge =  0 Multiplicity = 1

 SCF Done:  E(RB3LYP) =  -726.920331738     A.U. after   15 cycles
 SCF Done:  E(RB3LYP) =  -726.925346354     A.U. after   12 cycles
 SCF Done:  E(RB3LYP) =  -726.925797336     A.U. after   11 cycles
 SCF Done:  E(RB3LYP) =  -726.925873543     A.U. after   11 cycles
 SCF Done:  E(RB3LYP) =  -726.925943990     A.U. after   10 cycles
 SCF Done:  E(RB3LYP) =  -726.925977559     A.U. after   10 cycles
 SCF Done:  E(RB3LYP) =  -726.925990903     A.U. after   10 cycles
 SCF Done:  E(RB3LYP) =  -726.925996931     A.U. after    9 cycles
 SCF Done:  E(RB3LYP) =  -726.925998387     A.U. after    9 cycles
 SCF Done:  E(RB3LYP) =  -726.925998549     A.U. after    8 cycles
 SCF Done:  E(RB3LYP) =  -726.925998585     A.U. after    7 cycles
 Optimization completed.
    -- Stationary point found.
 Normal termination of Gaussian 16 at Fri Dec 11 00:49:18 2020.

 --------------------------------------------------------------------
 #N Geom=AllCheck Guess=TCheck SCRF=Check GenChk RB3LYP/6-31G(d) Freq
 --------------------------------------------------------------------

 Structure from the checkpoint file:  "JID_6842.chk"
 ------------------------------
 CID_82286289_JID_6842_neutraal
 ------------------------------
 Charge =  0 Multiplicity = 1

 SCF Done:  E(RB3LYP) =  -726.925998585     A.U. after    1 cycles

  Exact polarizability: 188.948 -15.911 146.248  10.512  19.386  92.613
 Approx polarizability: 266.985 -30.887 224.032  21.592  39.803 150.586

                      1                      2                      3
                      A                      A                      A
 Frequencies --     29.8505                33.4630                66.2698
 Red. masses --      3.9085                 3.8350                 4.5236
 Frc consts  --      0.0021                 0.0025                 0.0117
 IR Inten    --      0.4000                 0.1248                 0.0768

                      4                      5                      6
                      A                      A                      A
 Frequencies --     89.4643               115.2042               135.3691
 Red. masses --      2.1438                 4.5763                 2.6597
 Frc consts  --      0.0101                 0.0358                 0.0287
 IR Inten    --      0.2121                 1.4021                 0.8974

                      7                      8                      9
                      A                      A                      A
 Frequencies --    170.5020               194.4409               223.8660
 Red. masses --      5.4892                 3.7217                 2.6609
 Frc consts  --      0.0940                 0.0829                 0.0786
 IR Inten    --      1.1850                 0.4748                 6.3740

                     10                     11                     12
                      A                      A                      A
 Frequencies --    265.3340               270.0635               294.8444
 Red. masses --      1.2737                 1.5575                 2.4734
 Frc consts  --      0.0528                 0.0669                 0.1267
 IR Inten    --      0.5780                69.2841                41.0933

                     13                     14                     15
                      A                      A                      A
 Frequencies --    301.9423               324.4548               338.6054
 Red. masses --      2.2169                 3.7722                 4.5391
 Frc consts  --      0.1191                 0.2340                 0.3066
 IR Inten    --      1.1668                 4.2134                 7.3149

                     16                     17                     18
                      A                      A                      A
 Frequencies --    391.4063               419.0995               447.3827
 Red. masses --      4.5909                 3.1495                 2.4860
 Frc consts  --      0.4144                 0.3259                 0.2932
 IR Inten    --      5.0635                 0.7585                15.0949

                     19                     20                     21
                      A                      A                      A
 Frequencies --    480.4940               527.6055               542.1371
 Red. masses --      1.3393                 4.7759                 4.9545
 Frc consts  --      0.1822                 0.7833                 0.8580
 IR Inten    --     57.2439                12.7767                 8.8524

                     22                     23                     24
                      A                      A                      A
 Frequencies --    566.0783               574.6589               627.4813
 Red. masses --      2.4004                 3.3618                 3.1822
 Frc consts  --      0.4532                 0.6541                 0.7382
 IR Inten    --     46.7487                17.6936                 1.8532

                     25                     26                     27
                      A                      A                      A
 Frequencies --    637.8317               672.3423               731.4463
 Red. masses --      4.3570                 5.0086                 2.5750
 Frc consts  --      1.0443                 1.3340                 0.8117
 IR Inten    --     17.5332                17.1286                48.7754

                     28                     29                     30
                      A                      A                      A
 Frequencies --    746.3211               770.5929               824.9866
 Red. masses --      4.2809                 1.8400                 1.1251
 Frc consts  --      1.4049                 0.6438                 0.4512
 IR Inten    --      0.0585                83.2509                 0.0941

                     31                     32                     33
                      A                      A                      A
 Frequencies --    836.2275               859.4273               871.4215
 Red. masses --      1.4510                 3.3528                 3.7565
 Frc consts  --      0.5978                 1.4591                 1.6807
 IR Inten    --     26.5655                 0.7511                14.2024

                     34                     35                     36
                      A                      A                      A
 Frequencies --    896.3998               901.8171               937.6876
 Red. masses --      2.0375                 1.3739                 2.8413
 Frc consts  --      0.9646                 0.6583                 1.4719
 IR Inten    --      2.2939                 1.2319                10.4437

                     37                     38                     39
                      A                      A                      A
 Frequencies --    954.7270               977.0534               981.5461
 Red. masses --      1.3266                 2.2899                 2.1204
 Frc consts  --      0.7124                 1.2880                 1.2036
 IR Inten    --      2.2205                 5.0366                10.1130

                     40                     41                     42
                      A                      A                      A
 Frequencies --   1042.1393              1057.3358              1092.4173
 Red. masses --      2.5505                 2.4853                 4.9749
 Frc consts  --      1.6321                 1.6370                 3.4979
 IR Inten    --      7.8189                 1.7895                47.9393

                     43                     44                     45
                      A                      A                      A
 Frequencies --   1135.1912              1145.8853              1162.7326
 Red. masses --      2.4639                 1.8862                 1.4982
 Frc consts  --      1.8707                 1.4592                 1.1934
 IR Inten    --     92.5210                 8.7237                 3.1834

                     46                     47                     48
                      A                      A                      A
 Frequencies --   1170.9363              1172.3216              1187.3936
 Red. masses --      1.1738                 1.7667                 2.4271
 Frc consts  --      0.9482                 1.4305                 2.0162
 IR Inten    --      1.0445                50.6969                 5.6751

                     49                     50                     51
                      A                      A                      A
 Frequencies --   1213.6757              1237.1293              1247.1941
 Red. masses --      2.0374                 1.3698                 1.4248
 Frc consts  --      1.7682                 1.2352                 1.3058
 IR Inten    --     33.8479                88.8276                43.9101

                     52                     53                     54
                      A                      A                      A
 Frequencies --   1268.0078              1285.6029              1293.5309
 Red. masses --      2.1244                 1.3360                 3.1644
 Frc consts  --      2.0125                 1.3009                 3.1196
 IR Inten    --     21.7065                 7.7118                48.0650

                     55                     56                     57
                      A                      A                      A
 Frequencies --   1320.2210              1336.7353              1339.8263
 Red. masses --      2.9712                 1.2275                 1.2810
 Frc consts  --      3.0512                 1.2923                 1.3548
 IR Inten    --     12.8881                 5.7808                 6.6477

                     58                     59                     60
                      A                      A                      A
 Frequencies --   1359.7891              1393.3359              1409.6117
 Red. masses --      1.7052                 1.2585                 1.2875
 Frc consts  --      1.8577                 1.4395                 1.5073
 IR Inten    --     63.2123                 1.0302                 6.9292

                     61                     62                     63
                      A                      A                      A
 Frequencies --   1440.4429              1441.6981              1449.0455
 Red. masses --      2.6313                 1.3668                 1.7452
 Frc consts  --      3.2168                 1.6739                 2.1590
 IR Inten    --     19.5346                16.2649                45.5203

                     64                     65                     66
                      A                      A                      A
 Frequencies --   1469.1260              1500.3121              1505.3268
 Red. masses --      1.1176                 1.4558                 1.7079
 Frc consts  --      1.4213                 1.9307                 2.2802
 IR Inten    --      7.7160                 0.4780                 0.6192

                     67                     68                     69
                      A                      A                      A
 Frequencies --   1514.3663              1528.7290              1534.2766
 Red. masses --      1.1367                 1.0475                 1.2222
 Frc consts  --      1.5359                 1.4424                 1.6951
 IR Inten    --      6.6646                 8.6294                38.5757

                     70                     71                     72
                      A                      A                      A
 Frequencies --   1542.9394              1554.0076              1656.4202
 Red. masses --      2.5963                 1.1081                 6.3964
 Frc consts  --      3.6416                 1.5767                10.3402
 IR Inten    --     76.6144                 2.2291                13.1296

                     73                     74                     75
                      A                      A                      A
 Frequencies --   1686.0681              1849.4672              2941.7394
 Red. masses --      6.8430                11.0255                 1.0735
 Frc consts  --     11.4617                22.2199                 5.4734
 IR Inten    --     56.7704               593.0258                69.2492

                     76                     77                     78
                      A                      A                      A
 Frequencies --   3001.6051              3013.4862              3045.8580
 Red. masses --      1.0829                 1.0648                 1.0508
 Frc consts  --      5.7485                 5.6973                 5.7436
 IR Inten    --     50.3484                60.3042                12.3394

                     79                     80                     81
                      A                      A                      A
 Frequencies --   3052.2614              3069.7243              3079.8164
 Red. masses --      1.0729                 1.0606                 1.0996
 Frc consts  --      5.8891                 5.8886                 6.1453
 IR Inten    --     44.9102                 7.7023                39.6997

                     82                     83                     84
                      A                      A                      A
 Frequencies --   3104.7659              3111.8875              3135.8958
 Red. masses --      1.1028                 1.0988                 1.1032
 Frc consts  --      6.2635                 6.2692                 6.3919
 IR Inten    --      3.6456                50.5125                25.9425

                     85                     86                     87
                      A                      A                      A
 Frequencies --   3180.5297              3198.3887              3229.2811
 Red. masses --      1.0901                 1.0899                 1.0919
 Frc consts  --      6.4970                 6.5692                 6.7090
 IR Inten    --     14.2070                11.8156                 3.4137

                     88                     89                     90
                      A                      A                      A
 Frequencies --   3490.7567              3643.1402              3740.1407
 Red. masses --      1.0732                 1.0789                 1.0660
 Frc consts  --      7.7047                 8.4369                 8.7859
 IR Inten    --      0.4711                45.7891                 9.3622

 - Thermochemistry -
 -------------------
 Temperature   298.150 Kelvin.  Pressure   1.00000 Atm.
 Atom     1 has atomic number  6 and mass  12.00000

 Molecular mass:   220.12118 amu.
 Principal axes and moments of inertia in atomic units:
                           1         2         3
     Eigenvalues --  2249.495805852.052827556.66550
           X            0.99965   0.02647   0.00072
           Y           -0.02648   0.99955   0.01374
           Z           -0.00036  -0.01375   0.99991
 This molecule is an asymmetric top.
 Rotational symmetry number  1.
 Warning -- assumption of classical behavior for rotation
           may cause significant error
 Rotational temperatures (Kelvin)      0.03850     0.01480     0.01146
 Rotational constants (GHZ):           0.80229     0.30839     0.23883
 Zero-point vibrational energy     709459.5 (Joules/Mol)
                                  169.56488 (Kcal/Mol)
 Warning -- explicit consideration of  23 degrees of freedom as
           vibrations may cause significant error
 Vibrational temperatures:     42.95    48.15    95.35   128.72   165.75
          (Kelvin)            194.77   245.31   279.76   322.09   381.76
                              388.56   424.22   434.43   466.82   487.18
                              563.15   602.99   643.68   691.32   759.11
                              780.01   814.46   826.81   902.81   917.70
                              967.35  1052.39  1073.79  1108.71  1186.97
                             1203.14  1236.52  1253.78  1289.72  1297.51
                             1349.12  1373.64  1405.76  1412.23  1499.41
                             1521.27  1571.74  1633.29  1648.67  1672.91
                             1684.72  1686.71  1708.39  1746.21  1779.95
                             1794.43  1824.38  1849.70  1861.10  1899.50
                             1923.26  1927.71  1956.43  2004.70  2028.12
                             2072.48  2074.28  2084.85  2113.74  2158.61
                             2165.83  2178.84  2199.50  2207.48  2219.95
                             2235.87  2383.22  2425.88  2660.97  4232.51
                             4318.64  4335.73  4382.31  4391.52  4416.65
                             4431.17  4467.07  4477.31  4511.85  4576.07
                             4601.77  4646.22  5022.42  5241.67  5381.23

 Zero-point correction=                           0.270219 (Hartree/Particle)
 Thermal correction to Energy=                    0.285466
 Thermal correction to Enthalpy=                  0.286411
 Thermal correction to Gibbs Free Energy=         0.226815
 Sum of electronic and zero-point Energies=           -726.655780
 Sum of electronic and thermal Energies=              -726.640532
 Sum of electronic and thermal Enthalpies=            -726.639588
 Sum of electronic and thermal Free Energies=         -726.699184

                     E (Thermal)             CV                S
                      KCal/Mol        Cal/Mol-Kelvin    Cal/Mol-Kelvin
 Total                  179.133             58.429            125.430
 Electronic               0.000              0.000              0.000
 Translational            0.889              2.981             42.070
 Rotational               0.889              2.981             32.964
 Vibrational            177.355             52.467             50.396
 Vibration     1          0.594              1.984              5.839
 Vibration     2          0.594              1.983              5.613
 Vibration     3          0.598              1.970              4.261
 Vibration     4          0.602              1.957              3.672
 Vibration     5          0.608              1.937              3.179
 Vibration     6          0.613              1.918              2.868
 Vibration     7          0.626              1.879              2.430
 Vibration     8          0.635              1.848              2.185
 Vibration     9          0.649              1.805              1.928
 Vibration    10          0.671              1.737              1.626
 Vibration    11          0.674              1.728              1.596
 Vibration    12          0.689              1.683              1.446
 Vibration    13          0.694              1.670              1.406
 Vibration    14          0.709              1.627              1.288
 Vibration    15          0.719              1.598              1.219
 Vibration    16          0.759              1.489              0.995
 Vibration    17          0.782              1.429              0.895
 Vibration    18          0.807              1.367              0.804
 Vibration    19          0.837              1.293              0.709
 Vibration    20          0.883              1.189              0.593
 Vibration    21          0.897              1.157              0.561
 Vibration    22          0.922              1.105              0.512
 Vibration    23          0.931              1.086              0.495

                           ! Non-Optimized Parameters !
 Normal termination of Gaussian 16 at Fri Dec 11 00:59:18 2020.

 ----------------------------------------------------------------------
 # B3LYP/6-311++G(d,p) empiricaldispersion=gd3bj scf=xqc pop=npa geom=c
 heck
 ----------------------------------------------------------------------

 --------------------------------------
 CID_82286289_JID_6842_Energie_neutraal
 --------------------------------------
 Structure from the checkpoint file:  "JID_6842.chk"
 Charge =  0 Multiplicity = 1

 SCF Done:  E(RB3LYP) =  -727.141436258     A.U. after   15 cycles
 Normal termination of Gaussian 16 at Fri Dec 11 01:04:09 2020.

 ----------------------------------------------------------------------
 # B3LYP/6-311++G(d,p) empiricaldispersion=gd3bj scf=xqc pop=npa geom=c
 heck
 ----------------------------------------------------------------------

 ------------------------------------
 CID_82286289_JID_6842_Energie_kation
 ------------------------------------
 Structure from the checkpoint file:  "JID_6842.chk"
 Charge =  1 Multiplicity = 2

 SCF Done:  E(UB3LYP) =  -726.858188293     A.U. after   24 cycles
 Normal termination of Gaussian 16 at Fri Dec 11 01:15:02 2020.
 Gaussian 16:  ES64L-G16RevA.03 25-Dec-2016

 ----------------------------------------------------------------------
 # B3LYP/6-311++G(d,p) empiricaldispersion=gd3bj scf=xqc pop=npa geom=c
 heck
 ----------------------------------------------------------------------

 -----------------------------------
 CID_82286289_JID_6842_Energie_anion
 -----------------------------------
 Structure from the checkpoint file:  "JID_6842.chk"
 Charge = -1 Multiplicity = 2

                         Standard orientation:
 ---------------------------------------------------------------------
 Center     Atomic      Atomic             Coordinates (Angstroms)
 Number     Number       Type             X           Y           Z
 ---------------------------------------------------------------------
      1          6           0        2.856739    3.228130   -0.337865
      2          6           0        3.120039    1.801839    0.135158
      3          7           0        2.705462    0.843797   -0.886337
      4          6           0        2.938421   -0.554009   -0.571591
      5          6           0        2.121808   -1.168533    0.598092
      6          6           0        0.640166   -1.063635    0.331533
      7          6           0       -0.066372    0.082238    0.737368
      8          6           0       -1.406055    0.217822    0.411921
      9          6           0       -2.051806   -0.797160   -0.314166
     10          6           0       -1.379946   -1.943400   -0.720032
     11          6           0       -0.025558   -2.058941   -0.392107
     12          7           0       -3.391423   -0.438870   -0.510474
     13          6           0       -3.706975    0.788565    0.054060
     14          8           0       -4.795935    1.324340    0.025069
     15          6           0       -2.409289    1.303862    0.704732
     16          8           0        2.462306   -2.547170    0.742705
     17          1           0        3.365552    3.415157   -1.288500
     18          1           0        3.205711    3.957344    0.401049
     19          1           0        1.783025    3.396354   -0.490443
     20          1           0        4.195446    1.657782    0.304703
     21          1           0        2.631300    1.650562    1.115801
     22          1           0        1.720230    0.980871   -1.106951
     23          1           0        2.724138   -1.157181   -1.462433
     24          1           0        4.009594   -0.673846   -0.347343
     25          1           0        2.354119   -0.623785    1.526186
     26          1           0        0.437108    0.851936    1.317773
     27          1           0       -1.886314   -2.728932   -1.273158
     28          1           0        0.527595   -2.943772   -0.686280
     29          1           0       -4.081122   -0.992540   -0.998398
     30          1           0       -2.149849    2.276320    0.270364
     31          1           0       -2.583139    1.467292    1.774626
     32          1           0        3.430330   -2.606078    0.755856
 ---------------------------------------------------------------------

 SCF Done:  E(UB3LYP) =  -727.131573895     A.U. after   33 cycles
 SCF Done:  E(UB3LYP) =  -727.131794479     a.u. after    6 cycles

 The electronic state is 2-A.
 Alpha  occ. eigenvalues --  -19.02897 -19.01359 -14.26572 -14.20612 -10.19522
 Alpha  occ. eigenvalues --  -10.12784 -10.12777 -10.10266 -10.10176 -10.09897
 Alpha  occ. eigenvalues --  -10.09123 -10.08526 -10.08501 -10.08406 -10.07945
 Alpha  occ. eigenvalues --  -10.07413  -0.96355  -0.93195  -0.87449  -0.81684
 Alpha  occ. eigenvalues --   -0.76205  -0.70220  -0.67979  -0.65725  -0.62744
 Alpha  occ. eigenvalues --   -0.60251  -0.54904  -0.53397  -0.51969  -0.50324
 Alpha  occ. eigenvalues --   -0.48497  -0.44765  -0.41899  -0.40430  -0.38989
 Alpha  occ. eigenvalues --   -0.38702  -0.37621  -0.36873  -0.36082  -0.34936
 Alpha  occ. eigenvalues --   -0.34542  -0.33125  -0.32554  -0.31813  -0.30407
 Alpha  occ. eigenvalues --   -0.30329  -0.28476  -0.28349  -0.27717  -0.26495
 Alpha  occ. eigenvalues --   -0.26059  -0.25703  -0.23876  -0.22292  -0.19482
 Alpha  occ. eigenvalues --   -0.18006  -0.16513  -0.13611  -0.12393   0.03998
 Alpha virt. eigenvalues --    0.05499   0.06091   0.06297   0.07430   0.07733
 Alpha virt. eigenvalues --    0.08232   0.08677   0.09379   0.09956   0.10484
 Alpha virt. eigenvalues --    0.10753   0.11041   0.11456   0.12245   0.12477

  Beta  occ. eigenvalues --  -19.02867 -19.01356 -14.26544 -14.20607 -10.19513
  Beta  occ. eigenvalues --  -10.12793 -10.12763 -10.10255 -10.10155 -10.09875
  Beta  occ. eigenvalues --  -10.09082 -10.08493 -10.08467 -10.08412 -10.07916
  Beta  occ. eigenvalues --  -10.07399  -0.96341  -0.93130  -0.87416  -0.81663
  Beta  occ. eigenvalues --   -0.76148  -0.70151  -0.67937  -0.65685  -0.62679
  Beta  occ. eigenvalues --   -0.60205  -0.54853  -0.53321  -0.51919  -0.50253
  Beta  occ. eigenvalues --   -0.48434  -0.44714  -0.41828  -0.40404  -0.38949
  Beta  occ. eigenvalues --   -0.38631  -0.37587  -0.36835  -0.36039  -0.34904
  Beta  occ. eigenvalues --   -0.34493  -0.33088  -0.32502  -0.31770  -0.30357
  Beta  occ. eigenvalues --   -0.30291  -0.28429  -0.28288  -0.27686  -0.26448
  Beta  occ. eigenvalues --   -0.26028  -0.25664  -0.23840  -0.22230  -0.19442
  Beta  occ. eigenvalues --   -0.17992  -0.16302  -0.13574  -0.12317
  Beta virt. eigenvalues --    0.06151   0.06457   0.06801   0.07169   0.07581
  Beta virt. eigenvalues --    0.08143   0.08573   0.09075   0.09698   0.10187
  Beta virt. eigenvalues --    0.10626   0.11054   0.11280   0.11542   0.12335

 Mulliken charges and spin densities:
               1          2
     1  C    0.229650  -0.758581
     2  C   -0.034806  -0.234142
     3  N   -0.085215   0.020211
     4  C   -0.074696  -0.395069
     5  C    1.559310  -1.535223
     6  C   -0.205815   0.795208
     7  C   -0.349285   0.332553
     8  C    1.266424  -0.361233
     9  C    0.469947  -1.462986
    10  C   -0.393579  -0.100499
    11  C   -1.023928   0.624684
    12  N   -0.147141  -0.025941
    13  C   -0.126260   0.243750
    14  O   -0.360081   0.003820
    15  C    0.017404  -0.596487
    16  O   -0.194939   0.006559
    17  H    0.125102   0.033067
    18  H   -0.132546   0.263213
    19  H    0.035245   0.082670
    20  H   -0.379277   0.533629
    21  H    0.047357   0.053981
    22  H    0.250706  -0.036175
    23  H    0.019016   0.172184
    24  H   -0.221847   0.350015
    25  H   -0.342252   0.566638
    26  H   -0.271505   0.396214
    27  H   -0.636441   0.805466
    28  H    0.123592   0.062324
    29  H   -0.049244   0.379077
    30  H    0.132578   0.064780
    31  H   -0.112375   0.330992
    32  H   -0.135102   0.385300
 Sum of Mulliken charges =  -1.00000   1.00000

 Dipole moment (field-independent basis, Debye):
    X=             -1.0817    Y=              1.7218    Z=             -2.0376  Tot=              2.8786
 Quadrupole moment (field-independent basis, Debye-Ang):
   XX=           -194.8282   YY=           -141.8572   ZZ=           -127.3142
   XY=              3.7744   XZ=             -7.5181   YZ=             -2.1931

 Summary of Natural Population Analysis:

                                       Natural Population
                Natural  -----------------------------------------------
    Atom  No    Charge         Core      Valence    Rydberg      Total
 -----------------------------------------------------------------------
      C    1   -0.28803      0.99967     2.28216    0.00620     3.28803
      C    2   -0.08830      0.99964     2.07822    0.01044     3.08830
      N    3   -0.34023      0.99974     2.82960    0.01089     3.84023
      C    4   -0.09192      0.99961     2.07886    0.01345     3.09192
      C    5    0.05166      0.99951     1.93483    0.01401     2.94834
      C    6   -0.03432      0.99949     2.02286    0.01196     3.03432
      C    7   -0.09222      0.99947     2.08336    0.00939     3.09222
      C    8   -0.02367      0.99948     2.01441    0.00978     3.02367
      C    9    0.07829      0.99944     1.91108    0.01119     2.92171
      C   10   -0.11398      0.99952     2.10514    0.00931     3.11398
      C   11   -0.08373      0.99952     2.07495    0.00926     3.08373
      N   12   -0.30489      0.99964     2.79654    0.00872     3.80489
      C   13    0.35043      0.99970     1.62738    0.02249     2.64957
      O   14   -0.31270      0.99987     3.30678    0.00605     4.31270
      C   15   -0.23930      0.99957     2.23292    0.00681     3.23930
      O   16   -0.36929      0.99989     3.36315    0.00625     4.36929
      H   17    0.09917      0.00000     0.39979    0.00104     0.40083
      H   18    0.09978      0.00000     0.39946    0.00075     0.40022
      H   19    0.09376      0.00000     0.40511    0.00113     0.40624
      H   20    0.09181      0.00000     0.40655    0.00164     0.40819
      H   21    0.07793      0.00000     0.42001    0.00206     0.42207
      H   22    0.17400      0.00000     0.32265    0.00335     0.32600
      H   23    0.09604      0.00000     0.40263    0.00133     0.40396
      H   24    0.09238      0.00000     0.40572    0.00190     0.40762
      H   25    0.08292      0.00000     0.41439    0.00268     0.41708
      H   26    0.10348      0.00000     0.39469    0.00184     0.39652
      H   27    0.10429      0.00000     0.39436    0.00135     0.39571
      H   28    0.11076      0.00000     0.38803    0.00121     0.38924
      H   29    0.20367      0.00000     0.29218    0.00415     0.29633
      H   30    0.11809      0.00000     0.38072    0.00119     0.38191
      H   31    0.12209      0.00000     0.37624    0.00167     0.37791
      H   32    0.23202      0.00000     0.26308    0.00489     0.26798
 =======================================================================
   * Total *    0.00000     15.99376    42.80784    0.19840    59.00000

 Normal termination of Gaussian 16 at Fri Dec 11 02:35:32 2020.
