 Gaussian 16, Revision A.03,

 -----------------------------------------------------------
 # opt freq B3LYP/6-31G(d) empiricaldispersion=gd3bj scf=xqc
 -----------------------------------------------------------

 ------------------------------
 CID_154016542_JID_717_neutraal
 ------------------------------
 Symbolic Z-matrix:
 Charge =  0 Multiplicity = 1

 SCF Done:  E(RB3LYP) =  -474.663601504     A.U. after   15 cycles
 SCF Done:  E(RB3LYP) =  -474.664878072     A.U. after   15 cycles
 SCF Done:  E(RB3LYP) =  -474.667110099     A.U. after   13 cycles
 SCF Done:  E(RB3LYP) =  -474.667413915     A.U. after   13 cycles
 SCF Done:  E(RB3LYP) =  -474.667347198     A.U. after   13 cycles
 SCF Done:  E(RB3LYP) =  -474.667594319     A.U. after   12 cycles
 SCF Done:  E(RB3LYP) =  -474.667676457     A.U. after   12 cycles
 SCF Done:  E(RB3LYP) =  -474.667702292     A.U. after   11 cycles
 SCF Done:  E(RB3LYP) =  -474.667706679     A.U. after   10 cycles
 SCF Done:  E(RB3LYP) =  -474.667708638     A.U. after    9 cycles
 SCF Done:  E(RB3LYP) =  -474.667708968     A.U. after    8 cycles
 Optimization completed.
    -- Stationary point found.
 Normal termination of Gaussian 16 at Tue Dec  8 12:29:28 2020.

 --------------------------------------------------------------------
 #N Geom=AllCheck Guess=TCheck SCRF=Check GenChk RB3LYP/6-31G(d) Freq
 --------------------------------------------------------------------

 Structure from the checkpoint file:  "JID_717.chk"
 ------------------------------
 CID_154016542_JID_717_neutraal
 ------------------------------
 Charge =  0 Multiplicity = 1

 SCF Done:  E(RB3LYP) =  -474.667708968     A.U. after    1 cycles

  Exact polarizability:  99.880   6.071  91.094   0.933   4.328  61.984
 Approx polarizability: 132.712  12.145 170.239   4.451  21.517  93.799

                      1                      2                      3
                      A                      A                      A
 Frequencies --     36.7932                68.3585                84.0039
 Red. masses --      6.1241                 2.9071                 3.2519
 Frc consts  --      0.0049                 0.0080                 0.0135
 IR Inten    --      0.7260                 0.2837                 0.9846

                      4                      5                      6
                      A                      A                      A
 Frequencies --    101.1777               166.5088               201.3970
 Red. masses --      5.8591                 4.6709                 4.7220
 Frc consts  --      0.0353                 0.0763                 0.1128
 IR Inten    --      0.4502                 0.6076                 0.7161

                      7                      8                      9
                      A                      A                      A
 Frequencies --    239.7460               284.7499               311.6823
 Red. masses --      2.6100                 1.9036                 1.2822
 Frc consts  --      0.0884                 0.0909                 0.0734
 IR Inten    --      1.6346                18.8316                89.0658

                     10                     11                     12
                      A                      A                      A
 Frequencies --    354.8976               396.9780               421.6657
 Red. masses --      3.5214                 2.7523                 2.3132
 Frc consts  --      0.2613                 0.2556                 0.2423
 IR Inten    --     13.8355                 5.1091                 6.8519

                     13                     14                     15
                      A                      A                      A
 Frequencies --    470.1305               568.2976               583.5855
 Red. masses --      2.1353                13.6692                 1.8828
 Frc consts  --      0.2781                 2.6010                 0.3778
 IR Inten    --      3.0071                12.7718                 5.6159

                     16                     17                     18
                      A                      A                      A
 Frequencies --    659.0809               661.6709               776.4483
 Red. masses --      1.7832                 6.2301                 2.7496
 Frc consts  --      0.4564                 1.6071                 0.9767
 IR Inten    --     10.1531                10.2724                 1.0701

                     19                     20                     21
                      A                      A                      A
 Frequencies --    866.8127               933.4386               945.2886
 Red. masses --      2.6959                 2.4131                 1.6119
 Frc consts  --      1.1935                 1.2388                 0.8487
 IR Inten    --     11.7112                 3.8303                 3.6588

                     22                     23                     24
                      A                      A                      A
 Frequencies --    946.5360               967.3222               989.4016
 Red. masses --      1.3532                 2.3576                 2.2713
 Frc consts  --      0.7143                 1.2997                 1.3100
 IR Inten    --     33.8043                 2.8864                 0.4672

                     25                     26                     27
                      A                      A                      A
 Frequencies --   1033.3194              1046.1552              1086.1681
 Red. masses --      1.2642                 1.6910                 1.7657
 Frc consts  --      0.7953                 1.0904                 1.2273
 IR Inten    --     14.9240                18.4020                 3.6799

                     28                     29                     30
                      A                      A                      A
 Frequencies --   1123.2885              1155.8170              1238.3783
 Red. masses --      3.7177                 2.0001                 1.1186
 Frc consts  --      2.7638                 1.5743                 1.0107
 IR Inten    --     61.9265                12.1860                24.6939

                     31                     32                     33
                      A                      A                      A
 Frequencies --   1246.7717              1279.0600              1311.2409
 Red. masses --      1.3452                 1.2520                 1.3400
 Frc consts  --      1.2320                 1.2068                 1.3574
 IR Inten    --      2.9753                 3.0346                67.6024

                     34                     35                     36
                      A                      A                      A
 Frequencies --   1322.7588              1345.2323              1368.6510
 Red. masses --      1.2590                 1.2559                 2.5008
 Frc consts  --      1.2979                 1.3391                 2.7601
 IR Inten    --      0.6605                 2.8169               131.6979

                     37                     38                     39
                      A                      A                      A
 Frequencies --   1396.9347              1410.3495              1422.5406
 Red. masses --      1.4376                 1.3590                 1.4527
 Frc consts  --      1.6529                 1.5927                 1.7320
 IR Inten    --     25.4822                 2.2024                 7.1586

                     40                     41                     42
                      A                      A                      A
 Frequencies --   1452.8231              1478.8991              1496.4550
 Red. masses --      1.4586                 1.2252                 1.1025
 Frc consts  --      1.8139                 1.5788                 1.4547
 IR Inten    --     16.6897                 5.3426                 7.9631

                     43                     44                     45
                      A                      A                      A
 Frequencies --   1513.5618              1533.3601              1734.0171
 Red. masses --      1.1024                 1.0910                 4.4525
 Frc consts  --      1.4880                 1.5113                 7.8879
 IR Inten    --      6.1016                 7.2730                 5.4414

                     46                     47                     48
                      A                      A                      A
 Frequencies --   2272.3353              2984.9233              3033.5312
 Red. masses --     13.6101                 1.0840                 1.0615
 Frc consts  --     41.4052                 5.6903                 5.7554
 IR Inten    --    433.0249                48.2693                29.6424

                     49                     50                     51
                      A                      A                      A
 Frequencies --   3043.9994              3060.9026              3078.1463
 Red. masses --      1.0690                 1.0636                 1.0997
 Frc consts  --      5.8362                 5.8714                 6.1391
 IR Inten    --     28.9619                21.9823                31.5059

                     52                     53                     54
                      A                      A                      A
 Frequencies --   3109.0029              3121.8779              3148.4823
 Red. masses --      1.0999                 1.0975                 1.0779
 Frc consts  --      6.2642                 6.3022                 6.2954
 IR Inten    --     21.6274                27.5712                23.6791

                     55                     56                     57
                      A                      A                      A
 Frequencies --   3159.2903              3238.9714              3745.6297
 Red. masses --      1.0719                 1.1156                 1.0661
 Frc consts  --      6.3037                 6.8955                 8.8127
 IR Inten    --      3.6152                17.6302                13.3318

 - Thermochemistry -
 -------------------
 Temperature   298.150 Kelvin.  Pressure   1.00000 Atm.
 Atom     1 has atomic number  6 and mass  12.00000

 Molecular mass:   141.09021 amu.
 Principal axes and moments of inertia in atomic units:
                           1         2         3
     Eigenvalues --   815.411662337.791192459.19762
           X            0.99988  -0.01170  -0.01001
           Y            0.01122   0.99883  -0.04711
           Z            0.01055   0.04699   0.99884
 This molecule is an asymmetric top.
 Rotational symmetry number  1.
 Warning -- assumption of classical behavior for rotation
           may cause significant error
 Rotational temperatures (Kelvin)      0.10622     0.03705     0.03522
 Rotational constants (GHZ):           2.21329     0.77199     0.73387
 Zero-point vibrational energy     460734.8 (Joules/Mol)
                                  110.11827 (Kcal/Mol)
 Warning -- explicit consideration of  15 degrees of freedom as
           vibrations may cause significant error
 Vibrational temperatures:     52.94    98.35   120.86   145.57   239.57
          (Kelvin)            289.77   344.94   409.69   448.44   510.62
                              571.16   606.68   676.41   817.65   839.65
                              948.27   952.00  1117.14  1247.15  1343.01
                             1360.06  1361.85  1391.76  1423.53  1486.72
                             1505.18  1562.75  1616.16  1662.96  1781.75
                             1793.83  1840.28  1886.58  1903.15  1935.49
                             1969.18  2009.88  2029.18  2046.72  2090.29
                             2127.81  2153.07  2177.68  2206.16  2494.86
                             3269.38  4294.64  4364.57  4379.64  4403.96
                             4428.77  4473.16  4491.69  4529.96  4545.51
                             4660.16  5389.13

 Zero-point correction=                           0.175485 (Hartree/Particle)
 Thermal correction to Energy=                    0.186431
 Thermal correction to Enthalpy=                  0.187375
 Thermal correction to Gibbs Free Energy=         0.138052
 Sum of electronic and zero-point Energies=           -474.492224
 Sum of electronic and thermal Energies=              -474.481278
 Sum of electronic and thermal Enthalpies=            -474.480334
 Sum of electronic and thermal Free Energies=         -474.529657

                     E (Thermal)             CV                S
                      KCal/Mol        Cal/Mol-Kelvin    Cal/Mol-Kelvin
 Total                  116.987             39.043            103.811
 Electronic               0.000              0.000              0.000
 Translational            0.889              2.981             40.744
 Rotational               0.889              2.981             29.929
 Vibrational            115.210             33.082             33.138
 Vibration     1          0.594              1.982              5.425
 Vibration     2          0.598              1.969              4.200
 Vibration     3          0.601              1.960              3.795
 Vibration     4          0.604              1.948              3.432
 Vibration     5          0.624              1.884              2.475
 Vibration     6          0.638              1.838              2.120
 Vibration     7          0.657              1.780              1.805
 Vibration     8          0.683              1.702              1.505
 Vibration     9          0.700              1.651              1.353
 Vibration    10          0.731              1.565              1.144
 Vibration    11          0.763              1.477              0.974
 Vibration    12          0.784              1.423              0.886
 Vibration    13          0.827              1.316              0.737
 Vibration    14          0.924              1.100              0.508
 Vibration    15          0.940              1.067              0.479

 Optimization completed.
    -- Stationary point found.
 Normal termination of Gaussian 16 at Tue Dec  8 12:40:02 2020.

 ----------------------------------------------------------------------
 # B3LYP/6-311++G(d,p) empiricaldispersion=gd3bj scf=xqc pop=npa geom=c
 heck
 ----------------------------------------------------------------------

 --------------------------------------
 CID_154016542_JID_717_Energie_neutraal
 --------------------------------------
 Structure from the checkpoint file:  "JID_717.chk"
 Charge =  0 Multiplicity = 1

 SCF Done:  E(RB3LYP) =  -474.814020001     A.U. after   14 cycles
 Normal termination of Gaussian 16 at Tue Dec  8 12:42:18 2020.

 ----------------------------------------------------------------------
 # B3LYP/6-311++G(d,p) empiricaldispersion=gd3bj scf=xqc pop=npa geom=c
 heck
 ----------------------------------------------------------------------

 ------------------------------------
 CID_154016542_JID_717_Energie_kation
 ------------------------------------
 Structure from the checkpoint file:  "JID_717.chk"
 Charge =  1 Multiplicity = 2

 SCF Done:  E(UB3LYP) =  -474.486884735     A.U. after   23 cycles
 Normal termination of Gaussian 16 at Tue Dec  8 12:50:19 2020.
 Gaussian 16:  ES64L-G16RevA.03 25-Dec-2016

 ----------------------------------------------------------------------
 # B3LYP/6-311++G(d,p) empiricaldispersion=gd3bj scf=xqc pop=npa geom=c
 heck
 ----------------------------------------------------------------------

 -----------------------------------
 CID_154016542_JID_717_Energie_anion
 -----------------------------------
 Structure from the checkpoint file:  "JID_717.chk"
 Charge = -1 Multiplicity = 2

                         Standard orientation:
 ---------------------------------------------------------------------
 Center     Atomic      Atomic             Coordinates (Angstroms)
 Number     Number       Type             X           Y           Z
 ---------------------------------------------------------------------
      1          6           0        3.687700   -0.105779   -0.571160
      2          6           0        2.393029    0.177532   -0.714804
      3          6           0        1.267853   -0.715201   -0.272871
      4          6           0        0.560638   -0.224904    1.008926
      5          6           0       -0.004880    1.194974    0.923735
      6          6           0       -0.935876    1.502792   -0.256226
      7          7           0       -2.265260    0.860353   -0.170527
      8          7           0       -2.347492   -0.285598   -0.614358
      9          7           0       -2.554084   -1.338177   -1.006442
     10          8           0       -0.525719   -1.083141    1.347691
     11          1           0        4.019709   -1.045763   -0.134716
     12          1           0        4.464777    0.583533   -0.889194
     13          1           0        2.108512    1.130993   -1.160576
     14          1           0        0.518811   -0.818632   -1.068240
     15          1           0        1.658506   -1.723517   -0.077959
     16          1           0        1.309628   -0.226446    1.817837
     17          1           0       -0.541002    1.399354    1.856595
     18          1           0        0.837254    1.896459    0.873366
     19          1           0       -1.145812    2.575186   -0.263625
     20          1           0       -0.457039    1.260866   -1.214294
     21          1           0       -0.210531   -1.999435    1.312965
 ---------------------------------------------------------------------

 SCF Done:  E(UB3LYP) =  -474.801736475     A.U. after   33 cycles
 SCF Done:  E(UB3LYP) =  -474.801736475     a.u. after    1 cycles

 The electronic state is 2-A.
 Alpha  occ. eigenvalues --  -19.01624 -14.35211 -14.25052 -14.23560 -10.11964
 Alpha  occ. eigenvalues --  -10.10366 -10.07572 -10.07038 -10.06461 -10.06334
 Alpha  occ. eigenvalues --   -1.01461  -0.92053  -0.85725  -0.70848  -0.67484
 Alpha  occ. eigenvalues --   -0.61720  -0.56991  -0.49301  -0.45406  -0.42129
 Alpha  occ. eigenvalues --   -0.41982  -0.39579  -0.38257  -0.37459  -0.34916
 Alpha  occ. eigenvalues --   -0.33356  -0.32737  -0.30683  -0.29531  -0.28078
 Alpha  occ. eigenvalues --   -0.27458  -0.25607  -0.24098  -0.22355  -0.18394
 Alpha  occ. eigenvalues --   -0.17817  -0.15846  -0.13390   0.04721
 Alpha virt. eigenvalues --    0.06871   0.07541   0.08569   0.09122   0.09484
 Alpha virt. eigenvalues --    0.09892   0.11087   0.11280   0.11656   0.12592
 Alpha virt. eigenvalues --    0.13127   0.13926   0.15063   0.15669   0.17231

  Beta  occ. eigenvalues --  -19.01605 -14.35105 -14.24865 -14.23594 -10.11952
  Beta  occ. eigenvalues --  -10.10298 -10.07556 -10.07015 -10.06442 -10.06301
  Beta  occ. eigenvalues --   -1.01229  -0.92010  -0.85596  -0.70803  -0.67416
  Beta  occ. eigenvalues --   -0.61638  -0.56895  -0.49225  -0.45314  -0.42064
  Beta  occ. eigenvalues --   -0.41882  -0.39236  -0.38085  -0.37367  -0.34785
  Beta  occ. eigenvalues --   -0.33172  -0.32519  -0.30519  -0.29471  -0.28042
  Beta  occ. eigenvalues --   -0.27399  -0.25544  -0.24032  -0.22308  -0.18139
  Beta  occ. eigenvalues --   -0.17756  -0.15817  -0.13329
  Beta virt. eigenvalues --    0.07394   0.08140   0.08571   0.09344   0.09576
  Beta virt. eigenvalues --    0.09759   0.10678   0.11621   0.11804   0.11987
  Beta virt. eigenvalues --    0.12901   0.13537   0.14412   0.15407   0.15806

 Mulliken charges and spin densities:
               1          2
     1  C    2.226668  -2.872212
     2  C   -2.075199   2.344612
     3  C    0.587458  -0.932315
     4  C    1.539075  -1.716373
     5  C   -1.107594   0.801755
     6  C    0.935932  -1.490721
     7  N   -0.763089   0.374107
     8  N    0.660630   0.012807
     9  N   -0.060933  -0.135379
    10  O   -0.251748   0.048572
    11  H   -0.451910   0.572949
    12  H   -0.158912   0.279828
    13  H   -0.844617   1.022239
    14  H    0.291468  -0.144838
    15  H   -0.573578   0.716197
    16  H   -0.110666   0.291957
    17  H   -0.053388   0.262132
    18  H   -0.009181   0.152577
    19  H   -0.708475   0.917656
    20  H   -0.138655   0.310249
    21  H    0.066716   0.184202
 Sum of Mulliken charges =  -1.00000   1.00000

 Dipole moment (field-independent basis, Debye):
    X=             -1.9263    Y=             -1.4434    Z=             -0.0482  Tot=              2.4075
 Quadrupole moment (field-independent basis, Debye-Ang):
   XX=           -118.2809   YY=           -103.0896   ZZ=            -87.8124
   XY=              0.5943   XZ=              1.3429   YZ=              3.9968

 Summary of Natural Population Analysis:

                                       Natural Population
                Natural  -----------------------------------------------
    Atom  No    Charge         Core      Valence    Rydberg      Total
 -----------------------------------------------------------------------
      C    1   -0.18515      0.99955     2.17884    0.00676     3.18515
      C    2   -0.08738      0.99956     2.07612    0.01170     3.08738
      C    3   -0.22374      0.99959     2.21261    0.01154     3.22374
      C    4    0.07020      0.99955     1.91646    0.01379     2.92980
      C    5   -0.20559      0.99959     2.19575    0.01025     3.20559
      C    6   -0.09447      0.99958     2.08215    0.01274     3.09447
      N    7   -0.19140      0.99970     2.67745    0.01425     3.69140
      N    8    0.13002      0.99970     2.35490    0.01538     3.36998
      N    9   -0.04037      0.99982     2.52714    0.01342     3.54037
      O   10   -0.37354      0.99989     3.36576    0.00789     4.37354
      H   11    0.09071      0.00000     0.40762    0.00167     0.40929
      H   12    0.09464      0.00000     0.40388    0.00147     0.40536
      H   13    0.09487      0.00000     0.40338    0.00175     0.40513
      H   14    0.10410      0.00000     0.39419    0.00170     0.39590
      H   15    0.10089      0.00000     0.39730    0.00181     0.39911
      H   16    0.07939      0.00000     0.41835    0.00227     0.42061
      H   17    0.10719      0.00000     0.39140    0.00141     0.39281
      H   18    0.10693      0.00000     0.39138    0.00169     0.39307
      H   19    0.10296      0.00000     0.39413    0.00292     0.39704
      H   20    0.08967      0.00000     0.40848    0.00185     0.41033
      H   21    0.23009      0.00000     0.26626    0.00366     0.26991
 =======================================================================
   * Total *    0.00000      9.99653    27.86354    0.13993    38.00000

 Normal termination of Gaussian 16 at Tue Dec  8 13:05:17 2020.
