 Gaussian 16, Revision A.03,

 -----------------------------------------------------------
 # opt freq B3LYP/6-31G(d) empiricaldispersion=gd3bj scf=xqc
 -----------------------------------------------------------

 -------------------------------
 CID_134862105_JID_9439_neutraal
 -------------------------------
 Symbolic Z-matrix:
 Charge =  0 Multiplicity = 1

 SCF Done:  E(RB3LYP) =  -805.397658103     A.U. after   19 cycles
 SCF Done:  E(RB3LYP) =  -805.426635391     A.U. after   15 cycles
 SCF Done:  E(RB3LYP) =  -805.435691121     A.U. after   14 cycles
 SCF Done:  E(RB3LYP) =  -805.438168329     A.U. after   13 cycles
 SCF Done:  E(RB3LYP) =  -805.442464487     A.U. after   17 cycles
 SCF Done:  E(RB3LYP) =  -805.443681877     A.U. after   15 cycles
 SCF Done:  E(RB3LYP) =  -805.444987156     A.U. after   13 cycles
 SCF Done:  E(RB3LYP) =  -805.445748715     A.U. after   14 cycles
 SCF Done:  E(RB3LYP) =  -805.446083834     A.U. after   13 cycles
 SCF Done:  E(RB3LYP) =  -805.446199059     A.U. after   13 cycles
 SCF Done:  E(RB3LYP) =  -805.446224869     A.U. after   12 cycles
 SCF Done:  E(RB3LYP) =  -805.446238123     A.U. after   11 cycles
 SCF Done:  E(RB3LYP) =  -805.446240244     A.U. after   10 cycles
 SCF Done:  E(RB3LYP) =  -805.446241375     A.U. after   10 cycles
 SCF Done:  E(RB3LYP) =  -805.446241563     A.U. after    9 cycles
 SCF Done:  E(RB3LYP) =  -805.446241575     A.U. after    8 cycles
 Optimization completed.
    -- Stationary point found.
 Normal termination of Gaussian 16 at Mon Dec 14 18:56:11 2020.

 --------------------------------------------------------------------
 #N Geom=AllCheck Guess=TCheck SCRF=Check GenChk RB3LYP/6-31G(d) Freq
 --------------------------------------------------------------------

 Structure from the checkpoint file:  "JID_9439.chk"
 -------------------------------
 CID_134862105_JID_9439_neutraal
 -------------------------------
 Charge =  0 Multiplicity = 1

 SCF Done:  E(RB3LYP) =  -805.446241575     A.U. after    1 cycles

  Exact polarizability: 319.469  14.664 159.666  -5.510  15.598 153.634
 Approx polarizability: 490.968  48.935 286.779 -26.637  44.607 299.120

                      1                      2                      3
                      A                      A                      A
 Frequencies --     28.0891                31.2105                42.6011
 Red. masses --      5.8147                 3.8222                 6.0658
 Frc consts  --      0.0027                 0.0022                 0.0065
 IR Inten    --      0.0702                 0.1055                 0.9569

                      4                      5                      6
                      A                      A                      A
 Frequencies --     94.0404               115.3438               126.6918
 Red. masses --      5.1972                 4.8164                 5.7845
 Frc consts  --      0.0271                 0.0378                 0.0547
 IR Inten    --      0.0560                 0.7032                 1.4037

                      7                      8                      9
                      A                      A                      A
 Frequencies --    163.3630               240.9625               268.9462
 Red. masses --      5.3438                 3.6144                 5.0132
 Frc consts  --      0.0840                 0.1236                 0.2136
 IR Inten    --      0.5057                 0.1143                11.3628

                     10                     11                     12
                      A                      A                      A
 Frequencies --    295.5350               306.1406               325.1832
 Red. masses --      5.1016                 5.7568                 3.6283
 Frc consts  --      0.2625                 0.3179                 0.2261
 IR Inten    --      2.2110                 0.8456                 0.3320

                     13                     14                     15
                      A                      A                      A
 Frequencies --    401.3750               413.4538               423.2733
 Red. masses --      5.7440                 2.9427                 3.6540
 Frc consts  --      0.5452                 0.2964                 0.3857
 IR Inten    --     38.7843                 0.0392                 1.4224

                     16                     17                     18
                      A                      A                      A
 Frequencies --    477.1616               494.0035               503.4825
 Red. masses --      4.6585                 3.7456                 4.3486
 Frc consts  --      0.6249                 0.5386                 0.6495
 IR Inten    --     11.3415                 0.7424                 8.4984

                     19                     20                     21
                      A                      A                      A
 Frequencies --    527.0920               546.9775               587.5857
 Red. masses --      3.9979                 5.6821                 5.7284
 Frc consts  --      0.6544                 1.0016                 1.1653
 IR Inten    --      2.5209                 4.1366                 6.4031

                     22                     23                     24
                      A                      A                      A
 Frequencies --    591.8299               634.2040               671.9841
 Red. masses --      6.7980                 6.3937                 4.8534
 Frc consts  --      1.4029                 1.5152                 1.2913
 IR Inten    --     20.7728                 0.2667                 4.6610

                     25                     26                     27
                      A                      A                      A
 Frequencies --    697.0641               700.4247               729.9658
 Red. masses --      2.6965                 2.9163                 2.7116
 Frc consts  --      0.7720                 0.8429                 0.8513
 IR Inten    --     16.1724                16.9648                19.3174

                     28                     29                     30
                      A                      A                      A
 Frequencies --    741.0917               766.7176               788.1992
 Red. masses --      5.8384                 1.7698                 2.2960
 Frc consts  --      1.8893                 0.6130                 0.8404
 IR Inten    --     17.8060                19.2761                20.1472

                     31                     32                     33
                      A                      A                      A
 Frequencies --    806.5756               840.8069               851.1158
 Red. masses --      2.7613                 4.1706                 1.3070
 Frc consts  --      1.0584                 1.7372                 0.5578
 IR Inten    --      1.3636                24.4927                 2.9684

                     34                     35                     36
                      A                      A                      A
 Frequencies --    864.5116               895.6785               905.8934
 Red. masses --      3.2756                 1.8211                 1.5914
 Frc consts  --      1.4424                 0.8608                 0.7695
 IR Inten    --     13.3830                25.8807                18.0273

                     37                     38                     39
                      A                      A                      A
 Frequencies --    930.5609               940.2995               962.8289
 Red. masses --      1.6487                 2.8423                 2.1653
 Frc consts  --      0.8412                 1.4807                 1.1827
 IR Inten    --     19.3343               102.6319               225.2029

                     40                     41                     42
                      A                      A                      A
 Frequencies --    969.6443               971.1910               980.6534
 Red. masses --      1.3541                 1.4699                 1.4333
 Frc consts  --      0.7501                 0.8168                 0.8121
 IR Inten    --      2.7459                53.1752                40.5668

                     43                     44                     45
                      A                      A                      A
 Frequencies --    998.5910              1000.6580              1015.4035
 Red. masses --      1.2935                 1.3692                 2.2173
 Frc consts  --      0.7599                 0.8078                 1.3469
 IR Inten    --      0.0826                 4.0523                20.6888

                     46                     47                     48
                      A                      A                      A
 Frequencies --   1018.7709              1058.1904              1059.3220
 Red. masses --      5.8722                 2.1514                 2.1284
 Frc consts  --      3.5909                 1.4194                 1.4072
 IR Inten    --      2.1961                 2.1693                 1.7148

                     49                     50                     51
                      A                      A                      A
 Frequencies --   1103.2626              1116.3239              1148.4916
 Red. masses --      3.0496                 1.5989                 2.2998
 Frc consts  --      2.1870                 1.1740                 1.7873
 IR Inten    --     45.9870                 4.4200                68.5645

                     52                     53                     54
                      A                      A                      A
 Frequencies --   1187.7025              1196.0943              1199.2828
 Red. masses --      1.3413                 1.1028                 1.8068
 Frc consts  --      1.1148                 0.9296                 1.5311
 IR Inten    --     17.1228                 1.1362                32.4306

                     55                     56                     57
                      A                      A                      A
 Frequencies --   1214.7604              1216.5645              1243.5268
 Red. masses --      1.5241                 1.8473                 1.7364
 Frc consts  --      1.3251                 1.6109                 1.5820
 IR Inten    --     32.6831                47.2359                 7.0726

                     58                     59                     60
                      A                      A                      A
 Frequencies --   1301.7029              1306.3582              1323.9053
 Red. masses --      1.5518                 1.4397                 1.9321
 Frc consts  --      1.5492                 1.4476                 1.9953
 IR Inten    --      3.2071                53.7026                 0.2286

                     61                     62                     63
                      A                      A                      A
 Frequencies --   1354.3689              1362.6335              1375.3998
 Red. masses --      6.3086                 2.0206                 2.0151
 Frc consts  --      6.8180                 2.2105                 2.2460
 IR Inten    --      6.7031                 5.3210                 1.3837

                     64                     65                     66
                      A                      A                      A
 Frequencies --   1411.1142              1471.7885              1490.6576
 Red. masses --      2.1504                 6.7368                 2.4208
 Frc consts  --      2.5229                 8.5979                 3.1693
 IR Inten    --     66.3357                40.6435                 6.4247

                     67                     68                     69
                      A                      A                      A
 Frequencies --   1499.5295              1503.1179              1546.8144
 Red. masses --      2.4074                 2.5164                 2.2645
 Frc consts  --      3.1894                 3.3498                 3.1923
 IR Inten    --     35.8807                37.0277                17.7611

                     70                     71                     72
                      A                      A                      A
 Frequencies --   1622.2619              1623.0914              1641.5805
 Red. masses --      4.8492                 4.6891                 4.8500
 Frc consts  --      7.5191                 7.2782                 7.7004
 IR Inten    --     45.4696                61.7086                77.7455

                     73                     74                     75
                      A                      A                      A
 Frequencies --   1649.3131              1662.1818              1862.0011
 Red. masses --      6.1052                 5.4245                13.0489
 Frc consts  --      9.7850                 8.8302                26.6553
 IR Inten    --     68.9988                 6.4746               408.0521

                     76                     77                     78
                      A                      A                      A
 Frequencies --   3055.2604              3180.7327              3186.6241
 Red. masses --      1.0826                 1.0883                 1.0860
 Frc consts  --      5.9543                 6.4873                 6.4972
 IR Inten    --     30.7300                 1.7443                 6.4523

                     79                     80                     81
                      A                      A                      A
 Frequencies --   3189.3841              3191.8150              3196.9784
 Red. masses --      1.0863                 1.0878                 1.0893
 Frc consts  --      6.5107                 6.5297                 6.5597
 IR Inten    --      3.1006                 1.6025                 8.9376

                     82                     83                     84
                      A                      A                      A
 Frequencies --   3202.5732              3204.2701              3211.6595
 Red. masses --      1.0913                 1.0899                 1.0934
 Frc consts  --      6.5945                 6.5929                 6.6451
 IR Inten    --      9.7708                11.3589                28.2215

                     85                     86                     87
                      A                      A                      A
 Frequencies --   3213.7232              3218.2274              3220.4562
 Red. masses --      1.0938                 1.0971                 1.0958
 Frc consts  --      6.6558                 6.6946                 6.6959
 IR Inten    --     13.9955                24.9290                14.8706

 - Thermochemistry -
 -------------------
 Temperature   298.150 Kelvin.  Pressure   1.00000 Atm.
 Atom     1 has atomic number  6 and mass  12.00000

 Molecular mass:   248.08373 amu.
 Principal axes and moments of inertia in atomic units:
                           1         2         3
     Eigenvalues --  2560.676598951.352739918.06219
           X            0.99997  -0.00777  -0.00056
           Y            0.00777   0.99990   0.01182
           Z            0.00046  -0.01182   0.99993
 This molecule is an asymmetric top.
 Rotational symmetry number  1.
 Warning -- assumption of classical behavior for rotation
           may cause significant error
 Rotational temperatures (Kelvin)      0.03382     0.00968     0.00873
 Rotational constants (GHZ):           0.70479     0.20162     0.18197
 Zero-point vibrational energy     632287.5 (Joules/Mol)
                                  151.12035 (Kcal/Mol)
 Warning -- explicit consideration of  22 degrees of freedom as
           vibrations may cause significant error
 Vibrational temperatures:     40.41    44.90    61.29   135.30   165.95
          (Kelvin)            182.28   235.04   346.69   386.95   425.21
                              440.47   467.87   577.49   594.87   609.00
                              686.53   710.76   724.40   758.37   786.98
                              845.40   851.51   912.48   966.84  1002.92
                             1007.75  1050.26  1066.27  1103.14  1134.04
                             1160.48  1209.73  1224.57  1243.84  1288.68
                             1303.38  1338.87  1352.88  1385.30  1395.10
                             1397.33  1410.94  1436.75  1439.72  1460.94
                             1465.78  1522.50  1524.13  1587.35  1606.14
                             1652.42  1708.84  1720.91  1725.50  1747.77
                             1750.37  1789.16  1872.86  1879.56  1904.80
                             1948.63  1960.53  1978.89  2030.28  2117.58
                             2144.72  2157.49  2162.65  2225.52  2334.07
                             2335.27  2361.87  2372.99  2391.51  2679.00
                             4395.84  4576.36  4584.84  4588.81  4592.31
                             4599.74  4607.79  4610.23  4620.86  4623.83
                             4630.31  4633.52

 Zero-point correction=                           0.240826 (Hartree/Particle)
 Thermal correction to Energy=                    0.255492
 Thermal correction to Enthalpy=                  0.256436
 Thermal correction to Gibbs Free Energy=         0.197113
 Sum of electronic and zero-point Energies=           -805.205416
 Sum of electronic and thermal Energies=              -805.190750
 Sum of electronic and thermal Enthalpies=            -805.189806
 Sum of electronic and thermal Free Energies=         -805.249128

                     E (Thermal)             CV                S
                      KCal/Mol        Cal/Mol-Kelvin    Cal/Mol-Kelvin
 Total                  160.323             58.567            124.854
 Electronic               0.000              0.000              0.000
 Translational            0.889              2.981             42.426
 Rotational               0.889              2.981             33.785
 Vibrational            158.546             52.606             48.643
 Vibration     1          0.593              1.984              5.960
 Vibration     2          0.594              1.983              5.751
 Vibration     3          0.595              1.980              5.134
 Vibration     4          0.603              1.953              3.574
 Vibration     5          0.608              1.937              3.177
 Vibration     6          0.611              1.926              2.996
 Vibration     7          0.623              1.887              2.510
 Vibration     8          0.658              1.778              1.796
 Vibration     9          0.673              1.730              1.603
 Vibration    10          0.690              1.682              1.442
 Vibration    11          0.697              1.662              1.383
 Vibration    12          0.709              1.625              1.284
 Vibration    13          0.767              1.467              0.958
 Vibration    14          0.777              1.441              0.914
 Vibration    15          0.785              1.420              0.881
 Vibration    16          0.834              1.301              0.718
 Vibration    17          0.850              1.263              0.673
 Vibration    18          0.859              1.242              0.649
 Vibration    19          0.882              1.190              0.594
 Vibration    20          0.902              1.146              0.550
 Vibration    21          0.945              1.058              0.472
 Vibration    22          0.949              1.049              0.464

 Optimization completed.
    -- Stationary point found.
 Normal termination of Gaussian 16 at Mon Dec 14 19:11:00 2020.

 ----------------------------------------------------------------------
 # B3LYP/6-311++G(d,p) empiricaldispersion=gd3bj scf=xqc pop=npa geom=c
 heck
 ----------------------------------------------------------------------

 ---------------------------------------
 CID_134862105_JID_9439_Energie_neutraal
 ---------------------------------------
 Structure from the checkpoint file:  "JID_9439.chk"
 Charge =  0 Multiplicity = 1

 SCF Done:  E(RB3LYP) =  -805.655178643     A.U. after   17 cycles
 Normal termination of Gaussian 16 at Mon Dec 14 19:17:57 2020.

 ----------------------------------------------------------------------
 # B3LYP/6-311++G(d,p) empiricaldispersion=gd3bj scf=xqc pop=npa geom=c
 heck
 ----------------------------------------------------------------------

 -------------------------------------
 CID_134862105_JID_9439_Energie_kation
 -------------------------------------
 Structure from the checkpoint file:  "JID_9439.chk"
 Charge =  1 Multiplicity = 2

 SCF Done:  E(UB3LYP) =  -805.399544074     A.U. after   25 cycles
 Normal termination of Gaussian 16 at Mon Dec 14 19:32:37 2020.
 Gaussian 16:  ES64L-G16RevA.03 25-Dec-2016

 ----------------------------------------------------------------------
 # B3LYP/6-311++G(d,p) empiricaldispersion=gd3bj scf=xqc pop=npa geom=c
 heck
 ----------------------------------------------------------------------

 ------------------------------------
 CID_134862105_JID_9439_Energie_anion
 ------------------------------------
 Structure from the checkpoint file:  "JID_9439.chk"
 Charge = -1 Multiplicity = 2

                         Standard orientation:
 ---------------------------------------------------------------------
 Center     Atomic      Atomic             Coordinates (Angstroms)
 Number     Number       Type             X           Y           Z
 ---------------------------------------------------------------------
      1          6           0        5.265875    0.455042   -0.794992
      2          6           0        4.345208   -0.252555   -1.575223
      3          6           0        3.089725   -0.563111   -1.068861
      4          6           0        2.727749   -0.183610    0.240602
      5          6           0        3.665651    0.533963    1.009593
      6          6           0        4.920135    0.850101    0.498695
      7          6           0        1.441752   -0.502060    0.828631
      8          6           0        0.454819   -1.276542    0.285493
      9          6           0       -0.810141   -1.339800    0.913861
     10          6           0       -1.367790   -0.363874    1.747608
     11          6           0       -1.902301    0.676850    0.804772
     12          6           0       -1.871837    2.065688    0.859183
     13          6           0       -2.562687    2.808413   -0.103552
     14          6           0       -3.300610    2.171048   -1.105408
     15          6           0       -3.355146    0.778578   -1.159639
     16          6           0       -2.643727    0.030748   -0.218679
     17          6           0       -2.738606   -1.480057   -0.288441
     18          8           0       -3.566454   -2.084067   -0.913954
     19          8           0       -1.738734   -2.230957    0.384120
     20          1           0        6.244373    0.700736   -1.197162
     21          1           0        4.608285   -0.554105   -2.584955
     22          1           0        2.377925   -1.095565   -1.691478
     23          1           0        3.396389    0.837382    2.017874
     24          1           0        5.629052    1.403018    1.108013
     25          1           0        1.235461   -0.080361    1.810065
     26          1           0        0.606904   -1.851011   -0.624141
     27          1           0       -2.194534   -0.769496    2.342339
     28          1           0       -1.308888    2.556271    1.647076
     29          1           0       -2.529655    3.893992   -0.069229
     30          1           0       -3.837282    2.761813   -1.841682
     31          1           0       -3.934940    0.264587   -1.919892
 ---------------------------------------------------------------------

 SCF Done:  E(UB3LYP) =  -805.715561701     A.U. after   27 cycles

 The electronic state is 2-A.
 Alpha  occ. eigenvalues --  -19.03698 -19.00041 -10.18875 -10.08023 -10.07718
 Alpha  occ. eigenvalues --  -10.07668 -10.07630 -10.07596 -10.07393 -10.06509
 Alpha  occ. eigenvalues --  -10.06458 -10.06386 -10.06092 -10.05868 -10.05586
 Alpha  occ. eigenvalues --  -10.05499 -10.03318 -10.02791  -9.99380  -0.97870
 Alpha  occ. eigenvalues --   -0.91242  -0.75721  -0.74469  -0.68237  -0.66527
 Alpha  occ. eigenvalues --   -0.65076  -0.63601  -0.62820  -0.57641  -0.53586
 Alpha  occ. eigenvalues --   -0.52422  -0.49840  -0.48843  -0.47092  -0.44573
 Alpha  occ. eigenvalues --   -0.42101  -0.39678  -0.39257  -0.37248  -0.36373
 Alpha  occ. eigenvalues --   -0.34874  -0.33918  -0.33637  -0.33189  -0.32350
 Alpha  occ. eigenvalues --   -0.31340  -0.30452  -0.30040  -0.28791  -0.27790
 Alpha  occ. eigenvalues --   -0.26364  -0.25749  -0.25660  -0.24101  -0.23876
 Alpha  occ. eigenvalues --   -0.23109  -0.22078  -0.19137  -0.18570  -0.17336
 Alpha  occ. eigenvalues --   -0.15544  -0.14829  -0.14142  -0.12401  -0.06075
 Alpha  occ. eigenvalues --   -0.00769
 Alpha virt. eigenvalues --    0.05368   0.07323   0.07538   0.08801   0.08960
 Alpha virt. eigenvalues --    0.09404   0.09531   0.09947   0.10852   0.11017
 Alpha virt. eigenvalues --    0.11655   0.12066   0.12834   0.13153   0.14072

  Beta  occ. eigenvalues --  -19.03615 -19.00004 -10.18848 -10.08037 -10.07671
  Beta  occ. eigenvalues --  -10.07625 -10.07586 -10.07365 -10.07277 -10.06581
  Beta  occ. eigenvalues --  -10.06520 -10.06363 -10.06151 -10.05673 -10.05448
  Beta  occ. eigenvalues --  -10.05345 -10.03405 -10.02353  -9.98989  -0.97718
  Beta  occ. eigenvalues --   -0.91063  -0.75636  -0.74272  -0.67792  -0.66248
  Beta  occ. eigenvalues --   -0.64975  -0.63436  -0.62528  -0.57137  -0.53361
  Beta  occ. eigenvalues --   -0.52044  -0.49703  -0.48677  -0.46887  -0.44291
  Beta  occ. eigenvalues --   -0.41971  -0.39454  -0.39076  -0.37031  -0.36202
  Beta  occ. eigenvalues --   -0.34719  -0.33798  -0.33512  -0.33106  -0.32237
  Beta  occ. eigenvalues --   -0.31281  -0.30270  -0.29862  -0.28600  -0.27618
  Beta  occ. eigenvalues --   -0.25800  -0.25594  -0.25528  -0.23882  -0.23680
  Beta  occ. eigenvalues --   -0.22825  -0.21961  -0.18549  -0.17731  -0.17068
  Beta  occ. eigenvalues --   -0.15417  -0.14357  -0.13883  -0.11538  -0.03463
  Beta virt. eigenvalues --    0.05229   0.05453   0.07318   0.07533   0.08806
  Beta virt. eigenvalues --    0.09255   0.09451   0.09799   0.09953   0.10939
  Beta virt. eigenvalues --    0.11476   0.12062   0.12387   0.12831   0.13151

 Mulliken charges and spin densities:
               1          2
     1  C   -0.355189   0.155959
     2  C   -0.554932  -0.056144
     3  C   -0.828776   0.117839
     4  C    1.390327  -0.045407
     5  C   -0.030064   0.118076
     6  C   -0.272288  -0.042071
     7  C    0.218968   0.313911
     8  C   -0.691082  -0.115066
     9  C   -0.154074   0.262007
    10  C   -0.462387   0.311856
    11  C    0.225666  -0.049218
    12  C    0.101951   0.053910
    13  C   -0.222173  -0.015935
    14  C   -0.319888   0.023565
    15  C   -0.065491  -0.007671
    16  C    0.039707  -0.020655
    17  C   -0.224835   0.011202
    18  O   -0.303088   0.010581
    19  O   -0.048745   0.000613
    20  H    0.105982  -0.011249
    21  H    0.142024   0.003499
    22  H    0.067062  -0.008093
    23  H    0.122557  -0.005296
    24  H    0.126877   0.002620
    25  H    0.142211  -0.025116
    26  H    0.142389   0.006045
    27  H    0.120902   0.006340
    28  H    0.138432   0.003971
    29  H    0.136446   0.000596
    30  H    0.132244  -0.001674
    31  H    0.179263   0.001006
 Sum of Mulliken charges =  -1.00000   1.00000

 Dipole moment (field-independent basis, Debye):
    X=              1.1485    Y=              4.1103    Z=             -2.0487  Tot=              4.7340
 Quadrupole moment (field-independent basis, Debye-Ang):
   XX=           -161.7476   YY=           -130.2181   ZZ=           -122.7147
   XY=            -10.4064   XZ=              0.5644   YZ=              1.5224

 Summary of Natural Population Analysis:

                                       Natural Population
                Natural  -----------------------------------------------
    Atom  No    Charge         Core      Valence    Rydberg      Total
 -----------------------------------------------------------------------
      C    1   -0.07278      0.99958     2.06331    0.00989     3.07278
      C    2   -0.12550      0.99958     2.11671    0.00922     3.12550
      C    3   -0.05699      0.99953     2.04959    0.00787     3.05699
      C    4   -0.05069      0.99951     2.04250    0.00867     3.05069
      C    5   -0.05844      0.99954     2.05064    0.00826     3.05844
      C    6   -0.12609      0.99957     2.11726    0.00926     3.12609
      C    7    0.02305      0.99954     1.96865    0.00875     2.97695
      C    8   -0.15771      0.99946     2.14993    0.00831     3.15771
      C    9    0.23471      0.99934     1.74734    0.01861     2.76529
      C   10   -0.14252      0.99926     2.12691    0.01634     3.14252
      C   11    0.02141      0.99945     1.96387    0.01526     2.97859
      C   12   -0.10117      0.99949     2.09264    0.00904     3.10117
      C   13   -0.09410      0.99958     2.08586    0.00867     3.09410
      C   14   -0.11433      0.99958     2.10571    0.00904     3.11433
      C   15   -0.08136      0.99953     2.07305    0.00878     3.08136
      C   16   -0.08636      0.99938     2.07424    0.01274     3.08636
      C   17    0.41001      0.99960     1.56584    0.02454     2.58999
      O   18   -0.29248      0.99986     3.28618    0.00643     4.29248
      O   19   -0.27361      0.99986     3.26438    0.00938     4.27361
      H   20    0.09012      0.00000     0.40887    0.00101     0.40988
      H   21    0.09361      0.00000     0.40538    0.00101     0.40639
      H   22    0.09570      0.00000     0.40293    0.00137     0.40430
      H   23    0.09488      0.00000     0.40379    0.00133     0.40512
      H   24    0.09348      0.00000     0.40550    0.00102     0.40652
      H   25    0.09889      0.00000     0.39952    0.00158     0.40111
      H   26    0.09461      0.00000     0.40394    0.00145     0.40539
      H   27    0.08519      0.00000     0.41319    0.00162     0.41481
      H   28    0.10267      0.00000     0.39573    0.00159     0.39733
      H   29    0.09444      0.00000     0.40458    0.00099     0.40556
      H   30    0.09498      0.00000     0.40406    0.00096     0.40502
      H   31    0.10636      0.00000     0.39246    0.00118     0.39364
 =======================================================================
   * Total *    0.00000     18.99124    45.78458    0.22418    65.00000

 Normal termination of Gaussian 16 at Mon Dec 14 19:48:37 2020.
