 Gaussian 16, Revision A.03,

 -----------------------------------------------------------
 # opt freq B3LYP/6-31G(d) empiricaldispersion=gd3bj scf=xqc
 -----------------------------------------------------------

 -------------------------------
 CID_105357755_JID_7122_neutraal
 -------------------------------
 Symbolic Z-matrix:
 Charge =  0 Multiplicity = 1

 SCF Done:  E(RB3LYP) =  -1142.26158908     A.U. after   15 cycles
 SCF Done:  E(RB3LYP) =  -1142.26921048     A.U. after   12 cycles
 SCF Done:  E(RB3LYP) =  -1142.27257671     A.U. after   13 cycles
 SCF Done:  E(RB3LYP) =  -1142.27651572     A.U. after   15 cycles
 SCF Done:  E(RB3LYP) =  -1142.27852394     A.U. after   14 cycles
 SCF Done:  E(RB3LYP) =  -1142.28005172     A.U. after   14 cycles
 SCF Done:  E(RB3LYP) =  -1142.28082416     A.U. after   13 cycles
 SCF Done:  E(RB3LYP) =  -1142.28124018     A.U. after   12 cycles
 SCF Done:  E(RB3LYP) =  -1142.28133954     A.U. after   12 cycles
 SCF Done:  E(RB3LYP) =  -1142.28143548     A.U. after   11 cycles
 SCF Done:  E(RB3LYP) =  -1142.28150414     A.U. after   11 cycles
 SCF Done:  E(RB3LYP) =  -1142.28151101     A.U. after   11 cycles
 SCF Done:  E(RB3LYP) =  -1142.28151231     A.U. after    9 cycles
 SCF Done:  E(RB3LYP) =  -1142.28151271     A.U. after    8 cycles
 SCF Done:  E(RB3LYP) =  -1142.28151281     A.U. after    7 cycles
 Optimization completed.
    -- Stationary point found.
 Normal termination of Gaussian 16 at Fri Dec 11 11:53:19 2020.

 --------------------------------------------------------------------
 #N Geom=AllCheck Guess=TCheck SCRF=Check GenChk RB3LYP/6-31G(d) Freq
 --------------------------------------------------------------------

 Structure from the checkpoint file:  "JID_7122.chk"
 -------------------------------
 CID_105357755_JID_7122_neutraal
 -------------------------------
 Charge =  0 Multiplicity = 1

 SCF Done:  E(RB3LYP) =  -1142.28151281     A.U. after    1 cycles

  Exact polarizability: 195.858  -6.037 146.974 -12.869  -9.945 114.502
 Approx polarizability: 250.207 -14.597 236.723 -28.569 -24.395 194.649

                      1                      2                      3
                      A                      A                      A
 Frequencies --     24.7019                30.7692                45.3643
 Red. masses --      4.0011                 5.7667                 4.7170
 Frc consts  --      0.0014                 0.0032                 0.0057
 IR Inten    --      0.0498                 2.2673                 1.0845

                      4                      5                      6
                      A                      A                      A
 Frequencies --     71.2356               103.7391               137.1102
 Red. masses --      3.3462                 4.1648                 3.9005
 Frc consts  --      0.0100                 0.0264                 0.0432
 IR Inten    --      1.9174                 0.6845                 5.1566

                      7                      8                      9
                      A                      A                      A
 Frequencies --    165.2050               182.2399               197.3524
 Red. masses --      2.7508                 3.2158                 1.7689
 Frc consts  --      0.0442                 0.0629                 0.0406
 IR Inten    --      1.8341                 1.7534                 3.4656

                     10                     11                     12
                      A                      A                      A
 Frequencies --    216.8148               224.8482               245.8875
 Red. masses --      1.4196                 2.2729                 1.5819
 Frc consts  --      0.0393                 0.0677                 0.0563
 IR Inten    --      2.0960                 2.0525                 6.3782

                     13                     14                     15
                      A                      A                      A
 Frequencies --    267.6602               320.9854               333.5603
 Red. masses --      2.8443                 2.7853                 3.5315
 Frc consts  --      0.1201                 0.1691                 0.2315
 IR Inten    --     11.1220                 2.2607                10.7635

                     16                     17                     18
                      A                      A                      A
 Frequencies --    346.2368               374.0357               406.0088
 Red. masses --      3.2298                 3.0973                 4.0260
 Frc consts  --      0.2281                 0.2553                 0.3910
 IR Inten    --      3.5775                 2.4042                 1.5120

                     19                     20                     21
                      A                      A                      A
 Frequencies --    424.4456               441.7629               480.6712
 Red. masses --      2.8376                 3.4805                 5.2743
 Frc consts  --      0.3012                 0.4002                 0.7180
 IR Inten    --      1.0798                 8.0217                16.1076

                     22                     23                     24
                      A                      A                      A
 Frequencies --    490.3694               501.6709               527.9586
 Red. masses --      4.3643                 5.0252                 4.5092
 Frc consts  --      0.6183                 0.7452                 0.7405
 IR Inten    --      8.9730                 6.6032                22.2061

                     25                     26                     27
                      A                      A                      A
 Frequencies --    590.6652               610.3134               651.2216
 Red. masses --      5.1945                 3.2587                 4.7939
 Frc consts  --      1.0678                 0.7151                 1.1978
 IR Inten    --      2.6292                11.6841                97.5726

                     28                     29                     30
                      A                      A                      A
 Frequencies --    704.5094               706.1833               737.9922
 Red. masses --      3.6166                 3.6918                 3.3162
 Frc consts  --      1.0576                 1.0847                 1.0641
 IR Inten    --     76.3717                 4.0506                 3.3191

                     31                     32                     33
                      A                      A                      A
 Frequencies --    768.5495               803.5673               832.2937
 Red. masses --      4.3310                 2.0973                 1.5774
 Frc consts  --      1.5072                 0.7979                 0.6438
 IR Inten    --     42.1080                37.7443                78.2081

                     34                     35                     36
                      A                      A                      A
 Frequencies --    848.2676               856.7951               925.9473
 Red. masses --      2.4625                 2.1138                 1.6140
 Frc consts  --      1.0440                 0.9143                 0.8153
 IR Inten    --    161.8565               116.7961                 9.9580

                     37                     38                     39
                      A                      A                      A
 Frequencies --    937.2305               942.7037               951.4765
 Red. masses --      2.0009                 1.5891                 2.4719
 Frc consts  --      1.0355                 0.8321                 1.3185
 IR Inten    --     11.6321                 5.3692               108.5163

                     40                     41                     42
                      A                      A                      A
 Frequencies --    955.3858               994.7361               997.5725
 Red. masses --      2.7751                 1.8842                 1.8359
 Frc consts  --      1.4924                 1.0985                 1.0764
 IR Inten    --     92.8282                30.5124                29.6486

                     43                     44                     45
                      A                      A                      A
 Frequencies --   1057.4984              1075.7080              1076.0607
 Red. masses --      4.1850                 1.5563                 1.5882
 Frc consts  --      2.7575                 1.0610                 1.0835
 IR Inten    --     50.6296                 7.9215                 7.8967

                     46                     47                     48
                      A                      A                      A
 Frequencies --   1086.6740              1123.2178              1133.3422
 Red. masses --      5.8044                 8.8828                 3.1875
 Frc consts  --      4.0384                 6.6028                 2.4122
 IR Inten    --     20.8281                96.8640                12.0299

                     49                     50                     51
                      A                      A                      A
 Frequencies --   1135.2795              1168.7618              1187.1079
 Red. masses --      1.2621                 1.4528                 1.1222
 Frc consts  --      0.9584                 1.1693                 0.9318
 IR Inten    --      2.4732                 3.3090                 1.4096

                     52                     53                     54
                      A                      A                      A
 Frequencies --   1187.6537              1225.1746              1226.8112
 Red. masses --      1.3718                 2.1413                 3.2412
 Frc consts  --      1.1400                 1.8937                 2.8741
 IR Inten    --      2.0570                 4.9925                19.9680

                     55                     56                     57
                      A                      A                      A
 Frequencies --   1249.6939              1263.3734              1286.0417
 Red. masses --      1.2876                 3.3551                 1.9090
 Frc consts  --      1.1847                 3.1551                 1.8603
 IR Inten    --     20.2282                 2.8120                13.9658

                     58                     59                     60
                      A                      A                      A
 Frequencies --   1294.0863              1297.5223              1314.4069
 Red. masses --      1.2968                 1.3558                 5.2181
 Frc consts  --      1.2795                 1.3448                 5.3116
 IR Inten    --      6.4798                 9.4905               157.1389

                     61                     62                     63
                      A                      A                      A
 Frequencies --   1343.2508              1346.1562              1379.8262
 Red. masses --      1.8623                 1.4544                 1.3908
 Frc consts  --      1.9798                 1.5528                 1.5601
 IR Inten    --      6.9239                11.5034                30.1130

                     64                     65                     66
                      A                      A                      A
 Frequencies --   1399.3065              1453.7332              1461.0091
 Red. masses --      2.4550                 1.2307                 1.2284
 Frc consts  --      2.8322                 1.5324                 1.5449
 IR Inten    --      2.8761                28.5726                17.8447

                     67                     68                     69
                      A                      A                      A
 Frequencies --   1480.5001              1484.8564              1490.2561
 Red. masses --      2.8740                 1.1629                 1.1247
 Frc consts  --      3.7115                 1.5107                 1.4717
 IR Inten    --      6.8133                 1.8612                 6.3073

                     70                     71                     72
                      A                      A                      A
 Frequencies --   1511.7550              1515.4487              1519.4341
 Red. masses --      1.1133                 1.0489                 1.0853
 Frc consts  --      1.4991                 1.4193                 1.4762
 IR Inten    --     13.7605                10.3065                 0.3099

                     73                     74                     75
                      A                      A                      A
 Frequencies --   1524.5836              1526.9309              1531.1337
 Red. masses --      1.0496                 1.2308                 1.0493
 Frc consts  --      1.4374                 1.6908                 1.4494
 IR Inten    --      2.6362                 2.6237                16.0547

                     76                     77                     78
                      A                      A                      A
 Frequencies --   1538.3796              1543.3936              1644.6742
 Red. masses --      2.0420                 1.0505                 6.6073
 Frc consts  --      2.8473                 1.4743                10.5302
 IR Inten    --     10.2683                10.1011                 2.0820

                     79                     80                     81
                      A                      A                      A
 Frequencies --   1676.1987              3022.4913              3025.2416
 Red. masses --      6.3729                 1.0700                 1.0497
 Frc consts  --     10.5496                 5.7593                 5.6603
 IR Inten    --      0.4975                47.8648                47.5074

                     82                     83                     84
                      A                      A                      A
 Frequencies --   3030.5191              3038.9636              3082.0386
 Red. masses --      1.0697                 1.0439                 1.0672
 Frc consts  --      5.7881                 5.6804                 5.9730
 IR Inten    --     37.2928                54.5110                26.4109

                     85                     86                     87
                      A                      A                      A
 Frequencies --   3093.9925              3099.6817              3115.2983
 Red. masses --      1.0946                 1.0955                 1.0910
 Frc consts  --      6.1737                 6.2015                 6.2387
 IR Inten    --     30.2027                23.8195                15.1203

                     88                     89                     90
                      A                      A                      A
 Frequencies --   3117.4559              3151.0023              3168.5759
 Red. masses --      1.0948                 1.0985                 1.0873
 Frc consts  --      6.2689                 6.4264                 6.4315
 IR Inten    --     32.9354                 1.6540                12.6093

                     91                     92                     93
                      A                      A                      A
 Frequencies --   3171.8759              3190.0627              3190.2857
 Red. masses --      1.1008                 1.0938                 1.0991
 Frc consts  --      6.5249                 6.5585                 6.5912
 IR Inten    --      7.9949                28.4560                 2.3744

                     94                     95                     96
                      A                      A                      A
 Frequencies --   3200.9898              3483.1508              3517.2974
 Red. masses --      1.0913                 1.0747                 1.0746
 Frc consts  --      6.5879                 7.6822                 7.8325
 IR Inten    --      1.0772                 0.7917                16.2580

 - Thermochemistry -
 -------------------
 Temperature   298.150 Kelvin.  Pressure   1.00000 Atm.
 Atom     1 has atomic number  6 and mass  12.00000

 Molecular mass:   255.10415 amu.
 Principal axes and moments of inertia in atomic units:
                           1         2         3
     Eigenvalues --  1727.653018505.841129281.90417
           X            1.00000  -0.00164   0.00008
           Y            0.00164   1.00000  -0.00041
           Z           -0.00008   0.00041   1.00000
 This molecule is an asymmetric top.
 Rotational symmetry number  1.
 Warning -- assumption of classical behavior for rotation
           may cause significant error
 Rotational temperatures (Kelvin)      0.05013     0.01018     0.00933
 Rotational constants (GHZ):           1.04462     0.21218     0.19444
 Zero-point vibrational energy     746674.4 (Joules/Mol)
                                  178.45946 (Kcal/Mol)
 Warning -- explicit consideration of  26 degrees of freedom as
           vibrations may cause significant error
 Vibrational temperatures:     35.54    44.27    65.27   102.49   149.26
          (Kelvin)            197.27   237.69   262.20   283.95   311.95
                              323.51   353.78   385.10   461.83   479.92
                              498.16   538.15   584.16   610.68   635.60
                              691.58   705.53   721.79   759.61   849.84
                              878.10   936.96  1013.63  1016.04  1061.81
                             1105.77  1156.15  1197.48  1220.47  1232.74
                             1332.23  1348.47  1356.34  1368.96  1374.59
                             1431.20  1435.28  1521.50  1547.70  1548.21
                             1563.48  1616.06  1630.63  1633.41  1681.59
                             1707.98  1708.77  1762.75  1765.11  1798.03
                             1817.71  1850.33  1861.90  1866.85  1891.14
                             1932.64  1936.82  1985.26  2013.29  2091.60
                             2102.07  2130.11  2136.38  2144.15  2175.08
                             2180.39  2186.13  2193.54  2196.91  2202.96
                             2213.39  2220.60  2366.32  2411.68  4348.69
                             4352.65  4360.24  4372.39  4434.37  4451.57
                             4459.75  4482.22  4485.32  4533.59  4558.87
                             4563.62  4589.79  4590.11  4605.51  5011.48
                             5060.61

 Zero-point correction=                           0.284393 (Hartree/Particle)
 Thermal correction to Energy=                    0.300913
 Thermal correction to Enthalpy=                  0.301857
 Thermal correction to Gibbs Free Energy=         0.238961
 Sum of electronic and zero-point Energies=          -1141.997120
 Sum of electronic and thermal Energies=             -1141.980600
 Sum of electronic and thermal Enthalpies=           -1141.979655
 Sum of electronic and thermal Free Energies=        -1142.042552

                     E (Thermal)             CV                S
                      KCal/Mol        Cal/Mol-Kelvin    Cal/Mol-Kelvin
 Total                  188.826             62.972            132.377
 Electronic               0.000              0.000              0.000
 Translational            0.889              2.981             42.510
 Rotational               0.889              2.981             33.278
 Vibrational            187.048             57.010             56.590
 Vibration     1          0.593              1.985              6.215
 Vibration     2          0.594              1.984              5.779
 Vibration     3          0.595              1.979              5.010
 Vibration     4          0.598              1.968              4.119
 Vibration     5          0.605              1.946              3.383
 Vibration     6          0.614              1.916              2.844
 Vibration     7          0.624              1.885              2.489
 Vibration     8          0.630              1.864              2.305
 Vibration     9          0.637              1.844              2.158
 Vibration    10          0.646              1.815              1.986
 Vibration    11          0.650              1.803              1.920
 Vibration    12          0.660              1.770              1.760
 Vibration    13          0.673              1.733              1.611
 Vibration    14          0.706              1.633              1.305
 Vibration    15          0.715              1.608              1.243
 Vibration    16          0.724              1.583              1.183
 Vibration    17          0.745              1.525              1.063
 Vibration    18          0.771              1.457              0.941
 Vibration    19          0.786              1.417              0.877
 Vibration    20          0.802              1.379              0.821
 Vibration    21          0.837              1.293              0.708
 Vibration    22          0.846              1.271              0.683
 Vibration    23          0.857              1.246              0.654
 Vibration    24          0.883              1.188              0.592
 Vibration    25          0.948              1.052              0.466
 Vibration    26          0.969              1.010              0.432

 Optimization completed.
    -- Stationary point found.
 Normal termination of Gaussian 16 at Fri Dec 11 12:04:57 2020.

 ----------------------------------------------------------------------
 # B3LYP/6-311++G(d,p) empiricaldispersion=gd3bj scf=xqc pop=npa geom=c
 heck
 ----------------------------------------------------------------------

 ---------------------------------------
 CID_105357755_JID_7122_Energie_neutraal
 ---------------------------------------
 Structure from the checkpoint file:  "JID_7122.chk"
 Charge =  0 Multiplicity = 1

 SCF Done:  E(RB3LYP) =  -1142.51837216     A.U. after   16 cycles
 Normal termination of Gaussian 16 at Fri Dec 11 12:11:52 2020.

 ----------------------------------------------------------------------
 # B3LYP/6-311++G(d,p) empiricaldispersion=gd3bj scf=xqc pop=npa geom=c
 heck
 ----------------------------------------------------------------------

 -------------------------------------
 CID_105357755_JID_7122_Energie_kation
 -------------------------------------
 Structure from the checkpoint file:  "JID_7122.chk"
 Charge =  1 Multiplicity = 2

 SCF Done:  E(UB3LYP) =  -1142.21730498     A.U. after   31 cycles
 Normal termination of Gaussian 16 at Fri Dec 11 12:27:20 2020.
 Gaussian 16:  ES64L-G16RevA.03 25-Dec-2016

 ----------------------------------------------------------------------
 # B3LYP/6-311++G(d,p) empiricaldispersion=gd3bj scf=xqc pop=npa geom=c
 heck
 ----------------------------------------------------------------------

 ------------------------------------
 CID_105357755_JID_7122_Energie_anion
 ------------------------------------
 Structure from the checkpoint file:  "JID_7122.chk"
 Charge = -1 Multiplicity = 2

                         Standard orientation:
 ---------------------------------------------------------------------
 Center     Atomic      Atomic             Coordinates (Angstroms)
 Number     Number       Type             X           Y           Z
 ---------------------------------------------------------------------
      1          6           0       -4.249756   -1.415315   -1.036013
      2          7           0       -3.667672   -0.167452   -0.523459
      3          6           0       -4.536852    0.543927    0.420453
      4         16           0       -2.075340   -0.333284    0.014587
      5          8           0       -1.997903   -0.667197    1.442720
      6          8           0       -1.400848   -1.184993   -0.966583
      7          7           0       -1.619678    1.284546   -0.109527
      8          6           0       -0.524093    1.740012    0.779332
      9          6           0        0.854480    1.261115    0.384507
     10          6           0        1.299169   -0.014170    0.768409
     11          6           0        2.554639   -0.442446    0.360834
     12          6           0        3.372779    0.374327   -0.427953
     13          6           0        4.656055   -0.376023   -0.730322
     14          7           0        4.686494   -1.503185    0.231676
     15          6           0        3.272584   -1.756573    0.600783
     16          6           0        2.941507    1.636139   -0.819011
     17          6           0        1.680469    2.073820   -0.401349
     18          1           0       -5.174461   -1.154718   -1.558714
     19          1           0       -4.485245   -2.130627   -0.234418
     20          1           0       -3.557544   -1.874454   -1.740485
     21          1           0       -4.761273   -0.054654    1.313712
     22          1           0       -4.054583    1.475540    0.718854
     23          1           0       -5.469394    0.780534   -0.100015
     24          1           0       -1.436029    1.486363   -1.091528
     25          1           0       -0.569636    2.833622    0.763641
     26          1           0       -0.789194    1.410351    1.785406
     27          1           0        0.657064   -0.648668    1.372904
     28          1           0        5.562079    0.232574   -0.640969
     29          1           0        4.633502   -0.771639   -1.756471
     30          1           0        5.155890   -1.164861    1.070179
     31          1           0        2.857191   -2.539229   -0.050133
     32          1           0        3.201525   -2.123376    1.629786
     33          1           0        3.569663    2.280513   -1.429087
     34          1           0        1.335990    3.066532   -0.684002
 ---------------------------------------------------------------------

 SCF Done:  E(UB3LYP) =  -1142.50775249     A.U. after   33 cycles
 SCF Done:  E(UB3LYP) =  -1142.50775249     a.u. after    1 cycles

 The electronic state is 2-A.
 Alpha  occ. eigenvalues --  -88.98392 -19.02763 -19.02655 -14.25897 -14.25238
 Alpha  occ. eigenvalues --  -14.21683 -10.12091 -10.11344 -10.11208 -10.11184
 Alpha  occ. eigenvalues --  -10.10767 -10.08820 -10.08482 -10.08407 -10.08353
 Alpha  occ. eigenvalues --  -10.08264 -10.07929  -8.04389  -6.00645  -6.00622
 Alpha  occ. eigenvalues --   -6.00572  -1.03696  -0.91970  -0.85342  -0.84008
 Alpha  occ. eigenvalues --   -0.83308  -0.76077  -0.68272  -0.66837  -0.63709
 Alpha  occ. eigenvalues --   -0.62947  -0.61443  -0.58144  -0.53958  -0.51038
 Alpha  occ. eigenvalues --   -0.50420  -0.48075  -0.45275  -0.42268  -0.42211
 Alpha  occ. eigenvalues --   -0.41732  -0.39447  -0.38556  -0.37045  -0.36575
 Alpha  occ. eigenvalues --   -0.36216  -0.34758  -0.34077  -0.33494  -0.32584
 Alpha  occ. eigenvalues --   -0.32198  -0.31662  -0.30556  -0.30013  -0.29516
 Alpha  occ. eigenvalues --   -0.29383  -0.27517  -0.26119  -0.25776  -0.24982
 Alpha  occ. eigenvalues --   -0.24464  -0.23414  -0.21891  -0.18737  -0.16631
 Alpha  occ. eigenvalues --   -0.16081  -0.15537  -0.14935   0.03933
 Alpha virt. eigenvalues --    0.05337   0.06334   0.06703   0.07427   0.07780
 Alpha virt. eigenvalues --    0.08025   0.08657   0.08971   0.09137   0.09815
 Alpha virt. eigenvalues --    0.10486   0.10921   0.11203   0.11603   0.12166

  Beta  occ. eigenvalues --  -88.98390 -19.02753 -19.02653 -14.25895 -14.25216
  Beta  occ. eigenvalues --  -14.21674 -10.12074 -10.11315 -10.11199 -10.11179
  Beta  occ. eigenvalues --  -10.10725 -10.08805 -10.08486 -10.08381 -10.08327
  Beta  occ. eigenvalues --  -10.08251 -10.07892  -8.04387  -6.00642  -6.00618
  Beta  occ. eigenvalues --   -6.00570  -1.03679  -0.91955  -0.85326  -0.83982
  Beta  occ. eigenvalues --   -0.83270  -0.76032  -0.68215  -0.66801  -0.63664
  Beta  occ. eigenvalues --   -0.62897  -0.61400  -0.58088  -0.53912  -0.50989
  Beta  occ. eigenvalues --   -0.50357  -0.48033  -0.45235  -0.42234  -0.42177
  Beta  occ. eigenvalues --   -0.41702  -0.39412  -0.38512  -0.37007  -0.36535
  Beta  occ. eigenvalues --   -0.36173  -0.34723  -0.34048  -0.33457  -0.32555
  Beta  occ. eigenvalues --   -0.32157  -0.31621  -0.30504  -0.29981  -0.29484
  Beta  occ. eigenvalues --   -0.29349  -0.27480  -0.26098  -0.25723  -0.24950
  Beta  occ. eigenvalues --   -0.24423  -0.23401  -0.21879  -0.18711  -0.16603
  Beta  occ. eigenvalues --   -0.15944  -0.15520  -0.14824
  Beta virt. eigenvalues --    0.05952   0.06343   0.06853   0.07135   0.07843
  Beta virt. eigenvalues --    0.08024   0.08395   0.08993   0.09163   0.09597
  Beta virt. eigenvalues --    0.10144   0.10627   0.11083   0.11431   0.11669

 Mulliken charges and spin densities:
               1          2
     1  C    0.413965  -0.693066
     2  N   -0.381335   0.246801
     3  C    0.669958  -1.050053
     4  S    0.306637  -0.374885
     5  O   -0.209542   0.012787
     6  O   -0.116711   0.019648
     7  N   -0.225861  -0.030383
     8  C   -0.461380  -0.539176
     9  C    1.354884  -0.135796
    10  C   -0.795194   0.485844
    11  C   -0.734975   0.625840
    12  C    0.923941  -0.057570
    13  C    0.548938  -1.319103
    14  N   -0.099488   0.077871
    15  C   -0.512465  -0.065394
    16  C   -0.438347  -0.168723
    17  C    0.346702  -0.832166
    18  H   -0.192384   0.349113
    19  H   -0.030437   0.180826
    20  H    0.072459   0.102483
    21  H    0.031129   0.144999
    22  H   -0.319007   0.492481
    23  H   -0.480407   0.638917
    24  H    0.074519   0.231574
    25  H   -0.485759   0.709725
    26  H    0.208741   0.047655
    27  H    0.063424   0.115332
    28  H   -0.238265   0.413872
    29  H    0.203511  -0.031285
    30  H    0.097631   0.134025
    31  H    0.194392  -0.000168
    32  H    0.057261   0.113021
    33  H   -0.303591   0.457189
    34  H   -0.542945   0.697765
 Sum of Mulliken charges =  -1.00000   1.00000

 Dipole moment (field-independent basis, Debye):
    X=              2.4891    Y=             -3.1200    Z=              0.6646  Tot=              4.0462
 Quadrupole moment (field-independent basis, Debye-Ang):
   XX=           -214.7757   YY=           -156.4865   ZZ=           -136.3183
   XY=              4.3052   XZ=             -2.0707   YZ=              1.2576

 Summary of Natural Population Analysis:

                                       Natural Population
                Natural  -----------------------------------------------
    Atom  No    Charge         Core      Valence    Rydberg      Total
 -----------------------------------------------------------------------
      C    1   -0.18247      0.99963     2.17374    0.00910     3.18247
      N    2   -0.36193      0.99975     2.84743    0.01475     3.86193
      C    3   -0.18296      0.99963     2.17361    0.00973     3.18296
      S    4    1.16106      4.99927     1.73636    0.10331     6.83894
      O    5   -0.46463      0.99990     3.45954    0.00519     4.46463
      O    6   -0.45818      0.99990     3.45287    0.00541     4.45818
      N    7   -0.42479      0.99976     2.91213    0.01290     3.92479
      C    8   -0.10145      0.99957     2.08755    0.01433     3.10145
      C    9   -0.02989      0.99951     2.02031    0.01008     3.02989
      C   10   -0.08777      0.99946     2.07904    0.00927     3.08777
      C   11   -0.02228      0.99946     2.01370    0.00911     3.02228
      C   12   -0.01927      0.99946     2.01035    0.00946     3.01927
      C   13   -0.09493      0.99960     2.08428    0.01105     3.09493
      N   14   -0.33374      0.99978     2.82243    0.01154     3.83374
      C   15   -0.09461      0.99960     2.08410    0.01091     3.09461
      C   16   -0.09594      0.99951     2.08656    0.00987     3.09594
      C   17   -0.09656      0.99952     2.08699    0.01005     3.09656
      H   18    0.10136      0.00000     0.39731    0.00133     0.39864
      H   19    0.08866      0.00000     0.41020    0.00114     0.41134
      H   20    0.11142      0.00000     0.38753    0.00104     0.38858
      H   21    0.09212      0.00000     0.40667    0.00121     0.40788
      H   22    0.11081      0.00000     0.38751    0.00168     0.38919
      H   23    0.10179      0.00000     0.39617    0.00204     0.39821
      H   24    0.19743      0.00000     0.30008    0.00249     0.30257
      H   25    0.10568      0.00000     0.39260    0.00172     0.39432
      H   26    0.11232      0.00000     0.38631    0.00137     0.38768
      H   27    0.10915      0.00000     0.38929    0.00156     0.39085
      H   28    0.09998      0.00000     0.39853    0.00149     0.40002
      H   29    0.09302      0.00000     0.40581    0.00117     0.40698
      H   30    0.17007      0.00000     0.32747    0.00247     0.32993
      H   31    0.09544      0.00000     0.40346    0.00110     0.40456
      H   32    0.09842      0.00000     0.40060    0.00098     0.40158
      H   33    0.10105      0.00000     0.39793    0.00102     0.39895
      H   34    0.10163      0.00000     0.39663    0.00174     0.39837
 =======================================================================
   * Total *   -0.00000     20.99333    46.71505    0.29162    68.00000

 Normal termination of Gaussian 16 at Fri Dec 11 12:45:45 2020.
