 Gaussian 16, Revision A.03,

 -----------------------------------------------------------
 # opt freq B3LYP/6-31G(d) empiricaldispersion=gd3bj scf=xqc
 -----------------------------------------------------------

 -------------------------------
 CID_116399920_JID_8761_neutraal
 -------------------------------
 Symbolic Z-matrix:
 Charge =  0 Multiplicity = 1

 SCF Done:  E(RB3LYP) =  -1129.71106303     A.U. after   14 cycles
 SCF Done:  E(RB3LYP) =  -1129.71667664     A.U. after   12 cycles
 SCF Done:  E(RB3LYP) =  -1129.71734878     A.U. after   12 cycles
 SCF Done:  E(RB3LYP) =  -1129.71828901     A.U. after   12 cycles
 SCF Done:  E(RB3LYP) =  -1129.71855083     A.U. after   12 cycles
 SCF Done:  E(RB3LYP) =  -1129.71891093     A.U. after   11 cycles
 SCF Done:  E(RB3LYP) =  -1129.71899749     A.U. after   11 cycles
 SCF Done:  E(RB3LYP) =  -1129.71902128     A.U. after   11 cycles
 SCF Done:  E(RB3LYP) =  -1129.71902485     A.U. after    8 cycles
 SCF Done:  E(RB3LYP) =  -1129.71902677     A.U. after    8 cycles
 SCF Done:  E(RB3LYP) =  -1129.71902698     A.U. after    7 cycles
 Optimization completed.
    -- Stationary point found.
 Normal termination of Gaussian 16 at Fri Dec 11 22:10:25 2020.

 --------------------------------------------------------------------
 #N Geom=AllCheck Guess=TCheck SCRF=Check GenChk RB3LYP/6-31G(d) Freq
 --------------------------------------------------------------------

 Structure from the checkpoint file:  "JID_8761.chk"
 -------------------------------
 CID_116399920_JID_8761_neutraal
 -------------------------------
 Charge =  0 Multiplicity = 1

 SCF Done:  E(RB3LYP) =  -1129.71902698     A.U. after    1 cycles

  Exact polarizability: 196.618  29.999 175.723 -17.962   6.180 152.063
 Approx polarizability: 252.161  52.655 280.068 -36.754  15.451 262.642

                      1                      2                      3
                      A                      A                      A
 Frequencies --     19.0762                39.7671                53.7471
 Red. masses --      5.1184                 4.3635                 3.6368
 Frc consts  --      0.0011                 0.0041                 0.0062
 IR Inten    --      0.1472                 0.4968                 0.7768

                      4                      5                      6
                      A                      A                      A
 Frequencies --     63.6340               105.5164               108.5976
 Red. masses --      4.2671                 3.1033                 3.0572
 Frc consts  --      0.0102                 0.0204                 0.0212
 IR Inten    --      0.3653                 0.2548                 0.7998

                      7                      8                      9
                      A                      A                      A
 Frequencies --    124.6392               158.5510               185.4014
 Red. masses --      3.7499                 3.7396                 4.8989
 Frc consts  --      0.0343                 0.0554                 0.0992
 IR Inten    --      0.8904                 2.6620                 0.7321

                     10                     11                     12
                      A                      A                      A
 Frequencies --    227.7934               240.7721               252.8382
 Red. masses --      3.3463                 3.3078                 2.6093
 Frc consts  --      0.1023                 0.1130                 0.0983
 IR Inten    --      4.6787                 1.8324                 2.9966

                     13                     14                     15
                      A                      A                      A
 Frequencies --    262.8393               274.8232               302.9006
 Red. masses --      1.5455                 2.5883                 1.0415
 Frc consts  --      0.0629                 0.1152                 0.0563
 IR Inten    --      4.1227                 8.2413                20.1419

                     16                     17                     18
                      A                      A                      A
 Frequencies --    325.7141               334.3013               367.0160
 Red. masses --      2.1342                 1.4659                 2.6397
 Frc consts  --      0.1334                 0.0965                 0.2095
 IR Inten    --     35.9166                80.7532                19.5280

                     19                     20                     21
                      A                      A                      A
 Frequencies --    385.8842               390.5323               413.3593
 Red. masses --      2.9898                 2.4608                 2.5808
 Frc consts  --      0.2623                 0.2211                 0.2598
 IR Inten    --      3.0224                 1.5181                 3.9733

                     22                     23                     24
                      A                      A                      A
 Frequencies --    418.8736               424.0083               447.3037
 Red. masses --      3.2879                 2.9203                 3.5523
 Frc consts  --      0.3399                 0.3093                 0.4188
 IR Inten    --      2.3889                 0.7117                 1.8541

                     25                     26                     27
                      A                      A                      A
 Frequencies --    465.2908               543.6491               562.9215
 Red. masses --      2.5146                 2.2303                 3.4131
 Frc consts  --      0.3207                 0.3884                 0.6372
 IR Inten    --      8.2497                88.2124                27.9536

                     28                     29                     30
                      A                      A                      A
 Frequencies --    589.5086               611.9009               627.9756
 Red. masses --      4.1338                 1.4472                 4.1057
 Frc consts  --      0.8464                 0.3192                 0.9539
 IR Inten    --      9.1336               268.2218                 7.6786

                     31                     32                     33
                      A                      A                      A
 Frequencies --    658.5709               674.6573               731.4354
 Red. masses --      6.7606                 4.0388                 3.3905
 Frc consts  --      1.7276                 1.0831                 1.0687
 IR Inten    --      0.7486                 2.5088                 4.9727

                     34                     35                     36
                      A                      A                      A
 Frequencies --    735.8292               755.9961               796.0915
 Red. masses --      3.5126                 3.6486                 2.1789
 Frc consts  --      1.1206                 1.2286                 0.8136
 IR Inten    --      9.9034                 3.0023                13.9343

                     37                     38                     39
                      A                      A                      A
 Frequencies --    806.5168               827.2136               837.4341
 Red. masses --      1.3463                 1.2733                 1.8754
 Frc consts  --      0.5160                 0.5133                 0.7749
 IR Inten    --      1.4438                 3.6973                35.1609

                     40                     41                     42
                      A                      A                      A
 Frequencies --    840.4946               856.2709               933.1930
 Red. masses --      2.2200                 4.4684                 2.3001
 Frc consts  --      0.9240                 1.9303                 1.1801
 IR Inten    --     19.5302                 5.0805                12.2727

                     43                     44                     45
                      A                      A                      A
 Frequencies --    943.2132               950.6469               963.2137
 Red. masses --      1.3432                 1.2996                 2.1748
 Frc consts  --      0.7041                 0.6920                 1.1888
 IR Inten    --      4.1927                 1.0104                 7.5379

                     46                     47                     48
                      A                      A                      A
 Frequencies --    981.4555              1006.8566              1010.7269
 Red. masses --      2.3821                 1.8926                 1.8461
 Frc consts  --      1.3519                 1.1305                 1.1112
 IR Inten    --     37.8698                18.3210                 5.0193

                     49                     50                     51
                      A                      A                      A
 Frequencies --   1033.6481              1038.1356              1054.9118
 Red. masses --      2.8606                 1.9375                 2.0077
 Frc consts  --      1.8008                 1.2302                 1.3164
 IR Inten    --      6.9187                23.5391                13.1392

                     52                     53                     54
                      A                      A                      A
 Frequencies --   1068.7075              1084.0164              1102.2524
 Red. masses --      4.6234                 1.5018                 1.5880
 Frc consts  --      3.1112                 1.0398                 1.1367
 IR Inten    --     51.7395                 5.1961                 1.8367

                     55                     56                     57
                      A                      A                      A
 Frequencies --   1122.7898              1134.6051              1163.7826
 Red. masses --      2.2271                 1.7286                 1.2250
 Frc consts  --      1.6542                 1.3111                 0.9775
 IR Inten    --      5.1611                13.2619                 5.0346

                     58                     59                     60
                      A                      A                      A
 Frequencies --   1174.7321              1190.5825              1210.3727
 Red. masses --      1.8781                 1.7656                 1.1869
 Frc consts  --      1.5270                 1.4745                 1.0245
 IR Inten    --     12.7697                43.7596                15.4028

                     61                     62                     63
                      A                      A                      A
 Frequencies --   1221.1637              1235.1899              1243.2453
 Red. masses --      1.3616                 1.2915                 1.7486
 Frc consts  --      1.1963                 1.1609                 1.5925
 IR Inten    --      6.5270                 0.7265                 1.1010

                     64                     65                     66
                      A                      A                      A
 Frequencies --   1278.9288              1290.2307              1319.6172
 Red. masses --      1.3005                 1.2516                 1.6813
 Frc consts  --      1.2533                 1.2276                 1.7250
 IR Inten    --     37.5291                 7.7363                11.9710

                     67                     68                     69
                      A                      A                      A
 Frequencies --   1326.6905              1328.1909              1332.8403
 Red. masses --      1.9822                 1.7353                 1.4790
 Frc consts  --      2.0556                 1.8036                 1.5480
 IR Inten    --     74.9480                16.4295                 0.0754

                     70                     71                     72
                      A                      A                      A
 Frequencies --   1346.8044              1369.7941              1377.2420
 Red. masses --      1.3265                 1.4298                 1.5065
 Frc consts  --      1.4176                 1.5807                 1.6836
 IR Inten    --      7.0844                16.3814                16.8757

                     73                     74                     75
                      A                      A                      A
 Frequencies --   1380.3680              1389.3140              1399.6222
 Red. masses --      2.0705                 1.3906                 1.2757
 Frc consts  --      2.3244                 1.5815                 1.4724
 IR Inten    --     20.4967                10.0239                 5.8434

                     76                     77                     78
                      A                      A                      A
 Frequencies --   1409.5023              1418.7461              1426.7294
 Red. masses --      1.3486                 1.4419                 1.4926
 Frc consts  --      1.5786                 1.7099                 1.7901
 IR Inten    --      1.2231                15.1765                39.0779

                     79                     80                     81
                      A                      A                      A
 Frequencies --   1439.9938              1447.3175              1492.2272
 Red. masses --      1.2858                 1.4064                 1.1630
 Frc consts  --      1.5709                 1.7357                 1.5258
 IR Inten    --     13.4172                27.3847                 5.0379

                     82                     83                     84
                      A                      A                      A
 Frequencies --   1492.6346              1500.6594              1507.5594
 Red. masses --      2.2360                 1.1060                 1.0819
 Frc consts  --      2.9351                 1.4674                 1.4487
 IR Inten    --      8.1805                 2.6938                 1.7195

                     85                     86                     87
                      A                      A                      A
 Frequencies --   1516.1240              1523.4382              1529.3059
 Red. masses --      1.0781                 1.0512                 1.1081
 Frc consts  --      1.4601                 1.4374                 1.5269
 IR Inten    --      2.4832                 6.3509                 9.5494

                     88                     89                     90
                      A                      A                      A
 Frequencies --   1551.0809              1570.1362              1638.7822
 Red. masses --      1.0534                 2.6740                 5.9499
 Frc consts  --      1.4932                 3.8841                 9.4147
 IR Inten    --      7.4941                63.5165                 2.9731

                     91                     92                     93
                      A                      A                      A
 Frequencies --   1676.9114              1696.7077              2945.4506
 Red. masses --      2.8781                 1.4330                 1.0709
 Frc consts  --      4.7684                 2.4306                 5.4741
 IR Inten    --     23.9382               145.7637                55.0044

                     94                     95                     96
                      A                      A                      A
 Frequencies --   2991.8077              3007.8872              3013.1198
 Red. masses --      1.0833                 1.0670                 1.0676
 Frc consts  --      5.7128                 5.6879                 5.7107
 IR Inten    --     49.5705                45.4172                32.8210

                     97                     98                     99
                      A                      A                      A
 Frequencies --   3043.5806              3053.6775              3056.7262
 Red. masses --      1.0621                 1.0879                 1.0396
 Frc consts  --      5.7969                 5.9769                 5.7230
 IR Inten    --     28.3801                16.5806                26.3723

                    100                    101                    102
                      A                      A                      A
 Frequencies --   3059.8603              3069.9299              3078.2448
 Red. masses --      1.0867                 1.0927                 1.0723
 Frc consts  --      5.9949                 6.0675                 5.9866
 IR Inten    --     45.4100                33.0992                10.7543

                    103                    104                    105
                      A                      A                      A
 Frequencies --   3088.6222              3097.1316              3116.9375
 Red. masses --      1.0823                 1.1014                 1.1004
 Frc consts  --      6.0832                 6.2248                 6.2990
 IR Inten    --     17.9034                44.7020                49.8640

                    106                    107                    108
                      A                      A                      A
 Frequencies --   3138.8264              3152.5940              3170.7555
 Red. masses --      1.1059                 1.1012                 1.0864
 Frc consts  --      6.4194                 6.4487                 6.4353
 IR Inten    --     10.7950                18.5080                20.0502

                    109                    110                    111
                      A                      A                      A
 Frequencies --   3174.6176              3187.9592              3200.2467
 Red. masses --      1.0880                 1.0941                 1.0927
 Frc consts  --      6.4602                 6.5513                 6.5937
 IR Inten    --     16.3828                20.3690                 7.2411

                    112                    113                    114
                      A                      A                      A
 Frequencies --   3553.9240              3653.2931              3738.2332
 Red. masses --      1.0478                 1.0984                 1.0662
 Frc consts  --      7.7970                 8.6371                 8.7788
 IR Inten    --     17.0958                 9.1063                 9.9019

 - Thermochemistry -
 -------------------
 Temperature   298.150 Kelvin.  Pressure   1.00000 Atm.
 Atom     1 has atomic number  6 and mass  12.00000

 Molecular mass:   266.14529 amu.
 Principal axes and moments of inertia in atomic units:
                           1         2         3
     Eigenvalues --  2872.984818162.311819734.36421
           X            0.99982   0.01885   0.00218
           Y           -0.01885   0.99981  -0.00424
           Z           -0.00225   0.00420   0.99999
 This molecule is an asymmetric top.
 Rotational symmetry number  1.
 Warning -- assumption of classical behavior for rotation
           may cause significant error
 Rotational temperatures (Kelvin)      0.03015     0.01061     0.00890
 Rotational constants (GHZ):           0.62818     0.22111     0.18540
 Zero-point vibrational energy     916865.9 (Joules/Mol)
                                  219.13622 (Kcal/Mol)
 Warning -- explicit consideration of  29 degrees of freedom as
           vibrations may cause significant error
 Vibrational temperatures:     27.45    57.22    77.33    91.56   151.81
          (Kelvin)            156.25   179.33   228.12   266.75   327.74
                              346.42   363.78   378.17   395.41   435.81
                              468.63   480.99   528.05   555.20   561.89
                              594.73   602.67   610.05   643.57   669.45
                              782.19   809.92   848.17   880.39   903.52
                              947.54   970.68  1052.37  1058.69  1087.71
                             1145.40  1160.40  1190.18  1204.88  1209.28
                             1231.98  1342.66  1357.07  1367.77  1385.85
                             1412.10  1448.64  1454.21  1487.19  1493.65
                             1517.78  1537.63  1559.66  1585.90  1615.44
                             1632.44  1674.42  1690.18  1712.98  1741.46
                             1756.98  1777.16  1788.75  1840.09  1856.35
                             1898.63  1908.81  1910.97  1917.66  1937.75
                             1970.83  1981.54  1986.04  1998.91  2013.74
                             2027.96  2041.26  2052.75  2071.83  2082.37
                             2146.98  2147.57  2159.11  2169.04  2181.36
                             2191.89  2200.33  2231.66  2259.08  2357.84
                             2412.70  2441.18  4237.85  4304.54  4327.68
                             4335.21  4379.03  4393.56  4397.95  4402.46
                             4416.94  4428.91  4443.84  4456.08  4484.58
                             4516.07  4535.88  4562.01  4567.57  4586.76
                             4604.44  5113.30  5256.27  5378.48

 Zero-point correction=                           0.349216 (Hartree/Particle)
 Thermal correction to Energy=                    0.367397
 Thermal correction to Enthalpy=                  0.368341
 Thermal correction to Gibbs Free Energy=         0.302365
 Sum of electronic and zero-point Energies=          -1129.369811
 Sum of electronic and thermal Energies=             -1129.351630
 Sum of electronic and thermal Enthalpies=           -1129.350686
 Sum of electronic and thermal Free Energies=        -1129.416662

                     E (Thermal)             CV                S
                      KCal/Mol        Cal/Mol-Kelvin    Cal/Mol-Kelvin
 Total                  230.545             71.113            138.858
 Electronic               0.000              0.000              0.000
 Translational            0.889              2.981             42.636
 Rotational               0.889              2.981             33.789
 Vibrational            228.768             65.151             62.433
 Vibration     1          0.593              1.986              6.728
 Vibration     2          0.594              1.981              5.271
 Vibration     3          0.596              1.976              4.675
 Vibration     4          0.597              1.972              4.341
 Vibration     5          0.605              1.945              3.350
 Vibration     6          0.606              1.942              3.294
 Vibration     7          0.610              1.928              3.027
 Vibration     8          0.621              1.893              2.567
 Vibration     9          0.631              1.860              2.273
 Vibration    10          0.651              1.799              1.896
 Vibration    11          0.658              1.778              1.797
 Vibration    12          0.664              1.758              1.711
 Vibration    13          0.670              1.741              1.643
 Vibration    14          0.677              1.720              1.566
 Vibration    15          0.694              1.668              1.401
 Vibration    16          0.710              1.624              1.281
 Vibration    17          0.716              1.607              1.239
 Vibration    18          0.740              1.540              1.092
 Vibration    19          0.755              1.500              1.016
 Vibration    20          0.758              1.490              0.998
 Vibration    21          0.777              1.441              0.915
 Vibration    22          0.782              1.429              0.896
 Vibration    23          0.786              1.418              0.878
 Vibration    24          0.806              1.367              0.804
 Vibration    25          0.823              1.327              0.751
 Vibration    26          0.899              1.154              0.557
 Vibration    27          0.919              1.111              0.518
 Vibration    28          0.947              1.054              0.468
 Vibration    29          0.971              1.007              0.430

 Optimization completed.
    -- Stationary point found.
 Normal termination of Gaussian 16 at Fri Dec 11 22:28:55 2020.

 ----------------------------------------------------------------------
 # B3LYP/6-311++G(d,p) empiricaldispersion=gd3bj scf=xqc pop=npa geom=c
 heck
 ----------------------------------------------------------------------

 ---------------------------------------
 CID_116399920_JID_8761_Energie_neutraal
 ---------------------------------------
 Structure from the checkpoint file:  "JID_8761.chk"
 Charge =  0 Multiplicity = 1

 SCF Done:  E(RB3LYP) =  -1129.95983619     A.U. after   15 cycles
 Normal termination of Gaussian 16 at Fri Dec 11 22:36:47 2020.

 ----------------------------------------------------------------------
 # B3LYP/6-311++G(d,p) empiricaldispersion=gd3bj scf=xqc pop=npa geom=c
 heck
 ----------------------------------------------------------------------

 -------------------------------------
 CID_116399920_JID_8761_Energie_kation
 -------------------------------------
 Structure from the checkpoint file:  "JID_8761.chk"
 Charge =  1 Multiplicity = 2

 SCF Done:  E(UB3LYP) =  -1129.70063194     A.U. after   24 cycles
 Normal termination of Gaussian 16 at Fri Dec 11 22:54:15 2020.
 Gaussian 16:  ES64L-G16RevA.03 25-Dec-2016

 ----------------------------------------------------------------------
 # B3LYP/6-311++G(d,p) empiricaldispersion=gd3bj scf=xqc pop=npa geom=c
 heck
 ----------------------------------------------------------------------

 ------------------------------------
 CID_116399920_JID_8761_Energie_anion
 ------------------------------------
 Structure from the checkpoint file:  "JID_8761.chk"
 Charge = -1 Multiplicity = 2

                         Standard orientation:
 ---------------------------------------------------------------------
 Center     Atomic      Atomic             Coordinates (Angstroms)
 Number     Number       Type             X           Y           Z
 ---------------------------------------------------------------------
      1          6           0        4.310918    0.601772    1.054491
      2          6           0        4.265430    0.325158   -0.449385
      3          6           0        3.006841   -0.370235   -0.998608
      4          6           0        1.731593    0.486568   -0.981344
      5          7           0        1.134567    0.634100    0.339426
      6          6           0        0.573974   -0.613537    0.851724
      7          6           0        1.683283   -1.604988    1.185847
      8         16           0        2.690740   -2.046261   -0.284825
      9          6           0        0.320234    1.826363    0.502508
     10          6           0       -0.891098    2.019375   -0.437758
     11          6           0       -1.947843    0.949706   -0.301483
     12          6           0       -2.724011    0.857287    0.861309
     13          6           0       -3.661843   -0.154981    1.022140
     14          6           0       -3.856087   -1.116554    0.014538
     15          6           0       -3.093885   -1.016507   -1.160634
     16          6           0       -2.161203    0.005242   -1.309433
     17          7           0       -4.748847   -2.172902    0.201026
     18          8           0       -1.394168    3.315172   -0.091063
     19          1           0        3.439016    1.173122    1.381246
     20          1           0        5.218189    1.161829    1.308707
     21          1           0        4.333443   -0.336660    1.617897
     22          1           0        4.370831    1.273609   -0.998136
     23          1           0        5.132670   -0.287130   -0.725827
     24          1           0        3.204882   -0.598722   -2.053024
     25          1           0        1.994595    1.487991   -1.345678
     26          1           0        1.017198    0.051580   -1.704586
     27          1           0        0.014297   -0.385482    1.765718
     28          1           0       -0.130359   -1.082604    0.147165
     29          1           0        2.324090   -1.204093    1.974463
     30          1           0        1.252897   -2.550177    1.531611
     31          1           0       -0.048221    1.854620    1.534127
     32          1           0        0.964391    2.704889    0.368783
     33          1           0       -0.531143    2.022797   -1.479072
     34          1           0       -2.592104    1.598452    1.644690
     35          1           0       -4.250121   -0.212600    1.935175
     36          1           0       -3.235853   -1.744916   -1.955449
     37          1           0       -1.578453    0.062306   -2.226133
     38          1           0       -5.094056   -2.597035   -0.650778
     39          1           0       -5.498802   -1.989093    0.855546
     40          1           0       -2.243751    3.419716   -0.547381
 ---------------------------------------------------------------------

 SCF Done:  E(UB3LYP) =  -1129.95027322     A.U. after   33 cycles
 SCF Done:  E(UB3LYP) =  -1129.95027322     a.u. after    1 cycles

 The electronic state is 2-A.
 Alpha  occ. eigenvalues --  -88.74869 -19.04008 -14.21976 -14.21826 -10.13571
 Alpha  occ. eigenvalues --  -10.12197 -10.11869 -10.11327 -10.11049 -10.10836
 Alpha  occ. eigenvalues --  -10.10816 -10.08797 -10.08336 -10.08296 -10.07854
 Alpha  occ. eigenvalues --  -10.07689 -10.07549 -10.07325  -7.83497  -5.79879
 Alpha  occ. eigenvalues --   -5.79534  -5.78865  -0.94152  -0.84698  -0.82375
 Alpha  occ. eigenvalues --   -0.75285  -0.73355  -0.69840  -0.66881  -0.65635
 Alpha  occ. eigenvalues --   -0.65168  -0.62575  -0.57082  -0.56766  -0.53527
 Alpha  occ. eigenvalues --   -0.52563  -0.50982  -0.48920  -0.44896  -0.44280
 Alpha  occ. eigenvalues --   -0.42850  -0.41291  -0.39534  -0.39222  -0.38328
 Alpha  occ. eigenvalues --   -0.37497  -0.36958  -0.35738  -0.34721  -0.33819
 Alpha  occ. eigenvalues --   -0.33323  -0.32717  -0.32447  -0.31783  -0.30498
 Alpha  occ. eigenvalues --   -0.30107  -0.29722  -0.28896  -0.27655  -0.27266
 Alpha  occ. eigenvalues --   -0.26235  -0.25749  -0.25294  -0.24476  -0.23752
 Alpha  occ. eigenvalues --   -0.22091  -0.21210  -0.19725  -0.16496  -0.14256
 Alpha  occ. eigenvalues --   -0.12864  -0.11177   0.03861
 Alpha virt. eigenvalues --    0.05154   0.06437   0.06734   0.07339   0.07484
 Alpha virt. eigenvalues --    0.07544   0.08045   0.08431   0.08821   0.09240
 Alpha virt. eigenvalues --    0.09462   0.10385   0.10566   0.11130   0.11516

  Beta  occ. eigenvalues --  -88.74868 -19.04002 -14.21973 -14.21751 -10.13565
  Beta  occ. eigenvalues --  -10.12192 -10.11863 -10.11314 -10.11047 -10.10832
  Beta  occ. eigenvalues --  -10.10812 -10.08783 -10.08328 -10.08291 -10.07852
  Beta  occ. eigenvalues --  -10.07668 -10.07530 -10.07319  -7.83496  -5.79878
  Beta  occ. eigenvalues --   -5.79533  -5.78865  -0.94141  -0.84689  -0.82293
  Beta  occ. eigenvalues --   -0.75250  -0.73338  -0.69829  -0.66848  -0.65610
  Beta  occ. eigenvalues --   -0.65149  -0.62539  -0.57063  -0.56739  -0.53501
  Beta  occ. eigenvalues --   -0.52521  -0.50949  -0.48885  -0.44874  -0.44250
  Beta  occ. eigenvalues --   -0.42792  -0.41220  -0.39496  -0.39194  -0.38313
  Beta  occ. eigenvalues --   -0.37473  -0.36934  -0.35712  -0.34690  -0.33791
  Beta  occ. eigenvalues --   -0.33300  -0.32673  -0.32430  -0.31768  -0.30466
  Beta  occ. eigenvalues --   -0.30094  -0.29711  -0.28863  -0.27641  -0.27247
  Beta  occ. eigenvalues --   -0.26218  -0.25730  -0.25273  -0.24460  -0.23734
  Beta  occ. eigenvalues --   -0.22052  -0.21199  -0.19709  -0.16480  -0.14249
  Beta  occ. eigenvalues --   -0.12839  -0.11133
  Beta virt. eigenvalues --    0.05618   0.06540   0.06641   0.07240   0.07489
  Beta virt. eigenvalues --    0.07674   0.07966   0.08257   0.08676   0.08951
  Beta virt. eigenvalues --    0.09674   0.09799   0.10344   0.10678   0.11177

 Mulliken charges and spin densities:
               1          2
     1  C   -0.477879  -0.132443
     2  C    0.062318  -0.512472
     3  C    0.322363   0.301167
     4  C   -0.502810  -0.405533
     5  N    0.228002   0.016014
     6  C   -0.430106   0.112040
     7  C   -0.286620  -0.223583
     8  S   -0.055539  -0.162518
     9  C   -0.061123  -0.061885
    10  C    1.298793  -1.999143
    11  C    0.431579   0.094341
    12  C   -0.726231   0.480788
    13  C   -0.477511   0.196183
    14  C    1.682789  -1.931154
    15  C   -0.068485  -0.132845
    16  C   -0.736142   0.639841
    17  N   -0.249867  -0.035175
    18  O   -0.178779   0.014967
    19  H    0.142385   0.039529
    20  H    0.045032   0.078094
    21  H    0.108130   0.032976
    22  H   -0.152182   0.269378
    23  H    0.029556   0.124094
    24  H   -0.189124   0.473582
    25  H   -0.007177   0.197608
    26  H    0.205734  -0.107748
    27  H    0.137638   0.017283
    28  H    0.165532   0.000290
    29  H    0.146709   0.003841
    30  H    0.192322   0.058115
    31  H    0.115072   0.045836
    32  H    0.169196  -0.000684
    33  H   -0.054405   0.246344
    34  H    0.079374   0.101137
    35  H   -0.627901   0.804031
    36  H   -0.529296   0.712428
    37  H   -0.306141   0.451830
    38  H   -0.306799   0.556894
    39  H   -0.322288   0.573599
    40  H    0.183881   0.062955
 Sum of Mulliken charges =  -1.00000   1.00000

 Dipole moment (field-independent basis, Debye):
    X=              8.0560    Y=              3.7069    Z=              2.0281  Tot=              9.0968
 Quadrupole moment (field-independent basis, Debye-Ang):
   XX=           -237.0894   YY=           -170.1225   ZZ=           -152.4931
   XY=            -25.3898   XZ=              8.1790   YZ=             -3.1222

 Summary of Natural Population Analysis:

                                       Natural Population
                Natural  -----------------------------------------------
    Atom  No    Charge         Core      Valence    Rydberg      Total
 -----------------------------------------------------------------------
      C    1   -0.29155      0.99966     2.28661    0.00528     3.29155
      C    2   -0.19240      0.99960     2.18272    0.01007     3.19240
      C    3   -0.16625      0.99955     2.15149    0.01522     3.16625
      C    4   -0.09058      0.99957     2.07738    0.01363     3.09058
      N    5   -0.29131      0.99970     2.77830    0.01331     3.79131
      C    6   -0.09067      0.99960     2.08123    0.00984     3.09067
      C    7   -0.24943      0.99958     2.24075    0.00910     3.24943
      S    8    0.08280      4.99962     2.90114    0.01645     7.91720
      C    9   -0.07915      0.99959     2.06782    0.01174     3.07915
      C   10    0.05105      0.99951     1.93592    0.01352     2.94895
      C   11   -0.06578      0.99948     2.05405    0.01224     3.06578
      C   12   -0.09232      0.99951     2.08278    0.01003     3.09232
      C   13   -0.12088      0.99952     2.11074    0.01062     3.12088
      C   14    0.08918      0.99949     1.89902    0.01231     2.91082
      C   15   -0.12203      0.99952     2.11193    0.01059     3.12203
      C   16   -0.08996      0.99951     2.08038    0.01007     3.08996
      N   17   -0.39142      0.99971     2.88125    0.01046     3.89142
      O   18   -0.37244      0.99990     3.36668    0.00586     4.37244
      H   19    0.10620      0.00000     0.39242    0.00139     0.39380
      H   20    0.09499      0.00000     0.40411    0.00089     0.40501
      H   21    0.09678      0.00000     0.40207    0.00115     0.40322
      H   22    0.09586      0.00000     0.40287    0.00128     0.40414
      H   23    0.09738      0.00000     0.40139    0.00123     0.40262
      H   24    0.10819      0.00000     0.39071    0.00110     0.39181
      H   25    0.09991      0.00000     0.39857    0.00153     0.40009
      H   26    0.08985      0.00000     0.40829    0.00186     0.41015
      H   27    0.10105      0.00000     0.39774    0.00121     0.39895
      H   28    0.09370      0.00000     0.40380    0.00250     0.40630
      H   29    0.09866      0.00000     0.39959    0.00175     0.40134
      H   30    0.10632      0.00000     0.39267    0.00102     0.39368
      H   31    0.09704      0.00000     0.40179    0.00117     0.40296
      H   32    0.09756      0.00000     0.40143    0.00101     0.40244
      H   33    0.08034      0.00000     0.41747    0.00219     0.41966
      H   34    0.10349      0.00000     0.39537    0.00114     0.39651
      H   35    0.10193      0.00000     0.39687    0.00120     0.39807
      H   36    0.10241      0.00000     0.39581    0.00178     0.39759
      H   37    0.10083      0.00000     0.39766    0.00151     0.39917
      H   38    0.18985      0.00000     0.30325    0.00690     0.31015
      H   39    0.19009      0.00000     0.30148    0.00843     0.30991
      H   40    0.23069      0.00000     0.26671    0.00259     0.26931
 =======================================================================
   * Total *    0.00000     21.99260    49.76224    0.24516    72.00000

 Normal termination of Gaussian 16 at Fri Dec 11 23:17:38 2020.
