 Gaussian 16, Revision A.03,

 -----------------------------------------------------------
 # opt freq B3LYP/6-31G(d) empiricaldispersion=gd3bj scf=xqc
 -----------------------------------------------------------

 -------------------------------
 CID_131478371_JID_5041_neutraal
 -------------------------------
 Symbolic Z-matrix:
 Charge =  0 Multiplicity = 1

 SCF Done:  E(RB3LYP) =  -1003.10957911     A.U. after   16 cycles
 SCF Done:  E(RB3LYP) =  -1003.11677572     A.U. after   14 cycles
 SCF Done:  E(RB3LYP) =  -1003.11998607     A.U. after   15 cycles
 SCF Done:  E(RB3LYP) =  -1003.12186648     A.U. after   15 cycles
 SCF Done:  E(RB3LYP) =  -1003.12237914     A.U. after   13 cycles
 SCF Done:  E(RB3LYP) =  -1003.12247008     A.U. after   11 cycles
 SCF Done:  E(RB3LYP) =  -1003.12248070     A.U. after   10 cycles
 SCF Done:  E(RB3LYP) =  -1003.12248474     A.U. after    9 cycles
 SCF Done:  E(RB3LYP) =  -1003.12248621     A.U. after    8 cycles
 SCF Done:  E(RB3LYP) =  -1003.12248719     A.U. after    8 cycles
 SCF Done:  E(RB3LYP) =  -1003.12248941     A.U. after    8 cycles
 SCF Done:  E(RB3LYP) =  -1003.12248958     A.U. after    8 cycles
 SCF Done:  E(RB3LYP) =  -1003.12248965     A.U. after    7 cycles
 SCF Done:  E(RB3LYP) =  -1003.12248972     A.U. after    8 cycles
 SCF Done:  E(RB3LYP) =  -1003.12248976     A.U. after    7 cycles
 SCF Done:  E(RB3LYP) =  -1003.12248978     A.U. after    7 cycles
 Optimization completed.
    -- Stationary point found.
 Normal termination of Gaussian 16 at Thu Dec 10 14:46:25 2020.

 --------------------------------------------------------------------
 #N Geom=AllCheck Guess=TCheck SCRF=Check GenChk RB3LYP/6-31G(d) Freq
 --------------------------------------------------------------------

 Structure from the checkpoint file:  "JID_5041.chk"
 -------------------------------
 CID_131478371_JID_5041_neutraal
 -------------------------------
 Charge =  0 Multiplicity = 1

 SCF Done:  E(RB3LYP) =  -1003.12248978     A.U. after    1 cycles

  Exact polarizability: 249.048  -0.750 163.439  -0.091  -0.106  58.667
 Approx polarizability: 368.830   0.770 300.245   0.048   0.738  93.230

                      1                      2                      3
                      A                      A                      A
 Frequencies --     36.4980                69.4452                84.5355
 Red. masses --      5.0415                 5.0881                 6.3313
 Frc consts  --      0.0040                 0.0145                 0.0267
 IR Inten    --      0.9121                 0.2793                 0.4958

                      4                      5                      6
                      A                      A                      A
 Frequencies --     93.5335               132.7364               144.2362
 Red. masses --      1.1006                 6.1837                 7.5309
 Frc consts  --      0.0057                 0.0642                 0.0923
 IR Inten    --      0.4729                 3.2959                 3.4132

                      7                      8                      9
                      A                      A                      A
 Frequencies --    176.6561               194.9508               273.2032
 Red. masses --      5.2791                 5.3916                 3.7325
 Frc consts  --      0.0971                 0.1207                 0.1641
 IR Inten    --      3.6738                 2.9009                 0.3818

                     10                     11                     12
                      A                      A                      A
 Frequencies --    292.5854               302.8142               320.8707
 Red. masses --      7.7640                 4.3255                 1.2546
 Frc consts  --      0.3916                 0.2337                 0.0761
 IR Inten    --      0.4497                10.7736               327.4559

                     13                     14                     15
                      A                      A                      A
 Frequencies --    356.5975               404.3217               446.8138
 Red. masses --      3.4983                11.1110                 4.4950
 Frc consts  --      0.2621                 1.0702                 0.5287
 IR Inten    --      8.9156                 2.7959                10.7189

                     16                     17                     18
                      A                      A                      A
 Frequencies --    486.8333               494.2651               525.3301
 Red. masses --     10.2323                 5.4493                 1.1313
 Frc consts  --      1.4288                 0.7843                 0.1840
 IR Inten    --      3.5625                 7.6083                 2.5908

                     19                     20                     21
                      A                      A                      A
 Frequencies --    575.1419               582.4328               617.8989
 Red. masses --      3.0729                 6.3350                 6.2806
 Frc consts  --      0.5989                 1.2662                 1.4128
 IR Inten    --      0.0156                 5.7661                 1.6371

                     22                     23                     24
                      A                      A                      A
 Frequencies --    622.4623               686.5138               687.6533
 Red. masses --      4.9857                 6.3536                 8.9146
 Frc consts  --      1.1382                 1.7643                 2.4837
 IR Inten    --      1.2387                 0.6982                 3.5598

                     25                     26                     27
                      A                      A                      A
 Frequencies --    703.8478               751.7386               794.0964
 Red. masses --      3.5609                 6.8029                 3.1085
 Frc consts  --      1.0394                 2.2651                 1.1549
 IR Inten    --      0.7715                 0.2409                24.6077

                     28                     29                     30
                      A                      A                      A
 Frequencies --    814.7209               823.4424               843.7966
 Red. masses --      1.3670                 8.2548                 1.9904
 Frc consts  --      0.5346                 3.2978                 0.8350
 IR Inten    --     16.6987                28.7329                30.5732

                     31                     32                     33
                      A                      A                      A
 Frequencies --    894.7971               988.6053               997.1086
 Red. masses --      1.4259                 5.9124                 2.0434
 Frc consts  --      0.6727                 3.4046                 1.1970
 IR Inten    --      0.0525                 1.7389                 5.6388

                     34                     35                     36
                      A                      A                      A
 Frequencies --   1026.3288              1069.6057              1072.6430
 Red. masses --      2.6452                 1.4144                 2.8899
 Frc consts  --      1.6416                 0.9534                 1.9590
 IR Inten    --      3.0291                 1.6105                 8.6117

                     37                     38                     39
                      A                      A                      A
 Frequencies --   1091.3750              1148.1560              1194.6579
 Red. masses --      1.4750                 2.4381                 4.1481
 Frc consts  --      1.0351                 1.8937                 3.4881
 IR Inten    --     10.4365                14.5700                19.8638

                     40                     41                     42
                      A                      A                      A
 Frequencies --   1214.8782              1269.5306              1302.7170
 Red. masses --      1.6820                 1.4336                 8.7903
 Frc consts  --      1.4626                 1.3613                 8.7893
 IR Inten    --      4.0137                15.7094                54.4419

                     43                     44                     45
                      A                      A                      A
 Frequencies --   1375.4095              1399.5634              1443.8110
 Red. masses --      3.2313                 7.4511                 1.2414
 Frc consts  --      3.6016                 8.5992                 1.5247
 IR Inten    --      7.9423               118.0901                 8.1041

                     46                     47                     48
                      A                      A                      A
 Frequencies --   1474.2538              1492.9228              1507.4924
 Red. masses --      3.9668                 3.3605                 1.0421
 Frc consts  --      5.0796                 4.4129                 1.3953
 IR Inten    --      7.8365               105.9483                 8.2101

                     49                     50                     51
                      A                      A                      A
 Frequencies --   1513.9058              1541.8301              1595.1017
 Red. masses --      1.3626                 2.8317                 5.2366
 Frc consts  --      1.8400                 3.9661                 7.8501
 IR Inten    --     41.9882               178.0132               209.9717

                     52                     53                     54
                      A                      A                      A
 Frequencies --   1606.8722              1618.8871              1668.1663
 Red. masses --      5.4716                 5.6938                 1.7441
 Frc consts  --      8.3239                 8.7919                 2.8595
 IR Inten    --    274.4824               376.2199               515.8393

                     55                     56                     57
                      A                      A                      A
 Frequencies --   2365.2065              3048.8502              3102.0057
 Red. masses --     12.6892                 1.0365                 1.1015
 Frc consts  --     41.8238                 5.6764                 6.2450
 IR Inten    --      1.6348                34.7368                12.4458

                     58                     59                     60
                      A                      A                      A
 Frequencies --   3133.9926              3215.1694              3231.1057
 Red. masses --      1.1012                 1.0896                 1.0968
 Frc consts  --      6.3727                 6.6365                 6.7464
 IR Inten    --     11.7212                12.6492                 5.3277

                     61                     62                     63
                      A                      A                      A
 Frequencies --   3255.0551              3611.5632              3736.9637
 Red. masses --      1.0925                 1.0450                 1.1048
 Frc consts  --      6.8198                 8.0309                 9.0905
 IR Inten    --      0.2563                99.8921                46.5936

 - Thermochemistry -
 -------------------
 Temperature   298.150 Kelvin.  Pressure   1.00000 Atm.
 Atom     1 has atomic number  6 and mass  12.00000

 Molecular mass:   216.04697 amu.
 Principal axes and moments of inertia in atomic units:
                           1         2         3
     Eigenvalues --  1531.424816142.850467662.49919
           X            0.99986   0.01643  -0.00034
           Y           -0.01643   0.99986  -0.00248
           Z            0.00030   0.00248   1.00000
 This molecule is an asymmetric top.
 Rotational symmetry number  1.
 Warning -- assumption of classical behavior for rotation
           may cause significant error
 Rotational temperatures (Kelvin)      0.05656     0.01410     0.01130
 Rotational constants (GHZ):           1.17847     0.29380     0.23553
 Zero-point vibrational energy     439917.7 (Joules/Mol)
                                  105.14286 (Kcal/Mol)
 Warning -- explicit consideration of  21 degrees of freedom as
           vibrations may cause significant error
 Vibrational temperatures:     52.51    99.92   121.63   134.57   190.98
          (Kelvin)            207.52   254.17   280.49   393.08   420.97
                              435.68   461.66   513.06   581.73   642.87
                              700.44   711.14   755.83   827.50   837.99
                              889.02   895.58   987.74   989.38  1012.68
                             1081.58  1142.53  1172.20  1184.75  1214.04
                             1287.41  1422.38  1434.62  1476.66  1538.92
                             1543.29  1570.25  1651.94  1718.85  1747.94
                             1826.57  1874.32  1978.91  2013.66  2077.32
                             2121.12  2147.98  2168.95  2178.17  2218.35
                             2295.00  2311.93  2329.22  2400.12  3403.00
                             4386.62  4463.09  4509.12  4625.91  4648.84
                             4683.30  5196.23  5376.66

 Zero-point correction=                           0.167556 (Hartree/Particle)
 Thermal correction to Energy=                    0.181099
 Thermal correction to Enthalpy=                  0.182043
 Thermal correction to Gibbs Free Energy=         0.126380
 Sum of electronic and zero-point Energies=          -1002.954934
 Sum of electronic and thermal Energies=             -1002.941391
 Sum of electronic and thermal Enthalpies=           -1002.940446
 Sum of electronic and thermal Free Energies=        -1002.996110

                     E (Thermal)             CV                S
                      KCal/Mol        Cal/Mol-Kelvin    Cal/Mol-Kelvin
 Total                  113.641             50.449            117.153
 Electronic               0.000              0.000              0.000
 Translational            0.889              2.981             42.014
 Rotational               0.889              2.981             32.644
 Vibrational            111.864             44.488             42.495
 Vibration     1          0.594              1.982              5.441
 Vibration     2          0.598              1.969              4.169
 Vibration     3          0.601              1.960              3.783
 Vibration     4          0.603              1.954              3.585
 Vibration     5          0.613              1.921              2.906
 Vibration     6          0.616              1.909              2.747
 Vibration     7          0.628              1.871              2.363
 Vibration     8          0.636              1.847              2.180
 Vibration     9          0.676              1.723              1.576
 Vibration    10          0.688              1.688              1.459
 Vibration    11          0.694              1.668              1.401
 Vibration    12          0.706              1.634              1.306
 Vibration    13          0.732              1.562              1.137
 Vibration    14          0.770              1.461              0.947
 Vibration    15          0.806              1.368              0.805
 Vibration    16          0.843              1.279              0.692
 Vibration    17          0.850              1.263              0.673
 Vibration    18          0.880              1.194              0.598
 Vibration    19          0.931              1.085              0.494
 Vibration    20          0.939              1.069              0.481
 Vibration    21          0.978              0.994              0.420

 Optimization completed.
    -- Stationary point found.
 Normal termination of Gaussian 16 at Thu Dec 10 14:52:09 2020.

 ----------------------------------------------------------------------
 # B3LYP/6-311++G(d,p) empiricaldispersion=gd3bj scf=xqc pop=npa geom=c
 heck
 ----------------------------------------------------------------------

 ---------------------------------------
 CID_131478371_JID_5041_Energie_neutraal
 ---------------------------------------
 Structure from the checkpoint file:  "JID_5041.chk"
 Charge =  0 Multiplicity = 1

 SCF Done:  E(RB3LYP) =  -1003.31176798     A.U. after   16 cycles
 Normal termination of Gaussian 16 at Thu Dec 10 14:54:30 2020.

 ----------------------------------------------------------------------
 # B3LYP/6-311++G(d,p) empiricaldispersion=gd3bj scf=xqc pop=npa geom=c
 heck
 ----------------------------------------------------------------------

 -------------------------------------
 CID_131478371_JID_5041_Energie_kation
 -------------------------------------
 Structure from the checkpoint file:  "JID_5041.chk"
 Charge =  1 Multiplicity = 2

 SCF Done:  E(UB3LYP) =  -1003.01403879     A.U. after   23 cycles
 Normal termination of Gaussian 16 at Thu Dec 10 14:59:08 2020.
 Gaussian 16:  ES64L-G16RevA.03 25-Dec-2016

 ----------------------------------------------------------------------
 # B3LYP/6-311++G(d,p) empiricaldispersion=gd3bj scf=xqc pop=npa geom=c
 heck
 ----------------------------------------------------------------------

 ------------------------------------
 CID_131478371_JID_5041_Energie_anion
 ------------------------------------
 Structure from the checkpoint file:  "JID_5041.chk"
 Charge = -1 Multiplicity = 2

                         Standard orientation:
 ---------------------------------------------------------------------
 Center     Atomic      Atomic             Coordinates (Angstroms)
 Number     Number       Type             X           Y           Z
 ---------------------------------------------------------------------
      1          6           0       -4.965571    0.139866   -0.007614
      2          6           0       -3.533744   -0.299171   -0.003312
      3          6           0       -3.046824   -1.584724   -0.000126
      4          6           0       -1.628805   -1.648716    0.003837
      5          6           0       -1.031388   -0.407373    0.003910
      6         16           0       -2.236010    0.863336   -0.000874
      7          6           0        0.379007   -0.059715    0.007385
      8          7           0        0.679093    1.247023    0.001891
      9          6           0        1.982651    1.581550    0.005180
     10          7           0        3.029907    0.734055   -0.002390
     11          6           0        2.699429   -0.564193    0.003053
     12          6           0        1.391327   -1.038701    0.012848
     13          6           0        3.792786   -1.509054   -0.005944
     14          7           0        4.647621   -2.295246   -0.014017
     15          7           0        2.273249    2.909253    0.042940
     16          1           0       -5.206891    0.744667    0.874498
     17          1           0       -5.202565    0.741994   -0.892740
     18          1           0       -5.622838   -0.734614   -0.007915
     19          1           0       -3.690985   -2.457548   -0.000553
     20          1           0       -1.072326   -2.579129    0.006637
     21          1           0        1.179434   -2.099136    0.016202
     22          1           0        1.526281    3.559166   -0.148177
     23          1           0        3.223746    3.187024   -0.148240
 ---------------------------------------------------------------------

 SCF Done:  E(UB3LYP) =  -1003.34946146     A.U. after   23 cycles

 The electronic state is 2-A.
 Alpha  occ. eigenvalues --  -88.73986 -14.20618 -14.17432 -14.15540 -14.15155
 Alpha  occ. eigenvalues --  -10.13582 -10.09196 -10.07683 -10.07362 -10.07326
 Alpha  occ. eigenvalues --  -10.07315 -10.06691 -10.05152 -10.04591 -10.04168
 Alpha  occ. eigenvalues --   -7.82607  -5.78896  -5.78537  -5.78211  -0.86374
 Alpha  occ. eigenvalues --   -0.78437  -0.77327  -0.75855  -0.74174  -0.66044
 Alpha  occ. eigenvalues --   -0.63940  -0.60888  -0.57923  -0.53584  -0.51627
 Alpha  occ. eigenvalues --   -0.45781  -0.43304  -0.41465  -0.39983  -0.36313
 Alpha  occ. eigenvalues --   -0.35327  -0.34511  -0.32657  -0.32539  -0.31745
 Alpha  occ. eigenvalues --   -0.31054  -0.27486  -0.26222  -0.25423  -0.24681
 Alpha  occ. eigenvalues --   -0.24302  -0.23641  -0.21736  -0.20528  -0.20025
 Alpha  occ. eigenvalues --   -0.17557  -0.17383  -0.13182  -0.11644  -0.11558
 Alpha  occ. eigenvalues --   -0.09390   0.01793
 Alpha virt. eigenvalues --    0.07048   0.08458   0.08583   0.09113   0.10491
 Alpha virt. eigenvalues --    0.10884   0.11595   0.12403   0.13324   0.13557
 Alpha virt. eigenvalues --    0.14066   0.14508   0.15170   0.15558   0.16078

  Beta  occ. eigenvalues --  -88.73961 -14.20632 -14.17218 -14.15146 -14.14780
  Beta  occ. eigenvalues --  -10.13653 -10.08932 -10.07705 -10.07347 -10.07043
  Beta  occ. eigenvalues --  -10.07038 -10.06725 -10.05250 -10.04732 -10.03940
  Beta  occ. eigenvalues --   -7.82585  -5.78886  -5.78528  -5.78124  -0.85983
  Beta  occ. eigenvalues --   -0.78210  -0.76968  -0.75501  -0.73559  -0.65712
  Beta  occ. eigenvalues --   -0.63678  -0.60718  -0.57488  -0.53244  -0.51472
  Beta  occ. eigenvalues --   -0.45540  -0.43094  -0.41304  -0.39818  -0.36195
  Beta  occ. eigenvalues --   -0.35147  -0.34346  -0.32366  -0.32342  -0.31652
  Beta  occ. eigenvalues --   -0.29992  -0.27310  -0.26076  -0.24732  -0.24528
  Beta  occ. eigenvalues --   -0.23498  -0.23327  -0.21576  -0.20399  -0.19126
  Beta  occ. eigenvalues --   -0.17026  -0.15646  -0.12526  -0.11189  -0.10553
  Beta  occ. eigenvalues --   -0.08374
  Beta virt. eigenvalues --    0.07013   0.07424   0.08482   0.09086   0.09553
  Beta virt. eigenvalues --    0.10470   0.11056   0.11571   0.12379   0.13313
  Beta virt. eigenvalues --    0.14058   0.14209   0.14503   0.15237   0.15582

 Mulliken charges and spin densities:
               1          2
     1  C   -0.584410  -0.023520
     2  C   -0.217854   0.157569
     3  C    0.021360  -0.056232
     4  C    0.231223   0.178772
     5  C    0.666012  -0.068648
     6  S   -0.438803   0.059650
     7  C   -0.130141   0.180857
     8  N   -0.144351   0.191236
     9  C    0.317143  -0.019862
    10  N   -0.205046   0.187890
    11  C    0.980264   0.194381
    12  C   -0.496412  -0.046604
    13  C   -1.622910  -0.077087
    14  N   -0.310999   0.110865
    15  N   -0.314488  -0.004111
    16  H    0.127839   0.016099
    17  H    0.126846   0.017015
    18  H    0.135798   0.000465
    19  H    0.123409   0.004094
    20  H    0.076343  -0.011366
    21  H    0.154781   0.008724
    22  H    0.249887  -0.000024
    23  H    0.254508  -0.000163
 Sum of Mulliken charges =  -1.00000   1.00000

 Dipole moment (field-independent basis, Debye):
    X=             -7.3046    Y=              2.8663    Z=             -0.5158  Tot=              7.8638
 Quadrupole moment (field-independent basis, Debye-Ang):
   XX=           -157.8341   YY=           -105.2674   ZZ=           -103.2822
   XY=             19.9355   XZ=             -1.2613   YZ=             -2.2218

 Summary of Natural Population Analysis:

                                       Natural Population
                Natural  -----------------------------------------------
    Atom  No    Charge         Core      Valence    Rydberg      Total
 -----------------------------------------------------------------------
      C    1   -0.29856      0.99962     2.29374    0.00519     3.29856
      C    2   -0.05261      0.99952     2.04173    0.01136     3.05261
      C    3   -0.16128      0.99948     2.15216    0.00964     3.16128
      C    4   -0.07013      0.99949     2.06199    0.00865     3.07013
      C    5   -0.11950      0.99947     2.10702    0.01301     3.11950
      S    6    0.21897      4.99939     2.76067    0.02097     7.78103
      C    7    0.15892      0.99936     1.82815    0.01357     2.84108
      N    8   -0.22704      0.99964     2.71674    0.01066     3.72704
      C    9    0.28225      0.99965     1.70012    0.01799     2.71775
      N   10   -0.22065      0.99964     2.70948    0.01153     3.72065
      C   11    0.08540      0.99945     1.90065    0.01450     2.91460
      C   12   -0.15697      0.99944     2.15073    0.00680     3.15697
      C   13    0.14764      0.99963     1.83398    0.01874     2.85236
      N   14   -0.16798      0.99979     2.65653    0.01166     3.66798
      N   15   -0.40195      0.99969     2.89306    0.00920     3.90195
      H   16    0.10181      0.00000     0.39709    0.00110     0.39819
      H   17    0.10173      0.00000     0.39717    0.00110     0.39827
      H   18    0.09974      0.00000     0.39930    0.00096     0.40026
      H   19    0.09601      0.00000     0.40288    0.00111     0.40399
      H   20    0.09802      0.00000     0.40091    0.00107     0.40198
      H   21    0.10379      0.00000     0.39511    0.00110     0.39621
      H   22    0.19148      0.00000     0.30724    0.00127     0.30852
      H   23    0.19096      0.00000     0.30778    0.00126     0.30904
 =======================================================================
   * Total *    0.00005     18.99328    36.81422    0.19245    55.99995

 Normal termination of Gaussian 16 at Thu Dec 10 15:04:34 2020.
