 Gaussian 16, Revision A.03,

 -----------------------------------------------------------
 # opt freq B3LYP/6-31G(d) empiricaldispersion=gd3bj scf=xqc
 -----------------------------------------------------------

 ------------------------------
 CID_80477000_JID_5781_neutraal
 ------------------------------
 Symbolic Z-matrix:
 Charge =  0 Multiplicity = 1

 SCF Done:  E(RB3LYP) =  -1006.69775693     A.U. after   15 cycles
 SCF Done:  E(RB3LYP) =  -1006.70194940     A.U. after   12 cycles
 SCF Done:  E(RB3LYP) =  -1006.70253699     A.U. after   12 cycles
 SCF Done:  E(RB3LYP) =  -1006.70272827     A.U. after   12 cycles
 SCF Done:  E(RB3LYP) =  -1006.70291657     A.U. after   12 cycles
 SCF Done:  E(RB3LYP) =  -1006.70309256     A.U. after   13 cycles
 SCF Done:  E(RB3LYP) =  -1006.70316691     A.U. after   12 cycles
 SCF Done:  E(RB3LYP) =  -1006.70330649     A.U. after   12 cycles
 SCF Done:  E(RB3LYP) =  -1006.70337097     A.U. after   12 cycles
 SCF Done:  E(RB3LYP) =  -1006.70337757     A.U. after   11 cycles
 SCF Done:  E(RB3LYP) =  -1006.70340852     A.U. after    9 cycles
 SCF Done:  E(RB3LYP) =  -1006.70340909     A.U. after    9 cycles
 SCF Done:  E(RB3LYP) =  -1006.70340892     A.U. after    9 cycles
 SCF Done:  E(RB3LYP) =  -1006.70340923     A.U. after    9 cycles
 SCF Done:  E(RB3LYP) =  -1006.70340929     A.U. after    7 cycles
 Optimization completed.
    -- Stationary point found.
 Normal termination of Gaussian 16 at Thu Dec 10 17:00:23 2020.

 --------------------------------------------------------------------
 #N Geom=AllCheck Guess=TCheck SCRF=Check GenChk RB3LYP/6-31G(d) Freq
 --------------------------------------------------------------------

 Structure from the checkpoint file:  "JID_5781.chk"
 ------------------------------
 CID_80477000_JID_5781_neutraal
 ------------------------------
 Charge =  0 Multiplicity = 1

 SCF Done:  E(RB3LYP) =  -1006.70340929     A.U. after    1 cycles

  Exact polarizability: 176.773 -10.759 141.357 -11.688  -7.066 103.283
 Approx polarizability: 247.173 -19.383 219.038 -24.925 -24.692 186.248

                      1                      2                      3
                      A                      A                      A
 Frequencies --     25.3004                49.9130                62.2130
 Red. masses --      4.9770                 4.6855                 1.1148
 Frc consts  --      0.0019                 0.0069                 0.0025
 IR Inten    --      1.2875                 1.4832                 0.2278

                      4                      5                      6
                      A                      A                      A
 Frequencies --     71.3801                77.0776                87.1116
 Red. masses --      2.4416                 2.3210                 4.6525
 Frc consts  --      0.0073                 0.0081                 0.0208
 IR Inten    --      0.5115                 0.7414                 0.3416

                      7                      8                      9
                      A                      A                      A
 Frequencies --     92.6089               174.9194               183.3245
 Red. masses --      3.7580                 3.0007                 4.0113
 Frc consts  --      0.0190                 0.0541                 0.0794
 IR Inten    --      0.3085                 0.8589                 2.1598

                     10                     11                     12
                      A                      A                      A
 Frequencies --    233.6934               246.5355               264.7208
 Red. masses --      3.3933                 6.0784                 1.3108
 Frc consts  --      0.1092                 0.2177                 0.0541
 IR Inten    --      1.5483                 1.3020                 1.5657

                     13                     14                     15
                      A                      A                      A
 Frequencies --    289.8235               316.2233               340.9486
 Red. masses --      4.6359                 3.6598                 4.5843
 Frc consts  --      0.2294                 0.2156                 0.3140
 IR Inten    --      0.5474                 1.8018                 1.7410

                     16                     17                     18
                      A                      A                      A
 Frequencies --    412.3268               490.1974               582.8264
 Red. masses --      3.2058                 4.2988                 5.4079
 Frc consts  --      0.3211                 0.6086                 1.0823
 IR Inten    --      2.8244                 0.8413                 0.1505

                     19                     20                     21
                      A                      A                      A
 Frequencies --    598.6969               626.0012               641.7579
 Red. masses --      6.2797                 3.9897                 4.8688
 Frc consts  --      1.3262                 0.9212                 1.1814
 IR Inten    --      0.7346                 4.6901                12.6759

                     22                     23                     24
                      A                      A                      A
 Frequencies --    666.8129               701.8690               731.2597
 Red. masses --      4.6896                 4.2379                 6.0294
 Frc consts  --      1.2285                 1.2300                 1.8996
 IR Inten    --     11.1855                 5.3883                 4.1988

                     25                     26                     27
                      A                      A                      A
 Frequencies --    758.4919               786.0407               805.3286
 Red. masses --      2.4453                 1.1975                 1.4739
 Frc consts  --      0.8289                 0.4359                 0.5632
 IR Inten    --     17.5045                25.0687                20.7941

                     28                     29                     30
                      A                      A                      A
 Frequencies --    821.0195               830.0931               851.5258
 Red. masses --      1.7119                 1.7208                 2.0034
 Frc consts  --      0.6799                 0.6986                 0.8559
 IR Inten    --     54.9750                 6.7750                53.6952

                     31                     32                     33
                      A                      A                      A
 Frequencies --    875.5085               878.5833               888.7827
 Red. masses --      1.7309                 2.8541                 1.5252
 Frc consts  --      0.7817                 1.2980                 0.7099
 IR Inten    --      8.1540                47.7368                 6.0573

                     34                     35                     36
                      A                      A                      A
 Frequencies --    950.3644              1008.7413              1035.0989
 Red. masses --      1.5365                 3.5746                 3.8010
 Frc consts  --      0.8177                 2.1431                 2.3995
 IR Inten    --     13.8703                39.5233                16.8026

                     37                     38                     39
                      A                      A                      A
 Frequencies --   1058.4047              1080.8658              1116.3314
 Red. masses --      3.2848                 1.5377                 3.4625
 Frc consts  --      2.1680                 1.0584                 2.5423
 IR Inten    --      3.2189                10.1220                 4.2141

                     40                     41                     42
                      A                      A                      A
 Frequencies --   1131.7346              1154.9007              1158.4163
 Red. masses --      2.7901                 2.2470                 1.5883
 Frc consts  --      2.1055                 1.7658                 1.2558
 IR Inten    --     40.7596                 9.7523                 7.3351

                     43                     44                     45
                      A                      A                      A
 Frequencies --   1160.2993              1183.6291              1195.7687
 Red. masses --      1.8881                 1.7372                 1.7196
 Frc consts  --      1.4977                 1.4339                 1.4487
 IR Inten    --     21.4895                22.0662                 5.8126

                     46                     47                     48
                      A                      A                      A
 Frequencies --   1231.7093              1263.7665              1298.7977
 Red. masses --      1.4858                 1.2894                 1.2532
 Frc consts  --      1.3281                 1.2133                 1.2456
 IR Inten    --      3.4792                39.5412                 9.5136

                     49                     50                     51
                      A                      A                      A
 Frequencies --   1321.5498              1343.6689              1345.8323
 Red. masses --      1.6839                 1.5149                 2.9570
 Frc consts  --      1.7328                 1.6114                 3.1556
 IR Inten    --     12.5556                10.9856                12.8302

                     52                     53                     54
                      A                      A                      A
 Frequencies --   1381.8918              1404.9881              1418.5818
 Red. masses --      1.5936                 2.6286                 1.8463
 Frc consts  --      1.7930                 3.0571                 2.1890
 IR Inten    --      8.4580                 6.2244                 2.0855

                     55                     56                     57
                      A                      A                      A
 Frequencies --   1431.5029              1443.3549              1468.9084
 Red. masses --      3.8948                 1.3451                 1.7451
 Frc consts  --      4.7024                 1.6510                 2.2185
 IR Inten    --     26.9245                 7.8767                20.5372

                     58                     59                     60
                      A                      A                      A
 Frequencies --   1471.9752              1491.8997              1503.2163
 Red. masses --      6.8016                 1.9591                 1.1620
 Frc consts  --      8.6828                 2.5691                 1.5470
 IR Inten    --     33.6746                11.7170                27.4841

                     61                     62                     63
                      A                      A                      A
 Frequencies --   1509.6265              1526.1665              1530.0949
 Red. masses --      1.0620                 1.0604                 1.0621
 Frc consts  --      1.4260                 1.4553                 1.4650
 IR Inten    --      8.0337                15.8340                 1.2595

                     64                     65                     66
                      A                      A                      A
 Frequencies --   1546.4990              1551.5858              1568.3220
 Red. masses --      1.1912                 1.0901                 5.2619
 Frc consts  --      1.6786                 1.5462                 7.6254
 IR Inten    --      5.8068                 4.1332                14.0493

                     67                     68                     69
                      A                      A                      A
 Frequencies --   1612.8539              2983.0864              3022.1026
 Red. masses --      5.2520                 1.0700                 1.0834
 Frc consts  --      8.0495                 5.6099                 5.8297
 IR Inten    --     16.1358                48.9311                17.0822

                     70                     71                     72
                      A                      A                      A
 Frequencies --   3047.8548              3056.3764              3065.7422
 Red. masses --      1.0432                 1.0843                 1.0373
 Frc consts  --      5.7093                 5.9680                 5.7440
 IR Inten    --     19.1293                31.2057                56.1091

                     73                     74                     75
                      A                      A                      A
 Frequencies --   3113.4705              3133.5146              3138.2437
 Red. masses --      1.0997                 1.1034                 1.0993
 Frc consts  --      6.2810                 6.3833                 6.3790
 IR Inten    --     41.1452                28.0939                15.8345

                     76                     77                     78
                      A                      A                      A
 Frequencies --   3170.5547              3237.1223              3246.7046
 Red. masses --      1.1057                 1.0926                 1.0945
 Frc consts  --      6.5486                 6.7455                 6.7973
 IR Inten    --      7.9669                 7.2802                 0.8670

                     79                     80                     81
                      A                      A                      A
 Frequencies --   3264.4305              3294.9767              3474.4498
 Red. masses --      1.0959                 1.0976                 1.0736
 Frc consts  --      6.8811                 7.0210                 7.6361
 IR Inten    --      3.8914                 0.1156                 0.2681

 - Thermochemistry -
 -------------------
 Temperature   298.150 Kelvin.  Pressure   1.00000 Atm.
 Atom     1 has atomic number  6 and mass  12.00000

 Molecular mass:   222.09392 amu.
 Principal axes and moments of inertia in atomic units:
                           1         2         3
     Eigenvalues --  2456.109655086.425326901.67826
           X            0.99985   0.01749  -0.00174
           Y           -0.01747   0.99981   0.00844
           Z            0.00189  -0.00841   0.99996
 This molecule is an asymmetric top.
 Rotational symmetry number  1.
 Warning -- assumption of classical behavior for rotation
           may cause significant error
 Rotational temperatures (Kelvin)      0.03526     0.01703     0.01255
 Rotational constants (GHZ):           0.73480     0.35482     0.26149
 Zero-point vibrational energy     625724.1 (Joules/Mol)
                                  149.55164 (Kcal/Mol)
 Warning -- explicit consideration of  19 degrees of freedom as
           vibrations may cause significant error
 Vibrational temperatures:     36.40    71.81    89.51   102.70   110.90
          (Kelvin)            125.33   133.24   251.67   263.76   336.23
                              354.71   380.87   416.99   454.97   490.55
                              593.25   705.28   838.56   861.39   900.68
                              923.35   959.39  1009.83  1052.12  1091.30
                             1130.94  1158.69  1181.26  1194.32  1225.16
                             1259.66  1264.09  1278.76  1367.36  1451.35
                             1489.28  1522.81  1555.12  1606.15  1628.31
                             1661.64  1666.70  1669.41  1702.98  1720.44
                             1772.15  1818.28  1868.68  1901.42  1933.24
                             1936.35  1988.23  2021.46  2041.02  2059.61
                             2076.67  2113.43  2117.84  2146.51  2162.79
                             2172.02  2195.81  2201.47  2225.07  2232.39
                             2256.47  2320.54  4292.00  4348.13  4385.18
                             4397.44  4410.92  4479.59  4508.43  4515.23
                             4561.72  4657.50  4671.28  4696.79  4740.74
                             4998.96

 Zero-point correction=                           0.238326 (Hartree/Particle)
 Thermal correction to Energy=                    0.253206
 Thermal correction to Enthalpy=                  0.254150
 Thermal correction to Gibbs Free Energy=         0.193963
 Sum of electronic and zero-point Energies=          -1006.465084
 Sum of electronic and thermal Energies=             -1006.450204
 Sum of electronic and thermal Enthalpies=           -1006.449259
 Sum of electronic and thermal Free Energies=        -1006.509447

                     E (Thermal)             CV                S
                      KCal/Mol        Cal/Mol-Kelvin    Cal/Mol-Kelvin
 Total                  158.889             53.899            126.675
 Electronic               0.000              0.000              0.000
 Translational            0.889              2.981             42.096
 Rotational               0.889              2.981             32.822
 Vibrational            157.112             47.937             51.756
 Vibration     1          0.593              1.985              6.167
 Vibration     2          0.595              1.978              4.821
 Vibration     3          0.597              1.972              4.386
 Vibration     4          0.598              1.968              4.115
 Vibration     5          0.599              1.964              3.964
 Vibration     6          0.601              1.958              3.724
 Vibration     7          0.602              1.954              3.604
 Vibration     8          0.627              1.873              2.382
 Vibration     9          0.631              1.863              2.294
 Vibration    10          0.654              1.789              1.850
 Vibration    11          0.661              1.769              1.755
 Vibration    12          0.671              1.738              1.630
 Vibration    13          0.686              1.693              1.475
 Vibration    14          0.703              1.643              1.330
 Vibration    15          0.720              1.594              1.208
 Vibration    16          0.776              1.443              0.918
 Vibration    17          0.846              1.272              0.683
 Vibration    18          0.940              1.068              0.480
 Vibration    19          0.957              1.035              0.452

 Optimization completed.
    -- Stationary point found.
 Normal termination of Gaussian 16 at Thu Dec 10 17:10:33 2020.

 ----------------------------------------------------------------------
 # B3LYP/6-311++G(d,p) empiricaldispersion=gd3bj scf=xqc pop=npa geom=c
 heck
 ----------------------------------------------------------------------

 --------------------------------------
 CID_80477000_JID_5781_Energie_neutraal
 --------------------------------------
 Structure from the checkpoint file:  "JID_5781.chk"
 Charge =  0 Multiplicity = 1

 SCF Done:  E(RB3LYP) =  -1006.89496254     A.U. after   16 cycles
 Normal termination of Gaussian 16 at Thu Dec 10 17:15:12 2020.

 ----------------------------------------------------------------------
 # B3LYP/6-311++G(d,p) empiricaldispersion=gd3bj scf=xqc pop=npa geom=c
 heck
 ----------------------------------------------------------------------

 ------------------------------------
 CID_80477000_JID_5781_Energie_kation
 ------------------------------------
 Structure from the checkpoint file:  "JID_5781.chk"
 Charge =  1 Multiplicity = 2

 SCF Done:  E(UB3LYP) =  -1006.59603199     A.U. after   31 cycles
 Normal termination of Gaussian 16 at Thu Dec 10 17:25:50 2020.
 Gaussian 16:  ES64L-G16RevA.03 25-Dec-2016

 ----------------------------------------------------------------------
 # B3LYP/6-311++G(d,p) empiricaldispersion=gd3bj scf=xqc pop=npa geom=c
 heck
 ----------------------------------------------------------------------

 -----------------------------------
 CID_80477000_JID_5781_Energie_anion
 -----------------------------------
 Structure from the checkpoint file:  "JID_5781.chk"
 Charge = -1 Multiplicity = 2

                         Standard orientation:
 ---------------------------------------------------------------------
 Center     Atomic      Atomic             Coordinates (Angstroms)
 Number     Number       Type             X           Y           Z
 ---------------------------------------------------------------------
      1          6           0        1.343825    3.882298    0.502965
      2          6           0        1.422447    2.512587   -0.164259
      3          7           0        0.212067    1.742592    0.119396
      4          6           0        0.133896    0.425610   -0.533822
      5          6           0        1.198235   -0.553899   -0.072651
      6          6           0        1.212143   -1.338068    1.051552
      7          7           0        2.350669   -2.078649    1.277093
      8          6           0        3.221421   -1.876413    0.331822
      9         16           0        2.715514   -0.755868   -0.911304
     10          6           0       -1.250832   -0.133932   -0.332303
     11          6           0       -2.399455    0.599389   -0.082245
     12          7           0       -3.429445   -0.285098   -0.029725
     13          7           0       -3.024556   -1.561637   -0.222006
     14          6           0       -1.707306   -1.471998   -0.410124
     15          6           0       -4.815628   -0.018664    0.295046
     16          1           0        0.452043    4.422227    0.169410
     17          1           0        2.229102    4.481802    0.265609
     18          1           0        1.292345    3.784221    1.594570
     19          1           0        1.487551    2.632240   -1.253764
     20          1           0        2.346735    1.999112    0.150295
     21          1           0        0.130005    1.600435    1.126198
     22          1           0        0.291614    0.617392   -1.604439
     23          1           0        0.385255   -1.416143    1.747552
     24          1           0        4.194408   -2.351407    0.288136
     25          1           0       -2.537605    1.661421    0.050209
     26          1           0       -1.128060   -2.366244   -0.595735
     27          1           0       -5.451866   -0.635634   -0.342302
     28          1           0       -5.025389   -0.254356    1.344025
     29          1           0       -5.027981    1.036907    0.111900
 ---------------------------------------------------------------------

 SCF Done:  E(UB3LYP) =  -1006.88642739     A.U. after   33 cycles
 SCF Done:  E(UB3LYP) =  -1006.88642739     a.u. after    1 cycles

 The electronic state is 2-A.
 Alpha  occ. eigenvalues --  -88.76729 -14.28837 -14.22591 -14.20209 -14.20107
 Alpha  occ. eigenvalues --  -10.12107 -10.11050 -10.11012 -10.09921 -10.09747
 Alpha  occ. eigenvalues --  -10.08899 -10.08610 -10.08579 -10.06989 -10.06803
 Alpha  occ. eigenvalues --   -7.85401  -5.81658  -5.81326  -5.81040  -0.94856
 Alpha  occ. eigenvalues --   -0.84997  -0.81673  -0.74195  -0.70560  -0.68483
 Alpha  occ. eigenvalues --   -0.65490  -0.63153  -0.60556  -0.56624  -0.51753
 Alpha  occ. eigenvalues --   -0.49199  -0.47936  -0.46339  -0.45055  -0.42271
 Alpha  occ. eigenvalues --   -0.39564  -0.38108  -0.37609  -0.35985  -0.34720
 Alpha  occ. eigenvalues --   -0.33930  -0.32099  -0.31802  -0.31270  -0.30169
 Alpha  occ. eigenvalues --   -0.29855  -0.28822  -0.28084  -0.27474  -0.26885
 Alpha  occ. eigenvalues --   -0.25616  -0.24804  -0.19471  -0.17597  -0.16793
 Alpha  occ. eigenvalues --   -0.15721  -0.15372  -0.13731  -0.12718   0.04322
 Alpha virt. eigenvalues --    0.05993   0.06604   0.07757   0.08122   0.08714
 Alpha virt. eigenvalues --    0.09127   0.09731   0.10358   0.10776   0.10992
 Alpha virt. eigenvalues --    0.11254   0.11821   0.12297   0.12571   0.12853

  Beta  occ. eigenvalues --  -88.76697 -14.28834 -14.22585 -14.20182 -14.20070
  Beta  occ. eigenvalues --  -10.12111 -10.10999 -10.10761 -10.09899 -10.09743
  Beta  occ. eigenvalues --  -10.08744 -10.08591 -10.08580 -10.06986 -10.06776
  Beta  occ. eigenvalues --   -7.85372  -5.81646  -5.81315  -5.80929  -0.94848
  Beta  occ. eigenvalues --   -0.84797  -0.81610  -0.74174  -0.70462  -0.68363
  Beta  occ. eigenvalues --   -0.65408  -0.62942  -0.60459  -0.56557  -0.51702
  Beta  occ. eigenvalues --   -0.49129  -0.47724  -0.46211  -0.44907  -0.42205
  Beta  occ. eigenvalues --   -0.39486  -0.38044  -0.37569  -0.35905  -0.34672
  Beta  occ. eigenvalues --   -0.33888  -0.31986  -0.31694  -0.31199  -0.30107
  Beta  occ. eigenvalues --   -0.29494  -0.28617  -0.28002  -0.27396  -0.26838
  Beta  occ. eigenvalues --   -0.25569  -0.24674  -0.19450  -0.17027  -0.16701
  Beta  occ. eigenvalues --   -0.15515  -0.15165  -0.13634  -0.12192
  Beta virt. eigenvalues --    0.06626   0.07279   0.07755   0.08026   0.08365
  Beta virt. eigenvalues --    0.09232   0.09459   0.09952   0.10454   0.10902
  Beta virt. eigenvalues --    0.11253   0.11413   0.11994   0.12353   0.12786

 Mulliken charges and spin densities:
               1          2
     1  C    0.502647  -1.073459
     2  C   -0.349818   0.211537
     3  N    0.235089  -0.028649
     4  C   -0.714165  -0.245682
     5  C    0.706019  -0.126153
     6  C   -0.310866  -0.044528
     7  N   -0.053468   0.010884
     8  C   -0.234164   0.144779
     9  S   -0.318708   0.154377
    10  C    0.425686  -0.698139
    11  C   -0.572498   0.846402
    12  N    0.091102   0.066771
    13  N   -0.363700   0.207338
    14  C   -0.375651  -0.102686
    15  C    1.271339  -1.573349
    16  H   -0.103903   0.267960
    17  H   -0.051134   0.173946
    18  H   -0.152787   0.273238
    19  H   -0.036249   0.170080
    20  H    0.206204  -0.075516
    21  H    0.262717  -0.063979
    22  H    0.059902   0.153183
    23  H    0.124559   0.031713
    24  H    0.199803  -0.007913
    25  H   -0.430697   0.657392
    26  H    0.145388   0.013524
    27  H   -0.206338   0.371469
    28  H   -0.200525   0.373139
    29  H   -0.755783   0.912319
 Sum of Mulliken charges =  -1.00000   1.00000

 Dipole moment (field-independent basis, Debye):
    X=              6.6018    Y=             -1.7910    Z=             -1.2957  Tot=              6.9621
 Quadrupole moment (field-independent basis, Debye-Ang):
   XX=           -177.0291   YY=           -149.6241   ZZ=           -119.8338
   XY=              9.5621   XZ=             -3.8085   YZ=              2.9723

 Summary of Natural Population Analysis:

                                       Natural Population
                Natural  -----------------------------------------------
    Atom  No    Charge         Core      Valence    Rydberg      Total
 -----------------------------------------------------------------------
      C    1   -0.28780      0.99967     2.28259    0.00555     3.28780
      C    2   -0.08986      0.99964     2.07972    0.01050     3.08986
      N    3   -0.33212      0.99974     2.82043    0.01195     3.83212
      C    4   -0.03033      0.99951     2.01597    0.01484     3.03033
      C    5   -0.09268      0.99948     2.08189    0.01130     3.09268
      C    6   -0.02685      0.99945     2.01205    0.01535     3.02685
      N    7   -0.23850      0.99969     2.72732    0.01149     3.73850
      C    8   -0.01938      0.99967     2.00364    0.01607     3.01938
      S    9    0.18401      4.99942     2.79637    0.02020     7.81599
      C   10   -0.07514      0.99951     2.06369    0.01194     3.07514
      C   11    0.00083      0.99949     1.98755    0.01213     2.99917
      N   12   -0.10581      0.99967     2.59317    0.01297     3.60581
      N   13   -0.15657      0.99973     2.64520    0.01164     3.65657
      C   14   -0.01015      0.99958     1.99738    0.01319     3.01015
      C   15   -0.17100      0.99964     2.16300    0.00836     3.17100
      H   16    0.10253      0.00000     0.39611    0.00136     0.39747
      H   17    0.09701      0.00000     0.40217    0.00082     0.40299
      H   18    0.09481      0.00000     0.40421    0.00097     0.40519
      H   19    0.08867      0.00000     0.40999    0.00133     0.41133
      H   20    0.08302      0.00000     0.41515    0.00182     0.41698
      H   21    0.17094      0.00000     0.32619    0.00287     0.32906
      H   22    0.10168      0.00000     0.39640    0.00192     0.39832
      H   23    0.10054      0.00000     0.39733    0.00213     0.39946
      H   24    0.09018      0.00000     0.40860    0.00122     0.40982
      H   25    0.11424      0.00000     0.38386    0.00190     0.38576
      H   26    0.10181      0.00000     0.39720    0.00099     0.39819
      H   27    0.10391      0.00000     0.39445    0.00163     0.39609
      H   28    0.09736      0.00000     0.40133    0.00131     0.40264
      H   29    0.10464      0.00000     0.39218    0.00318     0.39536
 =======================================================================
   * Total *   -0.00000     18.99390    39.79517    0.21093    59.00000

 Normal termination of Gaussian 16 at Thu Dec 10 17:36:03 2020.
