 Gaussian 16, Revision A.03,

 -----------------------------------------------------------
 # opt freq B3LYP/6-31G(d) empiricaldispersion=gd3bj scf=xqc
 -----------------------------------------------------------

 ------------------------------
 CID_87509475_JID_1730_neutraal
 ------------------------------
 Symbolic Z-matrix:
 Charge =  0 Multiplicity = 1

 SCF Done:  E(RB3LYP) =  -934.922083055     A.U. after   14 cycles
 SCF Done:  E(RB3LYP) =  -934.925639828     A.U. after   12 cycles
 SCF Done:  E(RB3LYP) =  -934.926222344     A.U. after   11 cycles
 SCF Done:  E(RB3LYP) =  -934.926270879     A.U. after   11 cycles
 SCF Done:  E(RB3LYP) =  -934.926352794     A.U. after   11 cycles
 SCF Done:  E(RB3LYP) =  -934.926359041     A.U. after    9 cycles
 SCF Done:  E(RB3LYP) =  -934.926363226     A.U. after    9 cycles
 SCF Done:  E(RB3LYP) =  -934.926366983     A.U. after   10 cycles
 SCF Done:  E(RB3LYP) =  -934.926372442     A.U. after   10 cycles
 SCF Done:  E(RB3LYP) =  -934.926380172     A.U. after   10 cycles
 SCF Done:  E(RB3LYP) =  -934.926384312     A.U. after    9 cycles
 SCF Done:  E(RB3LYP) =  -934.926384944     A.U. after    8 cycles
 SCF Done:  E(RB3LYP) =  -934.926384991     A.U. after    7 cycles
 Optimization completed.
    -- Stationary point found.
 Normal termination of Gaussian 16 at Tue Dec  8 21:13:42 2020.

 --------------------------------------------------------------------
 #N Geom=AllCheck Guess=TCheck SCRF=Check GenChk RB3LYP/6-31G(d) Freq
 --------------------------------------------------------------------

 Structure from the checkpoint file:  "JID_1730.chk"
 ------------------------------
 CID_87509475_JID_1730_neutraal
 ------------------------------
 Charge =  0 Multiplicity = 1

 SCF Done:  E(RB3LYP) =  -934.926384991     A.U. after    1 cycles

  Exact polarizability:  96.112   0.278  87.359  -1.272  -0.867  79.025
 Approx polarizability: 130.174  -3.106 134.932  -3.049  -1.599 123.572

                      1                      2                      3
                      A                      A                      A
 Frequencies --     49.2296               117.5303               121.9816
 Red. masses --      7.2434                 4.9293                 3.4592
 Frc consts  --      0.0103                 0.0401                 0.0303
 IR Inten    --      2.8210                 4.2200                 2.5837

                      4                      5                      6
                      A                      A                      A
 Frequencies --    172.8076               220.7880               237.1553
 Red. masses --      2.7786                 4.0240                 1.7777
 Frc consts  --      0.0489                 0.1156                 0.0589
 IR Inten    --     53.3226                 2.8239                30.5331

                      7                      8                      9
                      A                      A                      A
 Frequencies --    270.7841               291.0047               313.1433
 Red. masses --      2.1617                 1.9631                 2.0113
 Frc consts  --      0.0934                 0.0979                 0.1162
 IR Inten    --     41.8253                20.7353                25.9220

                     10                     11                     12
                      A                      A                      A
 Frequencies --    341.0200               370.1410               400.6406
 Red. masses --      2.1662                 3.5894                 4.7509
 Frc consts  --      0.1484                 0.2897                 0.4493
 IR Inten    --     30.2711                34.2025                 9.4462

                     13                     14                     15
                      A                      A                      A
 Frequencies --    451.2314               457.1519               474.7697
 Red. masses --      4.3548                 2.3482                 3.7069
 Frc consts  --      0.5224                 0.2891                 0.4923
 IR Inten    --     15.6301                 0.4039                22.9091

                     16                     17                     18
                      A                      A                      A
 Frequencies --    510.1065               521.3852               641.6891
 Red. masses --      2.9562                 4.1588                 6.3126
 Frc consts  --      0.4532                 0.6661                 1.5315
 IR Inten    --      5.8594                19.9274                51.9295

                     19                     20                     21
                      A                      A                      A
 Frequencies --    690.0350               780.5985               800.1410
 Red. masses --      3.1130                 6.9006                 2.2749
 Frc consts  --      0.8733                 2.4774                 0.8581
 IR Inten    --     14.0675               148.5147                11.4960

                     22                     23                     24
                      A                      A                      A
 Frequencies --    864.7019               888.8193               910.2323
 Red. masses --      2.6551                 1.4724                 1.8362
 Frc consts  --      1.1697                 0.6853                 0.8963
 IR Inten    --      5.6373                14.9880                 1.7771

                     25                     26                     27
                      A                      A                      A
 Frequencies --    920.9017               991.2969              1052.2694
 Red. masses --      2.4213                 2.1072                 1.7207
 Frc consts  --      1.2098                 1.2200                 1.1225
 IR Inten    --      4.8328                13.9611                 0.5409

                     28                     29                     30
                      A                      A                      A
 Frequencies --   1082.2105              1085.2913              1117.7501
 Red. masses --      1.6044                 2.3580                 2.8601
 Frc consts  --      1.1071                 1.6364                 2.1054
 IR Inten    --     10.9703               136.1741                62.0749

                     31                     32                     33
                      A                      A                      A
 Frequencies --   1121.9871              1136.2247              1166.9508
 Red. masses --      2.0718                 2.1890                 1.5182
 Frc consts  --      1.5366                 1.6651                 1.2181
 IR Inten    --      2.5867                 8.6061                39.3618

                     34                     35                     36
                      A                      A                      A
 Frequencies --   1175.5889              1205.9951              1249.8856
 Red. masses --      1.5847                 1.2863                 1.4801
 Frc consts  --      1.2903                 1.1022                 1.3623
 IR Inten    --    132.4784                 7.1398                 7.0204

                     37                     38                     39
                      A                      A                      A
 Frequencies --   1290.0256              1307.0373              1344.1092
 Red. masses --      1.2822                 1.4006                 1.4346
 Frc consts  --      1.2572                 1.4097                 1.5270
 IR Inten    --      5.9904                19.4051                 4.1142

                     40                     41                     42
                      A                      A                      A
 Frequencies --   1351.3529              1352.9544              1361.3457
 Red. masses --      1.3944                 1.4583                 4.0382
 Frc consts  --      1.5003                 1.5728                 4.4094
 IR Inten    --      3.6581                35.9607               149.0150

                     43                     44                     45
                      A                      A                      A
 Frequencies --   1396.4106              1400.5820              1406.0752
 Red. masses --      1.4156                 1.4360                 1.4146
 Frc consts  --      1.6264                 1.6596                 1.6478
 IR Inten    --      3.9004                12.0157                 4.6210

                     46                     47                     48
                      A                      A                      A
 Frequencies --   1416.3506              1450.3663              1508.4957
 Red. masses --      1.4340                 1.2724                 1.0867
 Frc consts  --      1.6949                 1.5770                 1.4570
 IR Inten    --      2.6465                45.7353                 1.5767

                     49                     50                     51
                      A                      A                      A
 Frequencies --   1512.3235              1524.1387              1533.3737
 Red. masses --      1.0893                 1.0810                 1.0958
 Frc consts  --      1.4679                 1.4795                 1.5180
 IR Inten    --      2.3971                13.2276                 6.7327

                     52                     53                     54
                      A                      A                      A
 Frequencies --   2999.0051              3025.9216              3042.2057
 Red. masses --      1.0711                 1.0717                 1.0714
 Frc consts  --      5.6758                 5.7814                 5.8421
 IR Inten    --     28.8362                23.6585                22.8122

                     55                     56                     57
                      A                      A                      A
 Frequencies --   3067.6204              3070.7128              3093.6886
 Red. masses --      1.0636                 1.0843                 1.0896
 Frc consts  --      5.8968                 6.0241                 6.1441
 IR Inten    --     26.1140                 8.1662                27.4489

                     58                     59                     60
                      A                      A                      A
 Frequencies --   3110.3617              3115.8746              3122.9153
 Red. masses --      1.0973                 1.0889                 1.0949
 Frc consts  --      6.2545                 6.2285                 6.2916
 IR Inten    --      9.8880                23.2712                 9.3859

                     61                     62                     63
                      A                      A                      A
 Frequencies --   3127.2038              3694.0597              3718.6486
 Red. masses --      1.0929                 1.0660                 1.0658
 Frc consts  --      6.2969                 8.5705                 8.6833
 IR Inten    --     21.8859               109.1370                 7.4571

 - Thermochemistry -
 -------------------
 Temperature   298.150 Kelvin.  Pressure   1.00000 Atm.
 Atom     1 has atomic number  6 and mass  12.00000

 Molecular mass:   180.04563 amu.
 Principal axes and moments of inertia in atomic units:
                           1         2         3
     Eigenvalues --  1123.279182460.887542894.65789
           X            0.99990   0.01372  -0.00346
           Y           -0.01373   0.99990  -0.00255
           Z            0.00342   0.00260   0.99999
 This molecule is an asymmetric top.
 Rotational symmetry number  1.
 Warning -- assumption of classical behavior for rotation
           may cause significant error
 Rotational temperatures (Kelvin)      0.07711     0.03520     0.02992
 Rotational constants (GHZ):           1.60667     0.73337     0.62347
 Zero-point vibrational energy     499719.6 (Joules/Mol)
                                  119.43586 (Kcal/Mol)
 Warning -- explicit consideration of  17 degrees of freedom as
           vibrations may cause significant error
 Vibrational temperatures:     70.83   169.10   175.50   248.63   317.66
          (Kelvin)            341.21   389.60   418.69   450.54   490.65
                              532.55   576.43   649.22   657.74   683.09
                              733.93   750.16   923.25   992.81  1123.11
                             1151.22  1244.11  1278.81  1309.62  1324.97
                             1426.26  1513.98  1557.06  1561.49  1608.19
                             1614.29  1634.77  1678.98  1691.41  1735.16
                             1798.31  1856.06  1880.54  1933.87  1944.30
                             1946.60  1958.67  2009.12  2015.13  2023.03
                             2037.81  2086.75  2170.39  2175.90  2192.90
                             2206.18  4314.90  4353.63  4377.06  4413.62
                             4418.07  4451.13  4475.12  4483.05  4493.18
                             4499.35  5314.93  5350.31

 Zero-point correction=                           0.190333 (Hartree/Particle)
 Thermal correction to Energy=                    0.201544
 Thermal correction to Enthalpy=                  0.202488
 Thermal correction to Gibbs Free Energy=         0.153566
 Sum of electronic and zero-point Energies=           -934.736052
 Sum of electronic and thermal Energies=              -934.724841
 Sum of electronic and thermal Enthalpies=            -934.723896
 Sum of electronic and thermal Free Energies=         -934.772819

                     E (Thermal)             CV                S
                      KCal/Mol        Cal/Mol-Kelvin    Cal/Mol-Kelvin
 Total                  126.471             43.009            102.967
 Electronic               0.000              0.000              0.000
 Translational            0.889              2.981             41.471
 Rotational               0.889              2.981             30.460
 Vibrational            124.694             37.047             31.036
 Vibration     1          0.595              1.978              4.848
 Vibration     2          0.608              1.935              3.141
 Vibration     3          0.609              1.931              3.069
 Vibration     4          0.626              1.876              2.405
 Vibration     5          0.648              1.809              1.953
 Vibration     6          0.656              1.784              1.824
 Vibration     7          0.674              1.727              1.591
 Vibration     8          0.687              1.690              1.468
 Vibration     9          0.701              1.649              1.346
 Vibration    10          0.721              1.593              1.207
 Vibration    11          0.742              1.534              1.079
 Vibration    12          0.766              1.469              0.960
 Vibration    13          0.810              1.358              0.792
 Vibration    14          0.815              1.345              0.774
 Vibration    15          0.831              1.306              0.724
 Vibration    16          0.865              1.228              0.633
 Vibration    17          0.876              1.203              0.607

                           ! Non-Optimized Parameters !
 Normal termination of Gaussian 16 at Tue Dec  8 21:20:58 2020.

 ----------------------------------------------------------------------
 # B3LYP/6-311++G(d,p) empiricaldispersion=gd3bj scf=xqc pop=npa geom=c
 heck
 ----------------------------------------------------------------------

 --------------------------------------
 CID_87509475_JID_1730_Energie_neutraal
 --------------------------------------
 Structure from the checkpoint file:  "JID_1730.chk"
 Charge =  0 Multiplicity = 1

 SCF Done:  E(RB3LYP) =  -935.126999611     A.U. after   15 cycles
 Normal termination of Gaussian 16 at Tue Dec  8 21:25:59 2020.

 ----------------------------------------------------------------------
 # B3LYP/6-311++G(d,p) empiricaldispersion=gd3bj scf=xqc pop=npa geom=c
 heck
 ----------------------------------------------------------------------

 ------------------------------------
 CID_87509475_JID_1730_Energie_kation
 ------------------------------------
 Structure from the checkpoint file:  "JID_1730.chk"
 Charge =  1 Multiplicity = 2

 SCF Done:  E(UB3LYP) =  -934.757607979     A.U. after   29 cycles
 Normal termination of Gaussian 16 at Tue Dec  8 21:35:52 2020.
 Gaussian 16:  ES64L-G16RevA.03 25-Dec-2016

 ----------------------------------------------------------------------
 # B3LYP/6-311++G(d,p) empiricaldispersion=gd3bj scf=xqc pop=npa geom=c
 heck
 ----------------------------------------------------------------------

 -----------------------------------
 CID_87509475_JID_1730_Energie_anion
 -----------------------------------
 Structure from the checkpoint file:  "JID_1730.chk"
 Charge = -1 Multiplicity = 2

                         Standard orientation:
 ---------------------------------------------------------------------
 Center     Atomic      Atomic             Coordinates (Angstroms)
 Number     Number       Type             X           Y           Z
 ---------------------------------------------------------------------
      1          6           0        1.142089    1.805420    0.485944
      2          6           0        2.313517    0.818371    0.387412
      3          6           0        1.828476   -0.625846    0.239292
      4          6           0        0.885184   -0.773656   -0.964419
      5          6           0       -0.253897    0.255837   -1.009457
      6          6           0        0.214756    1.692167   -0.730557
      7         16           0       -1.679352   -0.228314    0.024764
      8          8           0       -2.663599    0.845408   -0.020049
      9          8           0       -2.048506   -1.612199   -0.283919
     10          8           0       -1.043700   -0.257420    1.554606
     11          8           0        2.907026   -1.550510    0.143140
     12          1           0        0.576918    1.614159    1.404109
     13          1           0        1.519248    2.831994    0.554048
     14          1           0        2.963834    0.889899    1.265845
     15          1           0        2.931184    1.071034   -0.490284
     16          1           0        1.300403   -0.914956    1.151244
     17          1           0        1.477554   -0.615572   -1.877875
     18          1           0        0.490784   -1.792197   -1.016370
     19          1           0       -0.736574    0.217147   -1.993739
     20          1           0       -0.652371    2.351411   -0.634229
     21          1           0        0.760576    2.013194   -1.628181
     22          1           0       -1.199666   -1.161016    1.889716
     23          1           0        3.447244   -1.288061   -0.620031
 ---------------------------------------------------------------------

 SCF Done:  E(UB3LYP) =  -935.119154174     A.U. after   25 cycles

 The electronic state is 2-A.
 Alpha  occ. eigenvalues --  -88.97551 -19.07588 -19.02906 -19.02862 -19.02199
 Alpha  occ. eigenvalues --  -10.12352 -10.11903 -10.07883 -10.07774 -10.06863
 Alpha  occ. eigenvalues --  -10.06501  -8.03740  -6.00154  -5.99938  -5.99715
 Alpha  occ. eigenvalues --   -1.04926  -0.94252  -0.92486  -0.92156  -0.74835
 Alpha  occ. eigenvalues --   -0.67139  -0.64445  -0.58399  -0.52560  -0.52340
 Alpha  occ. eigenvalues --   -0.48227  -0.43449  -0.41161  -0.40148  -0.38896
 Alpha  occ. eigenvalues --   -0.36271  -0.35617  -0.35262  -0.33908  -0.31935
 Alpha  occ. eigenvalues --   -0.30623  -0.29591  -0.28098  -0.27512  -0.25644
 Alpha  occ. eigenvalues --   -0.25273  -0.23745  -0.23376  -0.22775  -0.21581
 Alpha  occ. eigenvalues --   -0.21510  -0.20702  -0.17407   0.04310
 Alpha virt. eigenvalues --    0.06288   0.07859   0.07972   0.10014   0.10651
 Alpha virt. eigenvalues --    0.11273   0.11604   0.12020   0.13034   0.13464
 Alpha virt. eigenvalues --    0.13789   0.14074   0.15281   0.16150   0.16660

  Beta  occ. eigenvalues --  -88.97542 -19.07524 -19.02887 -19.02848 -19.02171
  Beta  occ. eigenvalues --  -10.12335 -10.11894 -10.07852 -10.07737 -10.06848
  Beta  occ. eigenvalues --  -10.06471  -8.03730  -6.00133  -5.99931  -5.99705
  Beta  occ. eigenvalues --   -1.04858  -0.94129  -0.92435  -0.92121  -0.74782
  Beta  occ. eigenvalues --   -0.67082  -0.64384  -0.58315  -0.52476  -0.52255
  Beta  occ. eigenvalues --   -0.48136  -0.43392  -0.41086  -0.40088  -0.38860
  Beta  occ. eigenvalues --   -0.36224  -0.35563  -0.35206  -0.33830  -0.31905
  Beta  occ. eigenvalues --   -0.30551  -0.29536  -0.28048  -0.27459  -0.25585
  Beta  occ. eigenvalues --   -0.25215  -0.23692  -0.23314  -0.22723  -0.21521
  Beta  occ. eigenvalues --   -0.21474  -0.20642  -0.17374
  Beta virt. eigenvalues --    0.07008   0.07706   0.08649   0.08817   0.10814
  Beta virt. eigenvalues --    0.11028   0.11645   0.11992   0.12180   0.13486
  Beta virt. eigenvalues --    0.13892   0.14194   0.14538   0.15583   0.16204

 Mulliken charges and spin densities:
               1          2
     1  C   -0.491360   0.231133
     2  C    0.758131  -1.014298
     3  C    0.071207  -0.319610
     4  C    0.220173  -0.864229
     5  C   -0.877494   0.766643
     6  C    0.765657  -1.308447
     7  S    1.555381  -1.294023
     8  O   -0.161114   0.026945
     9  O   -0.197169   0.003982
    10  O   -0.183609  -0.004931
    11  O   -0.236768   0.034175
    12  H    0.117288   0.045796
    13  H   -0.301404   0.489044
    14  H   -0.084274   0.256298
    15  H   -0.349677   0.509446
    16  H    0.021542   0.157425
    17  H   -0.745543   0.922446
    18  H    0.026395   0.208903
    19  H   -0.415307   0.735905
    20  H    0.110791   0.110068
    21  H   -0.458927   0.624865
    22  H   -0.239370   0.527031
    23  H    0.095452   0.155433
 Sum of Mulliken charges =  -1.00000   1.00000

 Dipole moment (field-independent basis, Debye):
    X=             -1.6863    Y=             -0.3497    Z=              2.9195  Tot=              3.3896
 Quadrupole moment (field-independent basis, Debye-Ang):
   XX=           -126.7982   YY=           -110.5721   ZZ=           -112.5154
   XY=             -2.0848   XZ=              5.4422   YZ=              4.4717

 Summary of Natural Population Analysis:

                                       Natural Population
                Natural  -----------------------------------------------
    Atom  No    Charge         Core      Valence    Rydberg      Total
 -----------------------------------------------------------------------
      C    1   -0.19406      0.99962     2.18542    0.00902     3.19406
      C    2   -0.20090      0.99961     2.19168    0.00961     3.20090
      C    3    0.06384      0.99953     1.92341    0.01322     2.93616
      C    4   -0.21407      0.99958     2.20160    0.01289     3.21407
      C    5   -0.19378      0.99953     2.17766    0.01659     3.19378
      C    6   -0.20091      0.99960     2.19038    0.01093     3.20091
      S    7    1.12133      4.99929     1.78022    0.09916     6.87867
      O    8   -0.45107      0.99990     3.44559    0.00559     4.45107
      O    9   -0.46158      0.99991     3.45625    0.00542     4.46158
      O   10   -0.44094      0.99991     3.43425    0.00678     4.44094
      O   11   -0.36939      0.99990     3.36290    0.00659     4.36939
      H   12    0.10281      0.00000     0.39521    0.00198     0.39719
      H   13    0.10184      0.00000     0.39710    0.00105     0.39816
      H   14    0.10250      0.00000     0.39642    0.00108     0.39750
      H   15    0.09573      0.00000     0.40174    0.00252     0.40427
      H   16    0.09037      0.00000     0.40782    0.00181     0.40963
      H   17    0.10886      0.00000     0.38762    0.00352     0.39114
      H   18    0.11531      0.00000     0.38331    0.00138     0.38469
      H   19    0.12538      0.00000     0.37245    0.00217     0.37462
      H   20    0.11282      0.00000     0.38604    0.00114     0.38718
      H   21    0.10865      0.00000     0.38843    0.00292     0.39135
      H   22    0.25055      0.00000     0.24207    0.00738     0.24945
      H   23    0.22670      0.00000     0.27007    0.00324     0.27330
 =======================================================================
   * Total *   -0.00000     14.99637    32.77764    0.22599    48.00000

 Normal termination of Gaussian 16 at Tue Dec  8 21:44:00 2020.
