 Gaussian 16, Revision A.03,

 -----------------------------------------------------------
 # opt freq B3LYP/6-31G(d) empiricaldispersion=gd3bj scf=xqc
 -----------------------------------------------------------

 ------------------------------
 CID_63722178_JID_9648_neutraal
 ------------------------------
 Symbolic Z-matrix:
 Charge =  0 Multiplicity = 1

 SCF Done:  E(RB3LYP) =  -1239.66357574     A.U. after   15 cycles
 SCF Done:  E(RB3LYP) =  -1239.67105019     A.U. after   13 cycles
 SCF Done:  E(RB3LYP) =  -1239.67345662     A.U. after   14 cycles
 SCF Done:  E(RB3LYP) =  -1239.67651587     A.U. after   14 cycles
 SCF Done:  E(RB3LYP) =  -1239.67972116     A.U. after   14 cycles
 SCF Done:  E(RB3LYP) =  -1239.68123516     A.U. after   13 cycles
 SCF Done:  E(RB3LYP) =  -1239.68240043     A.U. after   13 cycles
 SCF Done:  E(RB3LYP) =  -1239.68349684     A.U. after   12 cycles
 SCF Done:  E(RB3LYP) =  -1239.68409097     A.U. after   13 cycles
 SCF Done:  E(RB3LYP) =  -1239.68461469     A.U. after   12 cycles
 SCF Done:  E(RB3LYP) =  -1239.68523972     A.U. after    8 cycles
 SCF Done:  E(RB3LYP) =  -1239.68523959     A.U. after    7 cycles
 SCF Done:  E(RB3LYP) =  -1239.68523959     A.U. after    7 cycles
 SCF Done:  E(RB3LYP) =  -1239.68523983     A.U. after    8 cycles
 SCF Done:  E(RB3LYP) =  -1239.68523965     A.U. after    8 cycles
 Optimization completed.
    -- Stationary point found.
 Normal termination of Gaussian 16 at Sat Dec 12 10:10:13 2020.

 --------------------------------------------------------------------
 #N Geom=AllCheck Guess=TCheck SCRF=Check GenChk RB3LYP/6-31G(d) Freq
 --------------------------------------------------------------------

 Structure from the checkpoint file:  "JID_9648.chk"
 ------------------------------
 CID_63722178_JID_9648_neutraal
 ------------------------------
 Charge =  0 Multiplicity = 1

 SCF Done:  E(RB3LYP) =  -1239.68523965     A.U. after    1 cycles

  Exact polarizability: 214.848   0.803 154.784 -15.078 -13.326 126.327
 Approx polarizability: 276.804   2.047 269.193 -23.138 -33.812 200.288

                      1                      2                      3
                      A                      A                      A
 Frequencies --     17.7082                34.1854                40.9768
 Red. masses --      5.9021                10.3568                 5.8240
 Frc consts  --      0.0011                 0.0071                 0.0058
 IR Inten    --      0.0832                 1.0850                 0.5514

                      4                      5                      6
                      A                      A                      A
 Frequencies --     41.4618                59.6658                71.0444
 Red. masses --      6.2473                 5.4624                 5.5663
 Frc consts  --      0.0063                 0.0115                 0.0166
 IR Inten    --      0.1601                 0.9164                 1.1155

                      7                      8                      9
                      A                      A                      A
 Frequencies --     97.0362               114.4294               136.2169
 Red. masses --      5.9129                 4.0757                 4.4698
 Frc consts  --      0.0328                 0.0314                 0.0489
 IR Inten    --      3.1530                 1.1758                 3.6589

                     10                     11                     12
                      A                      A                      A
 Frequencies --    169.8019               194.8118               230.3206
 Red. masses --      3.8570                 3.1920                 2.2193
 Frc consts  --      0.0655                 0.0714                 0.0694
 IR Inten    --      1.6936                 0.4935                 2.1449

                     13                     14                     15
                      A                      A                      A
 Frequencies --    240.1243               256.4701               298.0127
 Red. masses --      2.6527                 1.7893                 3.2363
 Frc consts  --      0.0901                 0.0693                 0.1693
 IR Inten    --      5.1103                 4.2296                 0.1633

                     16                     17                     18
                      A                      A                      A
 Frequencies --    304.3697               336.1419               348.3041
 Red. masses --      2.7077                 2.7758                 2.8601
 Frc consts  --      0.1478                 0.1848                 0.2044
 IR Inten    --      7.2372                 0.5055                 1.7194

                     19                     20                     21
                      A                      A                      A
 Frequencies --    380.2596               435.5841               455.8321
 Red. masses --      4.6171                 3.3547                 2.8345
 Frc consts  --      0.3934                 0.3750                 0.3470
 IR Inten    --      1.1248                 2.5216                 4.5970

                     22                     23                     24
                      A                      A                      A
 Frequencies --    469.1316               515.8466               561.0350
 Red. masses --      3.4546                 4.6382                 4.0101
 Frc consts  --      0.4480                 0.7272                 0.7437
 IR Inten    --     12.0675                 2.1471                19.2149

                     25                     26                     27
                      A                      A                      A
 Frequencies --    562.4780               587.6129               600.3586
 Red. masses --      3.6759                 4.0223                 2.8442
 Frc consts  --      0.6852                 0.8183                 0.6040
 IR Inten    --      1.4122                12.5851                55.1584

                     28                     29                     30
                      A                      A                      A
 Frequencies --    616.5194               642.6751               660.8725
 Red. masses --      3.4561                 1.3816                 3.8649
 Frc consts  --      0.7740                 0.3362                 0.9945
 IR Inten    --      5.6277                51.1478                 3.6710

                     31                     32                     33
                      A                      A                      A
 Frequencies --    697.5549               707.3671               746.4017
 Red. masses --      3.2626                 1.2369                 6.8880
 Frc consts  --      0.9354                 0.3646                 2.2609
 IR Inten    --      6.1111                68.9109                 0.7489

                     34                     35                     36
                      A                      A                      A
 Frequencies --    763.5567               779.7464               811.5307
 Red. masses --      4.1383                 3.1150                 3.9498
 Frc consts  --      1.4215                 1.1159                 1.5326
 IR Inten    --     16.1093                24.2286                30.0676

                     37                     38                     39
                      A                      A                      A
 Frequencies --    832.1015               850.0203               861.4592
 Red. masses --      2.4018                 3.1626                 2.5237
 Frc consts  --      0.9798                 1.3463                 1.1035
 IR Inten    --    106.7987                11.3955                 8.9087

                     40                     41                     42
                      A                      A                      A
 Frequencies --    865.9258               878.8136               890.2050
 Red. masses --      1.5305                 2.9390                 2.2170
 Frc consts  --      0.6761                 1.3373                 1.0351
 IR Inten    --      6.0856                 2.1481                 7.9463

                     43                     44                     45
                      A                      A                      A
 Frequencies --    930.6548               942.6693               958.7641
 Red. masses --      1.3864                 1.8763                 1.6530
 Frc consts  --      0.7075                 0.9824                 0.8953
 IR Inten    --      8.0149                15.6545                 2.3692

                     46                     47                     48
                      A                      A                      A
 Frequencies --    969.1510              1006.6347              1022.8541
 Red. masses --      1.5666                 1.8118                 2.1976
 Frc consts  --      0.8670                 1.0817                 1.3547
 IR Inten    --      3.6835                 9.6262                 4.7408

                     49                     50                     51
                      A                      A                      A
 Frequencies --   1054.8986              1079.2990              1082.6564
 Red. masses --      2.0405                 1.7849                 2.0350
 Frc consts  --      1.3379                 1.2250                 1.4054
 IR Inten    --     24.6139                 1.5297                27.3924

                     52                     53                     54
                      A                      A                      A
 Frequencies --   1099.5571              1116.2283              1137.4529
 Red. masses --      1.8606                 1.3302                 2.2023
 Frc consts  --      1.3254                 0.9765                 1.6788
 IR Inten    --      4.4699                 3.3318                20.7860

                     55                     56                     57
                      A                      A                      A
 Frequencies --   1142.7578              1162.3354              1184.4183
 Red. masses --      3.0011                 2.2456                 1.9550
 Frc consts  --      2.3090                 1.7875                 1.6159
 IR Inten    --     16.4797                18.4903                50.1470

                     58                     59                     60
                      A                      A                      A
 Frequencies --   1196.3705              1217.8071              1231.9967
 Red. masses --      2.2644                 2.4467                 1.6718
 Frc consts  --      1.9095                 2.1379                 1.4951
 IR Inten    --     79.9737                 7.2085                32.6148

                     61                     62                     63
                      A                      A                      A
 Frequencies --   1240.1696              1259.1455              1283.1844
 Red. masses --      1.3732                 1.2904                 1.2683
 Frc consts  --      1.2444                 1.2054                 1.2304
 IR Inten    --     16.6002                78.0640                17.2140

                     64                     65                     66
                      A                      A                      A
 Frequencies --   1286.5015              1306.3852              1335.4682
 Red. masses --      1.4070                 1.3144                 1.4399
 Frc consts  --      1.3720                 1.3217                 1.5130
 IR Inten    --     19.8277                11.6894                 1.3286

                     67                     68                     69
                      A                      A                      A
 Frequencies --   1352.4661              1364.9614              1373.7228
 Red. masses --      1.4232                 1.6186                 1.3815
 Frc consts  --      1.5338                 1.7768                 1.5360
 IR Inten    --      2.9626                34.2201                15.6725

                     70                     71                     72
                      A                      A                      A
 Frequencies --   1383.8310              1394.1537              1405.4351
 Red. masses --      1.4511                 1.5330                 1.6038
 Frc consts  --      1.6372                 1.7556                 1.8665
 IR Inten    --     12.7969               141.8658                 4.3822

                     73                     74                     75
                      A                      A                      A
 Frequencies --   1408.9347              1421.4012              1446.8796
 Red. masses --      2.0650                 1.8439                 1.5581
 Frc consts  --      2.4151                 2.1949                 1.9218
 IR Inten    --      1.7865                92.5564               122.8391

                     76                     77                     78
                      A                      A                      A
 Frequencies --   1450.1079              1495.8466              1500.5557
 Red. masses --      1.9052                 1.5443                 3.3475
 Frc consts  --      2.3605                 2.0359                 4.4410
 IR Inten    --    255.3275                 7.2114                 3.2529

                     79                     80                     81
                      A                      A                      A
 Frequencies --   1511.6902              1523.1457              1524.8162
 Red. masses --      1.1409                 1.0495                 1.1507
 Frc consts  --      1.5361                 1.4346                 1.5763
 IR Inten    --      8.5579                 6.4977                36.9460

                     82                     83                     84
                      A                      A                      A
 Frequencies --   1533.3862              1544.6217              1552.9008
 Red. masses --      1.0513                 1.0846                 1.1060
 Frc consts  --      1.4564                 1.5247                 1.5715
 IR Inten    --      3.0265                 4.6459                 4.6489

                     85                     86                     87
                      A                      A                      A
 Frequencies --   1600.8360              1763.2435              1845.9350
 Red. masses --      5.0373                 7.3315                 9.5867
 Frc consts  --      7.6057                13.4298                19.2464
 IR Inten    --      2.4720               288.1974               320.6167

                     88                     89                     90
                      A                      A                      A
 Frequencies --   3029.3573              3040.4138              3052.1852
 Red. masses --      1.0720                 1.0846                 1.0600
 Frc consts  --      5.7962                 5.9072                 5.8178
 IR Inten    --     37.3163                22.9999                19.3014

                     91                     92                     93
                      A                      A                      A
 Frequencies --   3055.8340              3074.5835              3079.6989
 Red. masses --      1.0355                 1.0581                 1.0736
 Frc consts  --      5.6974                 5.8934                 5.9995
 IR Inten    --     18.6668                28.3514                11.4434

                     94                     95                     96
                      A                      A                      A
 Frequencies --   3097.3797              3113.0020              3122.7544
 Red. masses --      1.0938                 1.1078                 1.1007
 Frc consts  --      6.1827                 6.3251                 6.3240
 IR Inten    --     33.9645                12.9431                32.4581

                     97                     98                     99
                      A                      A                      A
 Frequencies --   3125.2690              3130.2395              3131.1445
 Red. masses --      1.0892                 1.1015                 1.0951
 Frc consts  --      6.2679                 6.3589                 6.3258
 IR Inten    --      9.2783                21.0321                16.5799

                    100                    101                    102
                      A                      A                      A
 Frequencies --   3138.8010              3211.9679              3226.4015
 Red. masses --      1.1011                 1.0911                 1.0943
 Frc consts  --      6.3915                 6.6324                 6.7113
 IR Inten    --     29.6484                 5.3911                 8.5355

                    103                    104                    105
                      A                      A                      A
 Frequencies --   3271.7039              3551.5089              3685.1555
 Red. masses --      1.0969                 1.0741                 1.0642
 Frc consts  --      6.9180                 7.9818                 8.5146
 IR Inten    --      1.5471                20.8103                56.3941

 - Thermochemistry -
 -------------------
 Temperature   298.150 Kelvin.  Pressure   1.00000 Atm.
 Atom     1 has atomic number  6 and mass  12.00000

 Molecular mass:   282.10381 amu.
 Principal axes and moments of inertia in atomic units:
                           1         2         3
     Eigenvalues --  1807.94357********************
           X            0.99995  -0.00221  -0.01018
           Y            0.00216   0.99999  -0.00502
           Z            0.01019   0.00500   0.99994
 This molecule is an asymmetric top.
 Rotational symmetry number  1.
 Warning -- assumption of classical behavior for rotation
           may cause significant error
 Rotational temperatures (Kelvin)      0.04791     0.00672     0.00661
 Rotational constants (GHZ):           0.99823     0.14006     0.13779
 Zero-point vibrational energy     807165.9 (Joules/Mol)
                                  192.91728 (Kcal/Mol)
 Warning -- explicit consideration of  28 degrees of freedom as
           vibrations may cause significant error
 Vibrational temperatures:     25.48    49.19    58.96    59.65    85.85
          (Kelvin)            102.22   139.61   164.64   195.99   244.31
                              280.29   331.38   345.49   369.00   428.77
                              437.92   483.63   501.13   547.11   626.71
                              655.84   674.98   742.19   807.20   809.28
                              845.44   863.78   887.03   924.67   950.85
                             1003.63  1017.74  1073.91  1098.59  1121.88
                             1167.61  1197.21  1222.99  1239.45  1245.87
                             1264.42  1280.81  1339.00  1356.29  1379.45
                             1394.39  1448.32  1471.66  1517.76  1552.87
                             1557.70  1582.02  1606.00  1636.54  1644.17
                             1672.34  1704.11  1721.31  1752.15  1772.57
                             1784.33  1811.63  1846.22  1850.99  1879.60
                             1921.44  1945.90  1963.87  1976.48  1991.02
                             2005.88  2022.11  2027.14  2045.08  2081.74
                             2086.38  2152.19  2158.97  2174.99  2191.47
                             2193.87  2206.20  2222.37  2234.28  2303.25
                             2536.91  2655.89  4358.57  4374.48  4391.41
                             4396.66  4423.64  4431.00  4456.44  4478.92
                             4492.95  4496.56  4503.72  4505.02  4516.03
                             4621.31  4642.07  4707.25  5109.83  5302.12

 Zero-point correction=                           0.307433 (Hartree/Particle)
 Thermal correction to Energy=                    0.325787
 Thermal correction to Enthalpy=                  0.326731
 Thermal correction to Gibbs Free Energy=         0.258091
 Sum of electronic and zero-point Energies=          -1239.377806
 Sum of electronic and thermal Energies=             -1239.359453
 Sum of electronic and thermal Enthalpies=           -1239.358508
 Sum of electronic and thermal Free Energies=        -1239.427148

                     E (Thermal)             CV                S
                      KCal/Mol        Cal/Mol-Kelvin    Cal/Mol-Kelvin
 Total                  204.435             69.013            144.465
 Electronic               0.000              0.000              0.000
 Translational            0.889              2.981             42.809
 Rotational               0.889              2.981             34.078
 Vibrational            202.657             63.052             67.578
 Vibration     1          0.593              1.986              6.876
 Vibration     2          0.594              1.983              5.570
 Vibration     3          0.594              1.981              5.211
 Vibration     4          0.594              1.981              5.188
 Vibration     5          0.597              1.974              4.468
 Vibration     6          0.598              1.968              4.124
 Vibration     7          0.603              1.951              3.513
 Vibration     8          0.607              1.937              3.192
 Vibration     9          0.614              1.917              2.856
 Vibration    10          0.625              1.880              2.438
 Vibration    11          0.635              1.847              2.182
 Vibration    12          0.652              1.795              1.876
 Vibration    13          0.657              1.779              1.802
 Vibration    14          0.666              1.752              1.686
 Vibration    15          0.691              1.677              1.428
 Vibration    16          0.695              1.665              1.393
 Vibration    17          0.717              1.603              1.230
 Vibration    18          0.726              1.579              1.174
 Vibration    19          0.750              1.512              1.038
 Vibration    20          0.796              1.393              0.841
 Vibration    21          0.814              1.348              0.778
 Vibration    22          0.826              1.319              0.740
 Vibration    23          0.871              1.215              0.620
 Vibration    24          0.917              1.116              0.522
 Vibration    25          0.918              1.112              0.519
 Vibration    26          0.945              1.058              0.471
 Vibration    27          0.959              1.031              0.449
 Vibration    28          0.976              0.997              0.422

 Optimization completed.
    -- Stationary point found.
 Normal termination of Gaussian 16 at Sat Dec 12 10:27:22 2020.

 ----------------------------------------------------------------------
 # B3LYP/6-311++G(d,p) empiricaldispersion=gd3bj scf=xqc pop=npa geom=c
 heck
 ----------------------------------------------------------------------

 --------------------------------------
 CID_63722178_JID_9648_Energie_neutraal
 --------------------------------------
 Structure from the checkpoint file:  "JID_9648.chk"
 Charge =  0 Multiplicity = 1

 SCF Done:  E(RB3LYP) =  -1239.95925976     A.U. after   16 cycles
 Normal termination of Gaussian 16 at Sat Dec 12 10:35:38 2020.

 ----------------------------------------------------------------------
 # B3LYP/6-311++G(d,p) empiricaldispersion=gd3bj scf=xqc pop=npa geom=c
 heck
 ----------------------------------------------------------------------

 ------------------------------------
 CID_63722178_JID_9648_Energie_kation
 ------------------------------------
 Structure from the checkpoint file:  "JID_9648.chk"
 Charge =  1 Multiplicity = 2

 SCF Done:  E(UB3LYP) =  -1239.66364232     A.U. after   31 cycles
 Normal termination of Gaussian 16 at Sat Dec 12 10:58:24 2020.
 Gaussian 16:  ES64L-G16RevA.03 25-Dec-2016

 ----------------------------------------------------------------------
 # B3LYP/6-311++G(d,p) empiricaldispersion=gd3bj scf=xqc pop=npa geom=c
 heck
 ----------------------------------------------------------------------

 -----------------------------------
 CID_63722178_JID_9648_Energie_anion
 -----------------------------------
 Structure from the checkpoint file:  "JID_9648.chk"
 Charge = -1 Multiplicity = 2

                         Standard orientation:
 ---------------------------------------------------------------------
 Center     Atomic      Atomic             Coordinates (Angstroms)
 Number     Number       Type             X           Y           Z
 ---------------------------------------------------------------------
      1          6           0        4.636894   -1.215623   -1.356183
      2          6           0        3.364921   -0.372705   -1.358124
      3          6           0        2.108580   -1.139435   -0.925321
      4          7           0        1.193116   -0.098364   -0.438941
      5          6           0        1.874410    1.195343   -0.300129
      6          6           0        3.373208    0.865429   -0.414958
      7          6           0        4.035934    0.562371    0.911317
      8          8           0        5.155104    0.905838    1.220511
      9          8           0        3.248917   -0.180375    1.729764
     10          6           0        0.162818   -0.505111    0.377388
     11          8           0       -0.037483   -1.691501    0.632153
     12          7           0       -0.642632    0.513747    0.904327
     13          6           0       -1.253920    1.503126    0.012489
     14          6           0       -2.171386    0.880638   -1.063846
     15          6           0       -3.324480    0.123334   -0.472710
     16          6           0       -3.326039   -1.134861    0.075475
     17          6           0       -4.590822   -1.506498    0.628999
     18          6           0       -5.537592   -0.528790    0.503361
     19         16           0       -4.896054    0.871309   -0.299766
     20          1           0        5.511506   -0.614943   -1.625571
     21          1           0        4.553700   -2.038242   -2.074574
     22          1           0        4.820251   -1.652891   -0.368630
     23          1           0        3.202819    0.023864   -2.369094
     24          1           0        1.659296   -1.700792   -1.750568
     25          1           0        2.322582   -1.846140   -0.117473
     26          1           0        1.603334    1.664471    0.648027
     27          1           0        1.598542    1.878282   -1.114703
     28          1           0        3.943383    1.686941   -0.853460
     29          1           0        3.767213   -0.338903    2.541154
     30          1           0       -1.345395    0.067692    1.486725
     31          1           0       -1.830955    2.189692    0.640180
     32          1           0       -0.474734    2.093010   -0.474967
     33          1           0       -2.529600    1.678535   -1.725480
     34          1           0       -1.568954    0.203649   -1.681419
     35          1           0       -2.442002   -1.764757    0.095284
     36          1           0       -4.783553   -2.465567    1.097239
     37          1           0       -6.571416   -0.547526    0.819908
 ---------------------------------------------------------------------

 SCF Done:  E(UB3LYP) =  -1239.95330930     A.U. after   33 cycles
 SCF Done:  E(UB3LYP) =  -1239.95330930     a.u. after    1 cycles

 The electronic state is 2-A.
 Alpha  occ. eigenvalues --  -88.78277 -19.08553 -19.02936 -18.98729 -14.23966
 Alpha  occ. eigenvalues --  -14.22978 -10.21827 -10.19339 -10.11611 -10.11549
 Alpha  occ. eigenvalues --  -10.10898 -10.10595 -10.10205 -10.10171 -10.09607
 Alpha  occ. eigenvalues --  -10.08977 -10.08790 -10.07603 -10.07547  -7.86908
 Alpha  occ. eigenvalues --   -5.83188  -5.82829  -5.82522  -1.02547  -0.95216
 Alpha  occ. eigenvalues --   -0.93559  -0.85123  -0.82279  -0.78894  -0.72559
 Alpha  occ. eigenvalues --   -0.68721  -0.66837  -0.64234  -0.62033  -0.60297
 Alpha  occ. eigenvalues --   -0.58380  -0.54945  -0.52716  -0.48825  -0.47481
 Alpha  occ. eigenvalues --   -0.47045  -0.44517  -0.42596  -0.41699  -0.40677
 Alpha  occ. eigenvalues --   -0.39873  -0.39640  -0.38695  -0.37281  -0.36109
 Alpha  occ. eigenvalues --   -0.34617  -0.33617  -0.33319  -0.32903  -0.32552
 Alpha  occ. eigenvalues --   -0.31705  -0.31163  -0.30571  -0.29844  -0.29246
 Alpha  occ. eigenvalues --   -0.28585  -0.27656  -0.27152  -0.26701  -0.26221
 Alpha  occ. eigenvalues --   -0.25220  -0.24801  -0.24635  -0.23729  -0.19615
 Alpha  occ. eigenvalues --   -0.18622  -0.16511  -0.15778  -0.14889  -0.14169
 Alpha  occ. eigenvalues --    0.03886
 Alpha virt. eigenvalues --    0.05906   0.06477   0.06538   0.06999   0.07819
 Alpha virt. eigenvalues --    0.08232   0.08651   0.08709   0.09324   0.10034
 Alpha virt. eigenvalues --    0.10441   0.10878   0.11458   0.11598   0.11727

  Beta  occ. eigenvalues --  -88.78265 -19.08527 -19.02924 -18.98726 -14.23969
  Beta  occ. eigenvalues --  -14.22978 -10.21819 -10.19338 -10.11588 -10.11512
  Beta  occ. eigenvalues --  -10.10824 -10.10523 -10.10192 -10.10154 -10.09584
  Beta  occ. eigenvalues --  -10.08964 -10.08793 -10.07591 -10.07527  -7.86897
  Beta  occ. eigenvalues --   -5.83183  -5.82824  -5.82483  -1.02507  -0.95210
  Beta  occ. eigenvalues --   -0.93527  -0.85106  -0.82267  -0.78814  -0.72522
  Beta  occ. eigenvalues --   -0.68637  -0.66790  -0.64172  -0.61953  -0.60257
  Beta  occ. eigenvalues --   -0.58318  -0.54890  -0.52657  -0.48763  -0.47417
  Beta  occ. eigenvalues --   -0.46994  -0.44426  -0.42546  -0.41662  -0.40642
  Beta  occ. eigenvalues --   -0.39840  -0.39604  -0.38650  -0.37232  -0.36046
  Beta  occ. eigenvalues --   -0.34581  -0.33571  -0.33280  -0.32871  -0.32514
  Beta  occ. eigenvalues --   -0.31662  -0.31133  -0.30542  -0.29799  -0.29204
  Beta  occ. eigenvalues --   -0.28474  -0.27564  -0.27102  -0.26648  -0.26175
  Beta  occ. eigenvalues --   -0.25172  -0.24747  -0.24588  -0.23698  -0.19573
  Beta  occ. eigenvalues --   -0.18600  -0.16345  -0.15703  -0.14864  -0.13868
  Beta virt. eigenvalues --    0.06208   0.06462   0.06691   0.07341   0.07492
  Beta virt. eigenvalues --    0.07976   0.08524   0.08903   0.09037   0.09550
  Beta virt. eigenvalues --    0.10345   0.10762   0.11206   0.11554   0.11682

 Mulliken charges and spin densities:
               1          2
     1  C    0.128666  -0.757714
     2  C   -0.110124   0.112549
     3  C   -0.083419  -0.376797
     4  N    0.149877   0.126311
     5  C   -0.205115  -0.551546
     6  C    0.808062  -0.289730
     7  C    0.510900  -0.830442
     8  O   -0.306401   0.047897
     9  O   -0.238433   0.025825
    10  C    0.288260  -0.563769
    11  O   -0.348202   0.021862
    12  N   -0.126667   0.048894
    13  C   -0.376374  -0.048940
    14  C    0.034333  -0.360196
    15  C    0.304444  -0.256132
    16  C   -0.049350   0.221139
    17  C   -0.349390  -0.076747
    18  C   -0.197774   0.085036
    19  S   -0.048681  -0.129505
    20  H    0.066352   0.084672
    21  H   -0.136259   0.288024
    22  H    0.013650   0.154162
    23  H   -0.599261   0.831727
    24  H    0.013263   0.155350
    25  H    0.233572  -0.012029
    26  H    0.135530   0.093198
    27  H   -0.588655   0.785870
    28  H   -0.369294   0.680497
    29  H    0.103420   0.217879
    30  H    0.287178   0.002607
    31  H    0.022639   0.146173
    32  H   -0.142917   0.310215
    33  H   -0.454710   0.669398
    34  H    0.085809   0.113196
    35  H    0.201379   0.026663
    36  H    0.129765   0.004082
    37  H    0.213927   0.000321
 Sum of Mulliken charges =  -1.00000   1.00000

 Dipole moment (field-independent basis, Debye):
    X=             -5.3076    Y=             -2.7526    Z=              4.6060  Tot=              7.5474
 Quadrupole moment (field-independent basis, Debye-Ang):
   XX=           -203.4180   YY=           -159.4192   ZZ=           -161.2167
   XY=             -8.6106   XZ=              1.4947   YZ=              7.7293

 Summary of Natural Population Analysis:

                                       Natural Population
                Natural  -----------------------------------------------
    Atom  No    Charge         Core      Valence    Rydberg      Total
 -----------------------------------------------------------------------
      C    1   -0.28640      0.99964     2.27989    0.00687     3.28640
      C    2   -0.10962      0.99959     2.09826    0.01177     3.10962
      C    3   -0.07975      0.99959     2.06860    0.01156     3.07975
      N    4   -0.26968      0.99964     2.75830    0.01173     3.76968
      C    5   -0.08226      0.99960     2.07029    0.01237     3.08226
      C    6   -0.15658      0.99952     2.14361    0.01345     3.15658
      C    7    0.41119      0.99967     1.56338    0.02576     2.58881
      O    8   -0.30569      0.99987     3.29972    0.00610     4.30569
      O    9   -0.34447      0.99987     3.33815    0.00645     4.34447
      C   10    0.41565      0.99966     1.56027    0.02442     2.58435
      O   11   -0.33860      0.99988     3.33411    0.00462     4.33860
      N   12   -0.33959      0.99970     2.83081    0.00908     3.83959
      C   13   -0.08414      0.99960     2.07278    0.01175     3.08414
      C   14   -0.21855      0.99957     2.20749    0.01149     3.21855
      C   15   -0.08563      0.99949     2.07294    0.01320     3.08563
      C   16   -0.13999      0.99945     2.13109    0.00945     3.13999
      C   17   -0.12692      0.99954     2.11834    0.00904     3.12692
      C   18   -0.19231      0.99955     2.18296    0.00980     3.19231
      S   19    0.19729      4.99940     2.78118    0.02213     7.80271
      H   20    0.10525      0.00000     0.39393    0.00083     0.39475
      H   21    0.10262      0.00000     0.39660    0.00078     0.39738
      H   22    0.09807      0.00000     0.40100    0.00093     0.40193
      H   23    0.10775      0.00000     0.38864    0.00361     0.39225
      H   24    0.10213      0.00000     0.39684    0.00103     0.39787
      H   25    0.10352      0.00000     0.39509    0.00139     0.39648
      H   26    0.10841      0.00000     0.38954    0.00204     0.39159
      H   27    0.10343      0.00000     0.39294    0.00363     0.39657
      H   28    0.12174      0.00000     0.37634    0.00192     0.37826
      H   29    0.24028      0.00000     0.25576    0.00396     0.25972
      H   30    0.19212      0.00000     0.30551    0.00237     0.30788
      H   31    0.09499      0.00000     0.40386    0.00115     0.40501
      H   32    0.10298      0.00000     0.39534    0.00167     0.39702
      H   33    0.10955      0.00000     0.38894    0.00151     0.39045
      H   34    0.11241      0.00000     0.38594    0.00165     0.38759
      H   35    0.12283      0.00000     0.37588    0.00128     0.37717
      H   36    0.10334      0.00000     0.39577    0.00089     0.39666
      H   37    0.10461      0.00000     0.39463    0.00076     0.39539
 =======================================================================
   * Total *    0.00000     22.99285    51.74471    0.26245    75.00000

 Normal termination of Gaussian 16 at Sat Dec 12 11:22:24 2020.
