 Gaussian 16, Revision A.03,

 -----------------------------------------------------------
 # opt freq B3LYP/6-31G(d) empiricaldispersion=gd3bj scf=xqc
 -----------------------------------------------------------

 -----------------------------
 CID_9615480_JID_6537_neutraal
 -----------------------------
 Symbolic Z-matrix:
 Charge =  0 Multiplicity = 1

 SCF Done:  E(RB3LYP) =  -723.221142152     A.U. after   14 cycles
 SCF Done:  E(RB3LYP) =  -723.222484602     A.U. after   13 cycles
 SCF Done:  E(RB3LYP) =  -723.222580127     A.U. after   11 cycles
 SCF Done:  E(RB3LYP) =  -723.222613032     A.U. after    9 cycles
 SCF Done:  E(RB3LYP) =  -723.222616022     A.U. after    9 cycles
 SCF Done:  E(RB3LYP) =  -723.222616430     A.U. after    8 cycles
 Optimization completed.
    -- Stationary point found.
 Normal termination of Gaussian 16 at Thu Dec 10 23:22:28 2020.

 --------------------------------------------------------------------
 #N Geom=AllCheck Guess=TCheck SCRF=Check GenChk RB3LYP/6-31G(d) Freq
 --------------------------------------------------------------------

 Structure from the checkpoint file:  "JID_6537.chk"
 -----------------------------
 CID_9615480_JID_6537_neutraal
 -----------------------------
 Charge =  0 Multiplicity = 1

 SCF Done:  E(RB3LYP) =  -723.222616430     A.U. after    1 cycles

  Exact polarizability: 373.589  -1.756 142.396  -0.005   0.001  50.029
 Approx polarizability: 515.630  17.177 254.071  -0.012   0.006  78.494

                      1                      2                      3
                      A                      A                      A
 Frequencies --     28.3977                44.9814                48.1519
 Red. masses --      5.9578                 5.0161                 5.8651
 Frc consts  --      0.0028                 0.0060                 0.0080
 IR Inten    --      0.4200                 0.4290                 0.4665

                      4                      5                      6
                      A                      A                      A
 Frequencies --     95.4949               130.4791               155.3054
 Red. masses --      4.7924                 5.2650                 5.3789
 Frc consts  --      0.0257                 0.0528                 0.0764
 IR Inten    --      1.9868                 0.3749                 5.9332

                      7                      8                      9
                      A                      A                      A
 Frequencies --    205.4334               222.7506               238.8801
 Red. masses --      3.2630                 7.4760                 4.2138
 Frc consts  --      0.0811                 0.2186                 0.1417
 IR Inten    --      0.4120                 0.9439                 0.4645

                     10                     11                     12
                      A                      A                      A
 Frequencies --    295.9657               316.5990               358.0558
 Red. masses --      6.1504                 3.3678                 1.1094
 Frc consts  --      0.3174                 0.1989                 0.0838
 IR Inten    --      4.6376                10.4401               124.1228

                     13                     14                     15
                      A                      A                      A
 Frequencies --    389.1791               417.0548               462.5279
 Red. masses --      6.0482                 4.6897                 3.1955
 Frc consts  --      0.5397                 0.4806                 0.4028
 IR Inten    --      5.8724                 8.4616                 3.7873

                     16                     17                     18
                      A                      A                      A
 Frequencies --    487.9173               534.2104               550.2757
 Red. masses --      7.6702                 7.5462                 5.5242
 Frc consts  --      1.0758                 1.2688                 0.9856
 IR Inten    --     14.0681                 3.0795                 1.2076

                     19                     20                     21
                      A                      A                      A
 Frequencies --    607.4266               612.5791               675.3385
 Red. masses --      3.2583                 4.2266                 4.7137
 Frc consts  --      0.7083                 0.9345                 1.2667
 IR Inten    --      9.5257                 0.1719                 0.0241

                     22                     23                     24
                      A                      A                      A
 Frequencies --    680.3101               699.5448               753.5076
 Red. masses --      6.7874                 2.3436                 1.2907
 Frc consts  --      1.8508                 0.6757                 0.4318
 IR Inten    --      5.1740                11.0415                41.2252

                     25                     26                     27
                      A                      A                      A
 Frequencies --    808.4447               814.2889               823.4369
 Red. masses --      1.3913                 4.6493                 5.8281
 Frc consts  --      0.5358                 1.8163                 2.3283
 IR Inten    --     25.6195                26.1662                26.2668

                     28                     29                     30
                      A                      A                      A
 Frequencies --    827.9724               845.8312               886.3289
 Red. masses --      1.2834                 1.5421                 1.3232
 Frc consts  --      0.5184                 0.6500                 0.6124
 IR Inten    --     13.1815                18.6636                 0.5811

                     31                     32                     33
                      A                      A                      A
 Frequencies --    908.1131               911.9665               973.0962
 Red. masses --      6.2164                 1.3707                 3.0543
 Frc consts  --      3.0204                 0.6716                 1.7040
 IR Inten    --     13.1794                 0.1010                 3.6143

                     34                     35                     36
                      A                      A                      A
 Frequencies --    982.4260               988.7842               989.6947
 Red. masses --      1.2841                 1.4559                 2.6122
 Frc consts  --      0.7302                 0.8386                 1.5075
 IR Inten    --      0.4006                14.7591                13.5676

                     37                     38                     39
                      A                      A                      A
 Frequencies --   1012.5907              1017.7007              1041.9893
 Red. masses --      1.5157                 6.2026                 1.4103
 Frc consts  --      0.9156                 3.7850                 0.9022
 IR Inten    --      1.8113                 3.8951                34.1765

                     40                     41                     42
                      A                      A                      A
 Frequencies --   1072.4350              1110.7619              1128.7608
 Red. masses --      4.5767                 1.5497                 2.7675
 Frc consts  --      3.1013                 1.1265                 2.0775
 IR Inten    --      2.0353                 7.8965                41.0591

                     43                     44                     45
                      A                      A                      A
 Frequencies --   1187.7016              1191.5092              1214.8260
 Red. masses --      1.8193                 1.1724                 1.3062
 Frc consts  --      1.5120                 0.9807                 1.1358
 IR Inten    --     34.6837                 3.1124               163.4452

                     46                     47                     48
                      A                      A                      A
 Frequencies --   1220.9778              1239.7529              1281.7477
 Red. masses --      1.7817                 3.2381                 1.6474
 Frc consts  --      1.5649                 2.9323                 1.5946
 IR Inten    --     85.8796                 0.2058                 4.6759

                     49                     50                     51
                      A                      A                      A
 Frequencies --   1332.5848              1350.5454              1363.9953
 Red. masses --      2.7294                 1.6168                 1.6934
 Frc consts  --      2.8557                 1.7375                 1.8563
 IR Inten    --    105.2485                 9.2791                16.6819

                     52                     53                     54
                      A                      A                      A
 Frequencies --   1383.2659              1413.3769              1444.2989
 Red. masses --      4.4362                 2.0896                 2.5861
 Frc consts  --      5.0012                 2.4594                 3.1784
 IR Inten    --     33.1166                 8.5244                 3.9787

                     55                     56                     57
                      A                      A                      A
 Frequencies --   1494.0132              1524.2105              1553.5929
 Red. masses --      3.1353                 4.4876                 2.6425
 Frc consts  --      4.1232                 6.1426                 3.7579
 IR Inten    --    113.2819                82.7170                 3.6799

                     58                     59                     60
                      A                      A                      A
 Frequencies --   1611.9416              1631.3500              1657.8270
 Red. masses --      6.5953                 6.2940                 5.8991
 Frc consts  --     10.0968                 9.8689                 9.5525
 IR Inten    --      9.5198                 1.6627               140.1263

                     61                     62                     63
                      A                      A                      A
 Frequencies --   1666.1851              1702.9230              3094.9901
 Red. masses --      6.0560                 7.6446                 1.0871
 Frc consts  --      9.9057                13.0616                 6.1353
 IR Inten    --     33.4945               220.5324                26.4689

                     64                     65                     66
                      A                      A                      A
 Frequencies --   3124.6057              3163.5486              3196.0155
 Red. masses --      1.0879                 1.0898                 1.0881
 Frc consts  --      6.2580                 6.4263                 6.5484
 IR Inten    --     11.9575                19.0907                13.4454

                     67                     68                     69
                      A                      A                      A
 Frequencies --   3220.7895              3235.6518              3271.3651
 Red. masses --      1.0929                 1.0930                 1.0910
 Frc consts  --      6.6800                 6.7421                 6.8789
 IR Inten    --      9.4821                 3.7642                 6.8069

                     70                     71                     72
                      A                      A                      A
 Frequencies --   3291.0506              3303.8755              3751.9079
 Red. masses --      1.0971                 1.1049                 1.0659
 Frc consts  --      7.0011                 7.1060                 8.8406
 IR Inten    --      0.0272                 0.4997                41.1646

 - Thermochemistry -
 -------------------
 Temperature   298.150 Kelvin.  Pressure   1.00000 Atm.
 Atom     1 has atomic number  6 and mass  12.00000

 Molecular mass:   214.07423 amu.
 Principal axes and moments of inertia in atomic units:
                           1         2         3
     Eigenvalues --   741.63306********************
           X            0.99999  -0.00348  -0.00000
           Y            0.00348   0.99999  -0.00001
           Z            0.00000   0.00001   1.00000
 This molecule is an asymmetric top.
 Rotational symmetry number  1.
 Warning -- assumption of classical behavior for rotation
           may cause significant error
 Rotational temperatures (Kelvin)      0.11679     0.00724     0.00682
 Rotational constants (GHZ):           2.43347     0.15084     0.14204
 Zero-point vibrational energy     522022.9 (Joules/Mol)
                                  124.76647 (Kcal/Mol)
 Warning -- explicit consideration of  20 degrees of freedom as
           vibrations may cause significant error
 Vibrational temperatures:     40.86    64.72    69.28   137.40   187.73
          (Kelvin)            223.45   295.57   320.49   343.70   425.83
                              455.52   515.16   559.94   600.05   665.47
                              702.00   768.61   791.72   873.95   881.36
                              971.66   978.81  1006.49  1084.13  1163.17
                             1171.58  1184.74  1191.27  1216.96  1275.23
                             1306.57  1312.12  1400.07  1413.49  1422.64
                             1423.95  1456.89  1464.24  1499.19  1542.99
                             1598.14  1624.03  1708.84  1714.32  1747.86
                             1756.71  1783.73  1844.15  1917.29  1943.13
                             1962.48  1990.21  2033.53  2078.02  2149.55
                             2193.00  2235.27  2319.22  2347.15  2385.24
                             2397.27  2450.13  4453.00  4495.61  4551.64
                             4598.35  4634.00  4655.38  4706.76  4735.09
                             4753.54  5398.16

 Zero-point correction=                           0.198828 (Hartree/Particle)
 Thermal correction to Energy=                    0.212306
 Thermal correction to Enthalpy=                  0.213250
 Thermal correction to Gibbs Free Energy=         0.156747
 Sum of electronic and zero-point Energies=           -723.023788
 Sum of electronic and thermal Energies=              -723.010310
 Sum of electronic and thermal Enthalpies=            -723.009366
 Sum of electronic and thermal Free Energies=         -723.065870

                     E (Thermal)             CV                S
                      KCal/Mol        Cal/Mol-Kelvin    Cal/Mol-Kelvin
 Total                  133.224             51.431            118.922
 Electronic               0.000              0.000              0.000
 Translational            0.889              2.981             41.987
 Rotational               0.889              2.981             33.088
 Vibrational            131.447             45.470             43.847
 Vibration     1          0.593              1.984              5.938
 Vibration     2          0.595              1.979              5.027
 Vibration     3          0.595              1.978              4.892
 Vibration     4          0.603              1.952              3.544
 Vibration     5          0.612              1.923              2.939
 Vibration     6          0.620              1.897              2.606
 Vibration     7          0.640              1.832              2.084
 Vibration     8          0.648              1.806              1.937
 Vibration     9          0.657              1.781              1.811
 Vibration    10          0.690              1.681              1.440
 Vibration    11          0.703              1.642              1.328
 Vibration    12          0.733              1.559              1.131
 Vibration    13          0.757              1.493              1.003
 Vibration    14          0.780              1.433              0.902
 Vibration    15          0.820              1.333              0.759
 Vibration    16          0.844              1.277              0.689
 Vibration    17          0.889              1.174              0.578
 Vibration    18          0.906              1.139              0.544
 Vibration    19          0.966              1.016              0.437
 Vibration    20          0.972              1.005              0.429

                           ! Non-Optimized Parameters !
 Normal termination of Gaussian 16 at Thu Dec 10 23:28:19 2020.

 ----------------------------------------------------------------------
 # B3LYP/6-311++G(d,p) empiricaldispersion=gd3bj scf=xqc pop=npa geom=c
 heck
 ----------------------------------------------------------------------

 -------------------------------------
 CID_9615480_JID_6537_Energie_neutraal
 -------------------------------------
 Structure from the checkpoint file:  "JID_6537.chk"
 Charge =  0 Multiplicity = 1

 SCF Done:  E(RB3LYP) =  -723.424187028     A.U. after   16 cycles
 Normal termination of Gaussian 16 at Thu Dec 10 23:30:49 2020.

 ----------------------------------------------------------------------
 # B3LYP/6-311++G(d,p) empiricaldispersion=gd3bj scf=xqc pop=npa geom=c
 heck
 ----------------------------------------------------------------------

 -----------------------------------
 CID_9615480_JID_6537_Energie_kation
 -----------------------------------
 Structure from the checkpoint file:  "JID_6537.chk"
 Charge =  1 Multiplicity = 2

 SCF Done:  E(UB3LYP) =  -723.149963999     A.U. after   24 cycles
 Normal termination of Gaussian 16 at Thu Dec 10 23:35:56 2020.
 Gaussian 16:  ES64L-G16RevA.03 25-Dec-2016

 ----------------------------------------------------------------------
 # B3LYP/6-311++G(d,p) empiricaldispersion=gd3bj scf=xqc pop=npa geom=c
 heck
 ----------------------------------------------------------------------

 ----------------------------------
 CID_9615480_JID_6537_Energie_anion
 ----------------------------------
 Structure from the checkpoint file:  "JID_6537.chk"
 Charge = -1 Multiplicity = 2

                         Standard orientation:
 ---------------------------------------------------------------------
 Center     Atomic      Atomic             Coordinates (Angstroms)
 Number     Number       Type             X           Y           Z
 ---------------------------------------------------------------------
      1          6           0       -3.888236    1.747252   -0.000510
      2          6           0       -2.552512    1.358798   -0.000399
      3          6           0       -2.228277   -0.007861   -0.000003
      4          6           0       -3.256501   -0.963026    0.000259
      5          6           0       -4.592545   -0.560961    0.000193
      6          6           0       -4.912768    0.800111   -0.000196
      7          8           0       -5.630095   -1.451445    0.000395
      8          6           0       -0.843019   -0.468151    0.000177
      9          7           0        0.150395    0.352538   -0.000057
     10          7           0        1.375052   -0.306571   -0.000118
     11          6           0        2.362584    0.525966   -0.000137
     12          6           0        3.720580    0.058818   -0.000007
     13          6           0        4.304049   -1.185756   -0.001001
     14          6           0        5.712648   -0.974547   -0.000390
     15          6           0        5.894641    0.380460    0.000440
     16          8           0        4.700136    1.024162    0.001085
     17          1           0       -4.142531    2.803352   -0.000802
     18          1           0       -1.750038    2.087091   -0.000621
     19          1           0       -3.005804   -2.022735    0.000516
     20          1           0       -5.957494    1.092890   -0.000229
     21          1           0       -5.271219   -2.352250    0.001402
     22          1           0       -0.660520   -1.547968    0.000255
     23          1           0        2.197918    1.606720   -0.000058
     24          1           0        3.769651   -2.124125   -0.001881
     25          1           0        6.488952   -1.726455   -0.000794
     26          1           0        6.768767    1.013353    0.001045
 ---------------------------------------------------------------------

 SCF Done:  E(UB3LYP) =  -723.456370926     A.U. after   22 cycles

 The electronic state is 2-A.
 Alpha  occ. eigenvalues --  -19.06157 -19.05283 -14.17854 -14.17662 -10.11790
 Alpha  occ. eigenvalues --  -10.10020 -10.09496 -10.05857 -10.05664 -10.05214
 Alpha  occ. eigenvalues --  -10.04942 -10.04872 -10.04515 -10.04416 -10.03937
 Alpha  occ. eigenvalues --  -10.03735  -0.98993  -0.96164  -0.84005  -0.73617
 Alpha  occ. eigenvalues --   -0.70146  -0.67964  -0.64153  -0.62397  -0.61430
 Alpha  occ. eigenvalues --   -0.52877  -0.50730  -0.49211  -0.47483  -0.44762
 Alpha  occ. eigenvalues --   -0.43178  -0.40122  -0.38691  -0.37694  -0.35971
 Alpha  occ. eigenvalues --   -0.34466  -0.33606  -0.32404  -0.31306  -0.30474
 Alpha  occ. eigenvalues --   -0.29835  -0.28366  -0.28001  -0.27214  -0.26239
 Alpha  occ. eigenvalues --   -0.25422  -0.24043  -0.22710  -0.22606  -0.19078
 Alpha  occ. eigenvalues --   -0.17636  -0.16676  -0.13639  -0.11611  -0.09386
 Alpha  occ. eigenvalues --   -0.08228   0.02017
 Alpha virt. eigenvalues --    0.07167   0.07790   0.08741   0.09551   0.09571
 Alpha virt. eigenvalues --    0.10540   0.10913   0.11151   0.11900   0.12881
 Alpha virt. eigenvalues --    0.13646   0.14312   0.14597   0.15526   0.15532

  Beta  occ. eigenvalues --  -19.05990 -19.05294 -14.17784 -14.17556 -10.11846
  Beta  occ. eigenvalues --  -10.09851 -10.09556 -10.05935 -10.05717 -10.05202
  Beta  occ. eigenvalues --  -10.04796 -10.04516 -10.04317 -10.04088 -10.03732
  Beta  occ. eigenvalues --  -10.03615  -0.98728  -0.96188  -0.83610  -0.73374
  Beta  occ. eigenvalues --   -0.69754  -0.67750  -0.63814  -0.62195  -0.61243
  Beta  occ. eigenvalues --   -0.52292  -0.50537  -0.48900  -0.47283  -0.44622
  Beta  occ. eigenvalues --   -0.43001  -0.39924  -0.38420  -0.37459  -0.35784
  Beta  occ. eigenvalues --   -0.34271  -0.32906  -0.32288  -0.31214  -0.30356
  Beta  occ. eigenvalues --   -0.29745  -0.28241  -0.27937  -0.27049  -0.25260
  Beta  occ. eigenvalues --   -0.25119  -0.23965  -0.22425  -0.22095  -0.18854
  Beta  occ. eigenvalues --   -0.16361  -0.15907  -0.12723  -0.10904  -0.09272
  Beta  occ. eigenvalues --   -0.06955
  Beta virt. eigenvalues --    0.07155   0.07156   0.07761   0.08718   0.09521
  Beta virt. eigenvalues --    0.10524   0.10926   0.11130   0.11136   0.11879
  Beta virt. eigenvalues --    0.12864   0.14287   0.14320   0.14668   0.15524

 Mulliken charges and spin densities:
               1          2
     1  C   -0.419345  -0.037690
     2  C   -0.015289   0.122805
     3  C    1.229735   0.009685
     4  C   -0.641867   0.103919
     5  C   -0.418485  -0.036075
     6  C   -0.176752   0.157259
     7  O   -0.261176  -0.000801
     8  C   -0.756767   0.195451
     9  N   -0.025850   0.050103
    10  N   -0.008936   0.015642
    11  C   -0.461318   0.230784
    12  C   -0.111389  -0.006226
    13  C    0.242549   0.156622
    14  C   -0.418992  -0.049316
    15  C   -0.078847   0.136468
    16  O   -0.063945   0.028185
    17  H    0.143203   0.002491
    18  H    0.150856  -0.006295
    19  H    0.071385  -0.007380
    20  H    0.132724  -0.012597
    21  H    0.256902  -0.000074
    22  H    0.121199  -0.017315
    23  H    0.091598  -0.018656
    24  H    0.155926  -0.011213
    25  H    0.126889   0.003917
    26  H    0.135991  -0.009693
 Sum of Mulliken charges =  -1.00000   1.00000

 Dipole moment (field-independent basis, Debye):
    X=             -0.7315    Y=             -1.6706    Z=              0.0010  Tot=              1.8237
 Quadrupole moment (field-independent basis, Debye-Ang):
   XX=           -163.2319   YY=            -93.0268   ZZ=           -104.5114
   XY=              4.1619   XZ=             -0.0091   YZ=             -0.0045

 Summary of Natural Population Analysis:

                                       Natural Population
                Natural  -----------------------------------------------
    Atom  No    Charge         Core      Valence    Rydberg      Total
 -----------------------------------------------------------------------
      C    1   -0.11178      0.99958     2.10325    0.00894     3.11178
      C    2   -0.07627      0.99953     2.06820    0.00853     3.07627
      C    3   -0.03599      0.99952     2.02680    0.00967     3.03599
      C    4   -0.10506      0.99949     2.09734    0.00824     3.10506
      C    5    0.13885      0.99939     1.84966    0.01210     2.86115
      C    6   -0.09898      0.99953     2.08979    0.00966     3.09898
      O    7   -0.34909      0.99988     3.34292    0.00630     4.34909
      C    8    0.10566      0.99961     1.87929    0.01544     2.89434
      N    9   -0.15293      0.99965     2.63618    0.01709     3.65293
      N   10   -0.15834      0.99967     2.64137    0.01731     3.65834
      C   11    0.08970      0.99960     1.89556    0.01514     2.91030
      C   12    0.11551      0.99947     1.87062    0.01440     2.88449
      C   13   -0.09935      0.99952     2.09167    0.00816     3.09935
      C   14   -0.17802      0.99958     2.17021    0.00823     3.17802
      C   15    0.08421      0.99954     1.90151    0.01474     2.91579
      O   16   -0.22044      0.99986     3.21260    0.00798     4.22044
      H   17    0.09271      0.00000     0.40630    0.00100     0.40729
      H   18    0.10719      0.00000     0.39165    0.00116     0.39281
      H   19    0.08961      0.00000     0.40873    0.00166     0.41039
      H   20    0.09555      0.00000     0.40338    0.00107     0.40445
      H   21    0.22888      0.00000     0.26877    0.00235     0.27112
      H   22    0.06798      0.00000     0.42875    0.00327     0.43202
      H   23    0.07737      0.00000     0.41958    0.00305     0.42263
      H   24    0.10764      0.00000     0.39145    0.00092     0.39236
      H   25    0.10030      0.00000     0.39884    0.00086     0.39970
      H   26    0.08511      0.00000     0.41397    0.00091     0.41489
 =======================================================================
   * Total *   -0.00000     15.99341    39.80840    0.19819    56.00000

 Normal termination of Gaussian 16 at Thu Dec 10 23:40:37 2020.
