 Gaussian 16, Revision A.03,

 -----------------------------------------------------------
 # opt freq B3LYP/6-31G(d) empiricaldispersion=gd3bj scf=xqc
 -----------------------------------------------------------

 ------------------------------
 CID_129924889_JID_604_neutraal
 ------------------------------
 Symbolic Z-matrix:
 Charge =  0 Multiplicity = 1

 SCF Done:  E(RB3LYP) =  -870.754742375     A.U. after   14 cycles
 SCF Done:  E(RB3LYP) =  -870.751194753     A.U. after   14 cycles
 SCF Done:  E(RB3LYP) =  -870.757890690     A.U. after   13 cycles
 SCF Done:  E(RB3LYP) =  -870.759554115     A.U. after   13 cycles
 SCF Done:  E(RB3LYP) =  -870.760202569     A.U. after   13 cycles
 SCF Done:  E(RB3LYP) =  -870.760672238     A.U. after   12 cycles
 SCF Done:  E(RB3LYP) =  -870.760791299     A.U. after   12 cycles
 SCF Done:  E(RB3LYP) =  -870.760869323     A.U. after   12 cycles
 SCF Done:  E(RB3LYP) =  -870.760953102     A.U. after   12 cycles
 SCF Done:  E(RB3LYP) =  -870.760970498     A.U. after   10 cycles
 SCF Done:  E(RB3LYP) =  -870.760975384     A.U. after   10 cycles
 SCF Done:  E(RB3LYP) =  -870.760977530     A.U. after   10 cycles
 SCF Done:  E(RB3LYP) =  -870.760978617     A.U. after    9 cycles
 SCF Done:  E(RB3LYP) =  -870.760978837     A.U. after    8 cycles
 SCF Done:  E(RB3LYP) =  -870.760978924     A.U. after    7 cycles
 Optimization completed.
    -- Stationary point found.
 Normal termination of Gaussian 16 at Tue Dec  8 12:23:53 2020.

 --------------------------------------------------------------------
 #N Geom=AllCheck Guess=TCheck SCRF=Check GenChk RB3LYP/6-31G(d) Freq
 --------------------------------------------------------------------

 Structure from the checkpoint file:  "JID_604.chk"
 ------------------------------
 CID_129924889_JID_604_neutraal
 ------------------------------
 Charge =  0 Multiplicity = 1

 SCF Done:  E(RB3LYP) =  -870.760978924     A.U. after    1 cycles

  Exact polarizability: 123.171   5.587  71.742   5.157  -6.513  68.689
 Approx polarizability: 169.652   8.193 102.808  10.013 -16.769 114.760

                      1                      2                      3
                      A                      A                      A
 Frequencies --     41.7051                60.0822                91.6481
 Red. masses --      5.5280                 6.0745                 6.9884
 Frc consts  --      0.0057                 0.0129                 0.0346
 IR Inten    --      1.5650                 0.2496                 1.2604

                      4                      5                      6
                      A                      A                      A
 Frequencies --    157.3057               195.1037               225.3507
 Red. masses --      4.4151                 8.7102                 1.3470
 Frc consts  --      0.0644                 0.1953                 0.0403
 IR Inten    --      7.2666                 5.6536                 1.0489

                      7                      8                      9
                      A                      A                      A
 Frequencies --    254.3181               274.1872               303.5679
 Red. masses --      2.1063                 3.8891                 5.4216
 Frc consts  --      0.0803                 0.1723                 0.2944
 IR Inten    --      3.3276                 1.5221                 2.3681

                     10                     11                     12
                      A                      A                      A
 Frequencies --    347.5863               454.4919               498.4491
 Red. masses --      3.2612                 3.3751                 4.2984
 Frc consts  --      0.2321                 0.4108                 0.6292
 IR Inten    --      8.7986                 4.9422                30.6702

                     13                     14                     15
                      A                      A                      A
 Frequencies --    541.6437               589.8899               618.0466
 Red. masses --      3.0156                 1.3248                 2.3472
 Frc consts  --      0.5212                 0.2716                 0.5283
 IR Inten    --     37.2325                26.3377                67.7560

                     16                     17                     18
                      A                      A                      A
 Frequencies --    628.3359               648.2505               680.6066
 Red. masses --      1.5106                 2.0460                 1.6674
 Frc consts  --      0.3514                 0.5066                 0.4551
 IR Inten    --     61.4550                32.0744               307.9863

                     19                     20                     21
                      A                      A                      A
 Frequencies --    696.0002               765.0205               780.7080
 Red. masses --      2.7868                 2.8022                 1.8901
 Frc consts  --      0.7954                 0.9663                 0.6788
 IR Inten    --    110.7825                34.4987                71.3192

                     22                     23                     24
                      A                      A                      A
 Frequencies --    830.0268               867.0289               949.6107
 Red. masses --      1.9199                 2.8167                 1.4818
 Frc consts  --      0.7793                 1.2476                 0.7873
 IR Inten    --      3.0761                50.2291                 9.3665

                     25                     26                     27
                      A                      A                      A
 Frequencies --   1056.9436              1074.8849              1119.8133
 Red. masses --      2.7164                 1.9057                 2.3058
 Frc consts  --      1.7879                 1.2973                 1.7036
 IR Inten    --     54.5000                42.3689                34.2240

                     28                     29                     30
                      A                      A                      A
 Frequencies --   1176.9687              1180.7026              1237.0661
 Red. masses --      2.8299                 3.1672                 2.3700
 Frc consts  --      2.3096                 2.6014                 2.1369
 IR Inten    --     91.1516               176.2497                24.7885

                     31                     32                     33
                      A                      A                      A
 Frequencies --   1312.3990              1323.7267              1357.2664
 Red. masses --      1.3758                 1.5272                 1.5791
 Frc consts  --      1.3962                 1.5767                 1.7139
 IR Inten    --      0.8221               127.9957                37.8746

                     34                     35                     36
                      A                      A                      A
 Frequencies --   1412.6871              1440.2318              1457.1997
 Red. masses --      1.5395                 1.4839                 4.2603
 Frc consts  --      1.8102                 1.8135                 5.3300
 IR Inten    --     27.0233                22.8218                93.5197

                     37                     38                     39
                      A                      A                      A
 Frequencies --   1508.1501              1520.6372              1531.6196
 Red. masses --      1.2096                 1.0876                 1.1567
 Frc consts  --      1.6210                 1.4818                 1.5988
 IR Inten    --     77.3815                52.4930                42.1760

                     40                     41                     42
                      A                      A                      A
 Frequencies --   1551.2542              1690.7819              1820.2949
 Red. masses --      1.2088                 1.2144                 9.1160
 Frc consts  --      1.7138                 2.0455                17.7966
 IR Inten    --     44.8341               131.1474               266.0205

                     43                     44                     45
                      A                      A                      A
 Frequencies --   3063.9137              3102.3172              3138.8611
 Red. masses --      1.0382                 1.0850                 1.0989
 Frc consts  --      5.7421                 6.1527                 6.3790
 IR Inten    --     13.4153                 4.4019                18.7455

                     46                     47                     48
                      A                      A                      A
 Frequencies --   3161.6301              3451.5799              3506.9214
 Red. masses --      1.1045                 1.0595                 1.0744
 Frc consts  --      6.5048                 7.4367                 7.7855
 IR Inten    --      9.1231               320.9278                 5.1265

                     49                     50                     51
                      A                      A                      A
 Frequencies --   3575.7676              3658.4585              3671.3841
 Red. masses --      1.0776                 1.0894                 1.0643
 Frc consts  --      8.1176                 8.5911                 8.4520
 IR Inten    --     33.4243                91.6520                54.7609

 - Thermochemistry -
 -------------------
 Temperature   298.150 Kelvin.  Pressure   1.00000 Atm.
 Atom     1 has atomic number  6 and mass  12.00000

 Molecular mass:   163.04155 amu.
 Principal axes and moments of inertia in atomic units:
                           1         2         3
     Eigenvalues --   820.441193055.456003352.41151
           X            0.99982   0.01888  -0.00188
           Y           -0.01888   0.99982  -0.00046
           Z            0.00187   0.00050   1.00000
 This molecule is an asymmetric top.
 Rotational symmetry number  1.
 Warning -- assumption of classical behavior for rotation
           may cause significant error
 Rotational temperatures (Kelvin)      0.10557     0.02835     0.02584
 Rotational constants (GHZ):           2.19972     0.59066     0.53834
 Zero-point vibrational energy     398371.0 (Joules/Mol)
                                   95.21295 (Kcal/Mol)
 Warning -- explicit consideration of  15 degrees of freedom as
           vibrations may cause significant error
 Vibrational temperatures:     60.00    86.44   131.86   226.33   280.71
          (Kelvin)            324.23   365.91   394.49   436.77   500.10
                              653.91   717.16   779.30   848.72   889.23
                              904.04   932.69   979.24  1001.39  1100.69
                             1123.26  1194.22  1247.46  1366.28  1520.71
                             1546.52  1611.16  1693.40  1698.77  1779.86
                             1888.25  1904.55  1952.80  2032.54  2072.17
                             2096.59  2169.89  2187.86  2203.66  2231.91
                             2432.66  2619.00  4408.29  4463.54  4516.12
                             4548.88  4966.05  5045.68  5144.73  5263.71
                             5282.30

 Zero-point correction=                           0.151731 (Hartree/Particle)
 Thermal correction to Energy=                    0.162478
 Thermal correction to Enthalpy=                  0.163422
 Thermal correction to Gibbs Free Energy=         0.114395
 Sum of electronic and zero-point Energies=           -870.609247
 Sum of electronic and thermal Energies=              -870.598501
 Sum of electronic and thermal Enthalpies=            -870.597557
 Sum of electronic and thermal Free Energies=         -870.646584

                     E (Thermal)             CV                S
                      KCal/Mol        Cal/Mol-Kelvin    Cal/Mol-Kelvin
 Total                  101.956             39.053            103.185
 Electronic               0.000              0.000              0.000
 Translational            0.889              2.981             41.175
 Rotational               0.889              2.981             30.509
 Vibrational            100.179             33.092             31.502
 Vibration     1          0.594              1.981              5.176
 Vibration     2          0.597              1.973              4.454
 Vibration     3          0.602              1.955              3.625
 Vibration     4          0.621              1.894              2.582
 Vibration     5          0.636              1.847              2.179
 Vibration     6          0.650              1.802              1.916
 Vibration     7          0.665              1.756              1.700
 Vibration     8          0.677              1.721              1.570
 Vibration     9          0.695              1.667              1.397
 Vibration    10          0.725              1.580              1.177
 Vibration    11          0.813              1.351              0.782
 Vibration    12          0.854              1.253              0.662
 Vibration    13          0.897              1.158              0.562
 Vibration    14          0.947              1.053              0.467
 Vibration    15          0.978              0.994              0.420

 Optimization completed.
    -- Stationary point found.
 Normal termination of Gaussian 16 at Tue Dec  8 12:27:37 2020.

 ----------------------------------------------------------------------
 # B3LYP/6-311++G(d,p) empiricaldispersion=gd3bj scf=xqc pop=npa geom=c
 heck
 ----------------------------------------------------------------------

 --------------------------------------
 CID_129924889_JID_604_Energie_neutraal
 --------------------------------------
 Structure from the checkpoint file:  "JID_604.chk"
 Charge =  0 Multiplicity = 1

 SCF Done:  E(RB3LYP) =  -870.947422273     A.U. after   15 cycles
 Normal termination of Gaussian 16 at Tue Dec  8 12:29:26 2020.

 ----------------------------------------------------------------------
 # B3LYP/6-311++G(d,p) empiricaldispersion=gd3bj scf=xqc pop=npa geom=c
 heck
 ----------------------------------------------------------------------

 ------------------------------------
 CID_129924889_JID_604_Energie_kation
 ------------------------------------
 Structure from the checkpoint file:  "JID_604.chk"
 Charge =  1 Multiplicity = 2

 SCF Done:  E(UB3LYP) =  -870.651284482     A.U. after   33 cycles
 SCF Done:  E(UB3LYP) =  -870.651284482     a.u. after    2 cycles
 Normal termination of Gaussian 16 at Tue Dec  8 12:41:16 2020.
 Gaussian 16:  ES64L-G16RevA.03 25-Dec-2016

 ----------------------------------------------------------------------
 # B3LYP/6-311++G(d,p) empiricaldispersion=gd3bj scf=xqc pop=npa geom=c
 heck
 ----------------------------------------------------------------------

 -----------------------------------
 CID_129924889_JID_604_Energie_anion
 -----------------------------------
 Structure from the checkpoint file:  "JID_604.chk"
 Charge = -1 Multiplicity = 2

                         Standard orientation:
 ---------------------------------------------------------------------
 Center     Atomic      Atomic             Coordinates (Angstroms)
 Number     Number       Type             X           Y           Z
 ---------------------------------------------------------------------
      1          6           0        2.719186    1.463270    0.486440
      2          6           0        1.572677    0.764027   -0.260554
      3          6           0        1.795916   -0.744631   -0.179828
      4          8           0        1.319337   -1.490841    0.655270
      5          8           0        2.660474   -1.172164   -1.116265
      6          7           0        0.305252    1.235545    0.277283
      7          7           0       -0.833207    0.779893   -0.434324
      8          6           0       -1.798872   -0.021913    0.132772
      9         16           0       -3.367723   -0.000287   -0.461463
     10          7           0       -1.401103   -0.771972    1.195374
     11          1           0        2.718526    1.178905    1.544923
     12          1           0        2.587984    2.545678    0.415907
     13          1           0        3.685536    1.186941    0.056733
     14          1           0        1.606139    1.044422   -1.317187
     15          1           0        2.789437   -2.129471   -0.971301
     16          1           0        0.196909    1.026045    1.268021
     17          1           0       -1.242149    1.508302   -1.008689
     18          1           0       -0.430701   -1.086060    1.232576
     19          1           0       -2.096631   -1.434904    1.509063
 ---------------------------------------------------------------------

 SCF Done:  E(UB3LYP) =  -870.940985662     A.U. after   32 cycles

 The electronic state is 2-A.
 Alpha  occ. eigenvalues --  -88.69172 -19.06837 -19.02373 -14.27467 -14.25630
 Alpha  occ. eigenvalues --  -14.23908 -10.20767 -10.18832 -10.12543 -10.07181
 Alpha  occ. eigenvalues --   -7.77953  -5.74373  -5.73765  -5.73496  -1.01460
 Alpha  occ. eigenvalues --   -0.93155  -0.92175  -0.83758  -0.75681  -0.66830
 Alpha  occ. eigenvalues --   -0.60788  -0.57445  -0.52789  -0.50082  -0.46306
 Alpha  occ. eigenvalues --   -0.43754  -0.41969  -0.39850  -0.38458  -0.36864
 Alpha  occ. eigenvalues --   -0.35825  -0.31871  -0.30961  -0.29204  -0.28433
 Alpha  occ. eigenvalues --   -0.27770  -0.27262  -0.23162  -0.21817  -0.19388
 Alpha  occ. eigenvalues --   -0.15765  -0.12385  -0.11831   0.04424
 Alpha virt. eigenvalues --    0.07159   0.07585   0.08112   0.08350   0.08969
 Alpha virt. eigenvalues --    0.10455   0.11135   0.11657   0.12515   0.12818
 Alpha virt. eigenvalues --    0.14011   0.14886   0.15651   0.16156   0.17586

  Beta  occ. eigenvalues --  -88.69170 -19.06740 -19.02313 -14.27462 -14.25615
  Beta  occ. eigenvalues --  -14.23881 -10.20703 -10.18767 -10.12521 -10.07108
  Beta  occ. eigenvalues --   -7.77951  -5.74374  -5.73757  -5.73494  -1.01306
  Beta  occ. eigenvalues --   -0.93065  -0.92082  -0.83704  -0.75635  -0.66732
  Beta  occ. eigenvalues --   -0.60737  -0.57252  -0.52738  -0.49926  -0.46253
  Beta  occ. eigenvalues --   -0.43700  -0.41863  -0.39753  -0.38413  -0.36783
  Beta  occ. eigenvalues --   -0.35582  -0.31774  -0.30846  -0.29080  -0.28325
  Beta  occ. eigenvalues --   -0.27700  -0.27170  -0.22937  -0.21765  -0.19310
  Beta  occ. eigenvalues --   -0.15692  -0.12332  -0.11822
  Beta virt. eigenvalues --    0.07212   0.07886   0.08372   0.08763   0.09063
  Beta virt. eigenvalues --    0.09439   0.11046   0.11853   0.12017   0.12790
  Beta virt. eigenvalues --    0.13038   0.14135   0.14939   0.15844   0.16183

 Mulliken charges and spin densities:
               1          2
     1  C    1.248104  -1.603699
     2  C   -0.075828  -0.320247
     3  C    0.613446  -0.612027
     4  O   -0.291489   0.005465
     5  O   -0.256051   0.133824
     6  N    0.038671  -0.018165
     7  N   -0.243039   0.133634
     8  C    0.093879   0.056841
     9  S   -0.797831   0.034204
    10  N   -0.256004  -0.041558
    11  H   -0.220808   0.374339
    12  H   -0.609941   0.792766
    13  H   -0.305096   0.469664
    14  H   -0.186128   0.425474
    15  H   -0.685270   0.997092
    16  H    0.248924   0.018324
    17  H    0.229109   0.040628
    18  H    0.270451   0.041609
    19  H    0.184905   0.071833
 Sum of Mulliken charges =  -1.00000   1.00000

 Dipole moment (field-independent basis, Debye):
    X=             -4.7631    Y=              1.2055    Z=              2.9370  Tot=              5.7242
 Quadrupole moment (field-independent basis, Debye-Ang):
   XX=           -141.3787   YY=           -105.8959   ZZ=            -90.7557
   XY=              4.0235   XZ=              2.5863   YZ=             -6.1218

 Summary of Natural Population Analysis:

                                       Natural Population
                Natural  -----------------------------------------------
    Atom  No    Charge         Core      Valence    Rydberg      Total
 -----------------------------------------------------------------------
      C    1   -0.28384      0.99964     2.27818    0.00602     3.28384
      C    2   -0.05594      0.99956     2.04187    0.01452     3.05594
      C    3    0.41923      0.99969     1.55505    0.02603     2.58077
      O    4   -0.32621      0.99985     3.31859    0.00777     4.32621
      O    5   -0.33497      0.99987     3.32780    0.00730     4.33497
      N    6   -0.24236      0.99973     2.72909    0.01354     3.74236
      N    7   -0.23028      0.99962     2.71681    0.01386     3.73028
      C    8    0.14893      0.99970     1.82987    0.02150     2.85107
      S    9   -0.15594      4.99957     3.14272    0.01365     8.15594
      N   10   -0.40552      0.99967     2.89610    0.00976     3.90552
      H   11    0.09972      0.00000     0.39875    0.00153     0.40028
      H   12    0.10882      0.00000     0.38837    0.00281     0.39118
      H   13    0.11244      0.00000     0.38571    0.00186     0.38756
      H   14    0.11196      0.00000     0.38578    0.00226     0.38804
      H   15    0.24951      0.00000     0.21117    0.03932     0.25049
      H   16    0.17870      0.00000     0.31765    0.00366     0.32130
      H   17    0.19673      0.00000     0.30145    0.00182     0.30327
      H   18    0.21198      0.00000     0.28547    0.00256     0.28802
      H   19    0.19706      0.00000     0.30135    0.00160     0.30294
 =======================================================================
   * Total *    0.00000     13.99690    28.81176    0.19134    43.00000

 Normal termination of Gaussian 16 at Tue Dec  8 12:49:34 2020.
