 Gaussian 16, Revision A.03,

 -----------------------------------------------------------
 # opt freq B3LYP/6-31G(d) empiricaldispersion=gd3bj scf=xqc
 -----------------------------------------------------------

 -------------------------------
 CID_147162690_JID_5827_neutraal
 -------------------------------
 Symbolic Z-matrix:
 Charge =  0 Multiplicity = 1

 SCF Done:  E(RB3LYP) =  -1027.78796792     A.U. after   16 cycles
 SCF Done:  E(RB3LYP) =  -1027.79572531     A.U. after   13 cycles
 SCF Done:  E(RB3LYP) =  -1027.79676495     A.U. after   12 cycles
 SCF Done:  E(RB3LYP) =  -1027.79753423     A.U. after   12 cycles
 SCF Done:  E(RB3LYP) =  -1027.79810138     A.U. after   13 cycles
 SCF Done:  E(RB3LYP) =  -1027.79863382     A.U. after   12 cycles
 SCF Done:  E(RB3LYP) =  -1027.79905459     A.U. after   12 cycles
 SCF Done:  E(RB3LYP) =  -1027.79915528     A.U. after   12 cycles
 SCF Done:  E(RB3LYP) =  -1027.79919086     A.U. after   11 cycles
 SCF Done:  E(RB3LYP) =  -1027.79920048     A.U. after   10 cycles
 SCF Done:  E(RB3LYP) =  -1027.79920416     A.U. after    9 cycles
 SCF Done:  E(RB3LYP) =  -1027.79920488     A.U. after    8 cycles
 SCF Done:  E(RB3LYP) =  -1027.79920511     A.U. after    8 cycles
 SCF Done:  E(RB3LYP) =  -1027.79920535     A.U. after    7 cycles
 SCF Done:  E(RB3LYP) =  -1027.79920542     A.U. after    7 cycles
 SCF Done:  E(RB3LYP) =  -1027.79920544     A.U. after    6 cycles
 Optimization completed.
    -- Stationary point found.
 Normal termination of Gaussian 16 at Thu Dec 10 17:13:44 2020.

 --------------------------------------------------------------------
 #N Geom=AllCheck Guess=TCheck SCRF=Check GenChk RB3LYP/6-31G(d) Freq
 --------------------------------------------------------------------

 Structure from the checkpoint file:  "JID_5827.chk"
 -------------------------------
 CID_147162690_JID_5827_neutraal
 -------------------------------
 Charge =  0 Multiplicity = 1

 SCF Done:  E(RB3LYP) =  -1027.79920544     A.U. after    1 cycles

  Exact polarizability: 204.104  -2.673 148.663   7.907   7.481  96.324
 Approx polarizability: 322.345  11.738 224.227  23.310  22.196 147.825

                      1                      2                      3
                      A                      A                      A
 Frequencies --     25.9266                44.0156                54.3825
 Red. masses --      3.5600                 3.6400                 3.6223
 Frc consts  --      0.0014                 0.0042                 0.0063
 IR Inten    --      0.0086                 0.1028                 0.4017

                      4                      5                      6
                      A                      A                      A
 Frequencies --     83.6263                85.7748               119.7903
 Red. masses --      4.0051                 4.7420                 2.0775
 Frc consts  --      0.0165                 0.0206                 0.0176
 IR Inten    --      0.3130                 5.4291                 0.6563

                      7                      8                      9
                      A                      A                      A
 Frequencies --    148.1803               183.9714               194.2732
 Red. masses --      3.4531                 1.1078                 2.1856
 Frc consts  --      0.0447                 0.0221                 0.0486
 IR Inten    --      0.4573                 0.0563                 0.3082

                     10                     11                     12
                      A                      A                      A
 Frequencies --    251.0400               254.3012               283.4802
 Red. masses --      2.8699                 1.5523                 4.1184
 Frc consts  --      0.1066                 0.0591                 0.1950
 IR Inten    --      0.0118                 0.5235                 1.6893

                     13                     14                     15
                      A                      A                      A
 Frequencies --    298.3976               312.3539               364.2524
 Red. masses --      5.2436                 6.4012                 2.6700
 Frc consts  --      0.2751                 0.3680                 0.2087
 IR Inten    --      4.1015                 7.2969                 3.5543

                     16                     17                     18
                      A                      A                      A
 Frequencies --    403.5124               418.3500               439.7275
 Red. masses --      3.4521                 3.8815                 5.3532
 Frc consts  --      0.3312                 0.4002                 0.6099
 IR Inten    --      4.1789                 7.4744                13.4460

                     19                     20                     21
                      A                      A                      A
 Frequencies --    466.1035               500.6163               518.6769
 Red. masses --      5.7124                 4.1404                 5.6001
 Frc consts  --      0.7312                 0.6114                 0.8876
 IR Inten    --      8.2263                17.0788                 9.1891

                     22                     23                     24
                      A                      A                      A
 Frequencies --    597.2988               644.5454               659.1118
 Red. masses --      3.0977                 7.1284                 5.2236
 Frc consts  --      0.6511                 1.7448                 1.3370
 IR Inten    --      0.4088                 2.2090                 4.7243

                     25                     26                     27
                      A                      A                      A
 Frequencies --    690.5518               781.1006               786.7669
 Red. masses --      5.0622                 5.6953                 1.4277
 Frc consts  --      1.4223                 2.0473                 0.5207
 IR Inten    --     20.8385                 6.7189                 4.6159

                     28                     29                     30
                      A                      A                      A
 Frequencies --    807.5674               832.7807               852.1456
 Red. masses --      1.1521                 1.8816                 2.6725
 Frc consts  --      0.4427                 0.7689                 1.1434
 IR Inten    --      4.0925                 5.7990                 4.7892

                     31                     32                     33
                      A                      A                      A
 Frequencies --    883.6315               908.9953               917.3017
 Red. masses --      3.1925                 2.1192                 2.1805
 Frc consts  --      1.4687                 1.0317                 1.0810
 IR Inten    --      6.4335                14.4590                 0.3686

                     34                     35                     36
                      A                      A                      A
 Frequencies --    920.2100               981.8122              1042.2020
 Red. masses --      1.9120                 3.6562                 2.6055
 Frc consts  --      0.9539                 2.0765                 1.6674
 IR Inten    --     11.6610                10.6218                65.2384

                     37                     38                     39
                      A                      A                      A
 Frequencies --   1055.9122              1071.0430              1094.6629
 Red. masses --      1.7931                 1.3495                 1.3295
 Frc consts  --      1.1779                 0.9121                 0.9387
 IR Inten    --     27.1257                 8.3975                 3.3168

                     40                     41                     42
                      A                      A                      A
 Frequencies --   1097.6963              1119.5575              1148.2054
 Red. masses --      2.2058                 1.9392                 1.0975
 Frc consts  --      1.5660                 1.4321                 0.8525
 IR Inten    --      5.0810                 3.0676                 2.0700

                     43                     44                     45
                      A                      A                      A
 Frequencies --   1153.5855              1155.9713              1165.0332
 Red. masses --      2.3198                 1.8929                 1.3030
 Frc consts  --      1.8189                 1.4903                 1.0420
 IR Inten    --    122.2300                20.0336                 0.3758

                     46                     47                     48
                      A                      A                      A
 Frequencies --   1221.3740              1229.4767              1239.3616
 Red. masses --      1.3860                 2.4886                 2.4199
 Frc consts  --      1.2182                 2.2164                 2.1900
 IR Inten    --      0.9649                 2.3024                39.4782

                     49                     50                     51
                      A                      A                      A
 Frequencies --   1249.2244              1282.3865              1311.4673
 Red. masses --      3.2534                 3.5275                 1.2749
 Frc consts  --      2.9914                 3.4179                 1.2919
 IR Inten    --     82.5860                 1.6874                 3.8394

                     52                     53                     54
                      A                      A                      A
 Frequencies --   1336.9590              1368.6340              1395.4297
 Red. masses --      1.7079                 3.9342                 1.5054
 Frc consts  --      1.7987                 4.3420                 1.7271
 IR Inten    --      9.3543               189.7125                49.5051

                     55                     56                     57
                      A                      A                      A
 Frequencies --   1413.5907              1426.2074              1449.9079
 Red. masses --      1.3225                 2.2512                 1.2654
 Frc consts  --      1.5570                 2.6979                 1.5673
 IR Inten    --      0.6657               385.1455                16.0348

                     58                     59                     60
                      A                      A                      A
 Frequencies --   1464.6351              1484.7908              1485.0875
 Red. masses --      1.4246                 1.2412                 1.7298
 Frc consts  --      1.8005                 1.6123                 2.2478
 IR Inten    --     33.9882                12.8276                36.4340

                     61                     62                     63
                      A                      A                      A
 Frequencies --   1506.0746              1513.2990              1518.1148
 Red. masses --      1.0934                 1.0813                 1.0450
 Frc consts  --      1.4613                 1.4590                 1.4190
 IR Inten    --      9.4163                 1.0792                12.9486

                     64                     65                     66
                      A                      A                      A
 Frequencies --   1522.6064              1525.8490              1529.8477
 Red. masses --      1.3548                 1.1400                 1.0883
 Frc consts  --      1.8506                 1.5638                 1.5007
 IR Inten    --     22.2067                56.2551                 6.6938

                     67                     68                     69
                      A                      A                      A
 Frequencies --   1533.7766              1658.4956              1773.7880
 Red. masses --      1.0523                10.4063                11.9286
 Frc consts  --      1.4586                16.8646                22.1128
 IR Inten    --      6.4806                18.6578               338.7966

                     70                     71                     72
                      A                      A                      A
 Frequencies --   3049.9955              3058.0132              3084.5272
 Red. masses --      1.0608                 1.0359                 1.1013
 Frc consts  --      5.8141                 5.7073                 6.1733
 IR Inten    --     23.1335                18.3954                11.1834

                     73                     74                     75
                      A                      A                      A
 Frequencies --   3096.8811              3100.5694              3121.3117
 Red. masses --      1.0330                 1.0687                 1.1021
 Frc consts  --      5.8373                 6.0532                 6.3265
 IR Inten    --      8.2325                29.7045                50.7505

                     76                     77                     78
                      A                      A                      A
 Frequencies --   3135.6297              3153.6199              3155.5290
 Red. masses --      1.1028                 1.0500                 1.0576
 Frc consts  --      6.3883                 6.1524                 6.2047
 IR Inten    --     20.9361                15.9729                11.5240

                     79                     80                     81
                      A                      A                      A
 Frequencies --   3165.4417              3184.5263              3216.2251
 Red. masses --      1.1057                 1.0991                 1.1038
 Frc consts  --      6.5276                 6.5672                 6.7275
 IR Inten    --      5.6058                 2.9897                 2.6218

                     82                     83                     84
                      A                      A                      A
 Frequencies --   3227.4150              3234.8044              3249.5514
 Red. masses --      1.0919                 1.1208                 1.1146
 Frc consts  --      6.7009                 6.9101                 6.9345
 IR Inten    --      0.4900                 0.3471                13.2856

 - Thermochemistry -
 -------------------
 Temperature   298.150 Kelvin.  Pressure   1.00000 Atm.
 Atom     1 has atomic number  6 and mass  12.00000

 Molecular mass:   225.09358 amu.
 Principal axes and moments of inertia in atomic units:
                           1         2         3
     Eigenvalues --  2603.951513915.288345841.66893
           X            0.99994   0.00263  -0.01070
           Y           -0.00272   0.99997  -0.00751
           Z            0.01068   0.00754   0.99991
 This molecule is an asymmetric top.
 Rotational symmetry number  1.
 Warning -- assumption of classical behavior for rotation
           may cause significant error
 Rotational temperatures (Kelvin)      0.03326     0.02212     0.01483
 Rotational constants (GHZ):           0.69308     0.46095     0.30894
 Zero-point vibrational energy     654912.8 (Joules/Mol)
                                  156.52791 (Kcal/Mol)
 Warning -- explicit consideration of  22 degrees of freedom as
           vibrations may cause significant error
 Vibrational temperatures:     37.30    63.33    78.24   120.32   123.41
          (Kelvin)            172.35   213.20   264.69   279.52   361.19
                              365.88   407.86   429.33   449.41   524.08
                              580.56   601.91   632.67   670.62   720.28
                              746.26   859.38   927.36   948.31   993.55
                             1123.83  1131.98  1161.91  1198.19  1226.05
                             1271.35  1307.84  1319.79  1323.98  1412.61
                             1499.50  1519.22  1540.99  1574.98  1579.34
                             1610.79  1652.01  1659.75  1663.18  1676.22
                             1757.28  1768.94  1783.16  1797.36  1845.07
                             1886.91  1923.59  1969.16  2007.71  2033.84
                             2051.99  2086.09  2107.28  2136.28  2136.71
                             2166.91  2177.30  2184.23  2190.69  2195.36
                             2201.11  2206.76  2386.21  2552.09  4388.26
                             4399.80  4437.95  4455.72  4461.03  4490.87
                             4511.47  4537.36  4540.10  4554.36  4581.82
                             4627.43  4643.53  4654.16  4675.38

 Zero-point correction=                           0.249443 (Hartree/Particle)
 Thermal correction to Energy=                    0.264591
 Thermal correction to Enthalpy=                  0.265535
 Thermal correction to Gibbs Free Energy=         0.205689
 Sum of electronic and zero-point Energies=          -1027.549762
 Sum of electronic and thermal Energies=             -1027.534614
 Sum of electronic and thermal Enthalpies=           -1027.533670
 Sum of electronic and thermal Free Energies=        -1027.593516

                     E (Thermal)             CV                S
                      KCal/Mol        Cal/Mol-Kelvin    Cal/Mol-Kelvin
 Total                  166.033             55.982            125.957
 Electronic               0.000              0.000              0.000
 Translational            0.889              2.981             42.136
 Rotational               0.889              2.981             32.454
 Vibrational            164.256             50.020             51.366
 Vibration     1          0.593              1.985              6.119
 Vibration     2          0.595              1.980              5.070
 Vibration     3          0.596              1.976              4.651
 Vibration     4          0.601              1.960              3.804
 Vibration     5          0.601              1.959              3.754
 Vibration     6          0.609              1.933              3.104
 Vibration     7          0.618              1.905              2.695
 Vibration     8          0.631              1.862              2.288
 Vibration     9          0.635              1.848              2.187
 Vibration    10          0.663              1.761              1.723
 Vibration    11          0.665              1.756              1.701
 Vibration    12          0.682              1.704              1.513
 Vibration    13          0.691              1.677              1.426
 Vibration    14          0.701              1.650              1.350
 Vibration    15          0.738              1.546              1.104
 Vibration    16          0.769              1.463              0.950
 Vibration    17          0.781              1.430              0.898
 Vibration    18          0.800              1.384              0.827
 Vibration    19          0.823              1.325              0.749
 Vibration    20          0.856              1.249              0.657
 Vibration    21          0.874              1.209              0.613
 Vibration    22          0.955              1.038              0.454

 Optimization completed.
    -- Stationary point found.
 Normal termination of Gaussian 16 at Thu Dec 10 17:24:40 2020.

 ----------------------------------------------------------------------
 # B3LYP/6-311++G(d,p) empiricaldispersion=gd3bj scf=xqc pop=npa geom=c
 heck
 ----------------------------------------------------------------------

 ---------------------------------------
 CID_147162690_JID_5827_Energie_neutraal
 ---------------------------------------
 Structure from the checkpoint file:  "JID_5827.chk"
 Charge =  0 Multiplicity = 1

 SCF Done:  E(RB3LYP) =  -1027.99379920     A.U. after   16 cycles
 Normal termination of Gaussian 16 at Thu Dec 10 17:30:09 2020.

 ----------------------------------------------------------------------
 # B3LYP/6-311++G(d,p) empiricaldispersion=gd3bj scf=xqc pop=npa geom=c
 heck
 ----------------------------------------------------------------------

 -------------------------------------
 CID_147162690_JID_5827_Energie_kation
 -------------------------------------
 Structure from the checkpoint file:  "JID_5827.chk"
 Charge =  1 Multiplicity = 2

 SCF Done:  E(UB3LYP) =  -1027.69864923     A.U. after   31 cycles
 Normal termination of Gaussian 16 at Thu Dec 10 17:45:01 2020.
 Gaussian 16:  ES64L-G16RevA.03 25-Dec-2016

 ----------------------------------------------------------------------
 # B3LYP/6-311++G(d,p) empiricaldispersion=gd3bj scf=xqc pop=npa geom=c
 heck
 ----------------------------------------------------------------------

 ------------------------------------
 CID_147162690_JID_5827_Energie_anion
 ------------------------------------
 Structure from the checkpoint file:  "JID_5827.chk"
 Charge = -1 Multiplicity = 2

                         Standard orientation:
 ---------------------------------------------------------------------
 Center     Atomic      Atomic             Coordinates (Angstroms)
 Number     Number       Type             X           Y           Z
 ---------------------------------------------------------------------
      1          6           0       -1.969772   -2.386877    1.492920
      2          6           0       -1.237122   -2.862667    0.236897
      3          6           0       -1.259862   -1.852455   -0.911692
      4          7           0       -0.593820   -0.589381   -0.542003
      5          6           0       -1.282571    0.576196   -0.295874
      6         16           0       -2.946339    0.713843   -0.429444
      7          7           0       -0.486108    1.653183    0.075256
      8          6           0        0.907031    1.589370    0.221876
      9          8           0        1.577981    2.553298    0.560672
     10          6           0        1.480712    0.265128   -0.070399
     11          7           0        0.746983   -0.738254   -0.428395
     12          6           0        2.942184    0.099458    0.057851
     13          6           0        3.500901   -1.208860    0.595637
     14          6           0        3.669693   -0.875544   -0.851444
     15          6           0       -1.126528    2.944835    0.348361
     16          1           0       -1.508871   -1.480926    1.901577
     17          1           0       -1.938993   -3.155563    2.272427
     18          1           0       -3.017049   -2.152359    1.279071
     19          1           0       -0.192576   -3.098244    0.474388
     20          1           0       -1.691572   -3.788499   -0.138493
     21          1           0       -0.715232   -2.239822   -1.776801
     22          1           0       -2.277138   -1.604253   -1.207450
     23          1           0        3.451477    1.015134    0.331735
     24          1           0        4.361265   -1.147901    1.255359
     25          1           0        2.769830   -1.968719    0.855604
     26          1           0        3.053083   -1.411503   -1.566798
     27          1           0        4.650032   -0.579739   -1.212809
     28          1           0       -1.669990    3.276480   -0.538070
     29          1           0       -1.838703    2.834049    1.168153
     30          1           0       -0.335371    3.643653    0.609029
 ---------------------------------------------------------------------

 SCF Done:  E(UB3LYP) =  -1028.01414835     A.U. after   26 cycles

 The electronic state is 2-A.
 Alpha  occ. eigenvalues --  -88.65717 -18.93381 -14.25356 -14.21972 -14.16338
 Alpha  occ. eigenvalues --  -10.14834 -10.11072 -10.08235 -10.06627 -10.06003
 Alpha  occ. eigenvalues --  -10.05063 -10.04577 -10.04539 -10.04516 -10.03691
 Alpha  occ. eigenvalues --   -7.74572  -5.70989  -5.70390  -5.70099  -0.91293
 Alpha  occ. eigenvalues --   -0.88249  -0.80873  -0.74512  -0.71055  -0.66846
 Alpha  occ. eigenvalues --   -0.61774  -0.58627  -0.57203  -0.52676  -0.49501
 Alpha  occ. eigenvalues --   -0.47707  -0.47320  -0.45499  -0.41791  -0.38748
 Alpha  occ. eigenvalues --   -0.36354  -0.35568  -0.34220  -0.33476  -0.32489
 Alpha  occ. eigenvalues --   -0.30740  -0.29181  -0.28713  -0.28334  -0.27466
 Alpha  occ. eigenvalues --   -0.25558  -0.25078  -0.24587  -0.24209  -0.23567
 Alpha  occ. eigenvalues --   -0.22522  -0.22419  -0.20944  -0.18189  -0.16457
 Alpha  occ. eigenvalues --   -0.16161  -0.11853  -0.10309  -0.08415  -0.08057
 Alpha  occ. eigenvalues --    0.04071
 Alpha virt. eigenvalues --    0.08006   0.08904   0.09718   0.10010   0.10710
 Alpha virt. eigenvalues --    0.11142   0.11212   0.11656   0.12418   0.13315
 Alpha virt. eigenvalues --    0.13651   0.13949   0.14318   0.14691   0.15464

  Beta  occ. eigenvalues --  -88.65710 -18.93078 -14.25377 -14.21677 -14.15528
  Beta  occ. eigenvalues --  -10.14789 -10.10901 -10.08234 -10.06645 -10.06003
  Beta  occ. eigenvalues --  -10.05063 -10.04571 -10.04512 -10.04487 -10.03381
  Beta  occ. eigenvalues --   -7.74567  -5.70989  -5.70366  -5.70096  -0.90754
  Beta  occ. eigenvalues --   -0.87712  -0.80308  -0.74171  -0.70608  -0.66728
  Beta  occ. eigenvalues --   -0.61605  -0.58383  -0.56956  -0.52182  -0.49392
  Beta  occ. eigenvalues --   -0.47578  -0.47131  -0.45345  -0.41325  -0.38600
  Beta  occ. eigenvalues --   -0.36072  -0.35336  -0.34138  -0.33008  -0.32319
  Beta  occ. eigenvalues --   -0.30574  -0.29125  -0.28002  -0.27902  -0.27366
  Beta  occ. eigenvalues --   -0.24948  -0.24880  -0.24362  -0.24166  -0.23496
  Beta  occ. eigenvalues --   -0.22297  -0.21793  -0.19556  -0.17924  -0.15531
  Beta  occ. eigenvalues --   -0.15408  -0.10468  -0.09702  -0.08328  -0.06878
  Beta virt. eigenvalues --    0.07962   0.08861   0.09701   0.09993   0.10573
  Beta virt. eigenvalues --    0.11085   0.11367   0.11639   0.12306   0.12482
  Beta virt. eigenvalues --    0.13385   0.13647   0.13930   0.14293   0.14705

 Mulliken charges and spin densities:
               1          2
     1  C   -0.550953   0.009582
     2  C   -0.185633  -0.017923
     3  C   -0.172258  -0.001919
     4  N    0.466810  -0.056478
     5  C   -0.168384   0.052393
     6  S   -0.822820   0.011958
     7  N    0.133369   0.076985
     8  C   -0.181868   0.120254
     9  O   -0.415734   0.103924
    10  C   -0.085797   0.228708
    11  N   -0.237749   0.415668
    12  C    0.068432  -0.015797
    13  C   -0.376873   0.009341
    14  C   -0.407565   0.029570
    15  C   -0.135460  -0.013829
    16  H    0.171334  -0.003600
    17  H    0.106905   0.005438
    18  H    0.135853  -0.001431
    19  H    0.148038  -0.001158
    20  H    0.110238   0.000884
    21  H    0.129150   0.021951
    22  H    0.115840  -0.000396
    23  H    0.251719   0.002082
    24  H    0.102528   0.003109
    25  H    0.119567   0.004017
    26  H    0.148445  -0.001642
    27  H    0.103573   0.000840
    28  H    0.128784   0.008101
    29  H    0.127391   0.010111
    30  H    0.173116  -0.000741
 Sum of Mulliken charges =  -1.00000   1.00000

 Dipole moment (field-independent basis, Debye):
    X=             -0.0738    Y=             -3.5440    Z=              0.1997  Tot=              3.5504
 Quadrupole moment (field-independent basis, Debye-Ang):
   XX=           -137.2729   YY=           -120.1303   ZZ=           -107.1070
   XY=              0.1147   XZ=             -2.8747   YZ=             -1.3767

 Summary of Natural Population Analysis:

                                       Natural Population
                Natural  -----------------------------------------------
    Atom  No    Charge         Core      Valence    Rydberg      Total
 -----------------------------------------------------------------------
      C    1   -0.28840      0.99967     2.28411    0.00463     3.28840
      C    2   -0.19418      0.99964     2.18851    0.00604     3.19418
      C    3   -0.08126      0.99961     2.07176    0.00990     3.08126
      N    4   -0.14521      0.99961     2.62939    0.01621     3.64521
      C    5    0.15468      0.99962     1.82790    0.01780     2.84532
      S    6   -0.17158      4.99960     3.15778    0.01421     8.17158
      N    7   -0.20681      0.99959     2.69670    0.01052     3.70681
      C    8    0.34581      0.99960     1.63191    0.02268     2.65419
      O    9   -0.30551      0.99988     3.29971    0.00592     4.30551
      C   10    0.11035      0.99955     1.87425    0.01585     2.88965
      N   11   -0.03771      0.99963     2.52410    0.01398     3.53771
      C   12   -0.12523      0.99958     2.11575    0.00990     3.12523
      C   13   -0.18770      0.99964     2.18164    0.00642     3.18770
      C   14   -0.18923      0.99964     2.18318    0.00642     3.18923
      C   15   -0.18623      0.99965     2.17930    0.00728     3.18623
      H   16    0.10385      0.00000     0.39520    0.00094     0.39615
      H   17    0.09002      0.00000     0.40908    0.00090     0.40998
      H   18    0.10014      0.00000     0.39880    0.00106     0.39986
      H   19    0.10254      0.00000     0.39618    0.00127     0.39746
      H   20    0.08778      0.00000     0.41109    0.00114     0.41222
      H   21    0.09823      0.00000     0.40080    0.00097     0.40177
      H   22    0.11017      0.00000     0.38835    0.00148     0.38983
      H   23    0.11528      0.00000     0.38363    0.00109     0.38472
      H   24    0.09093      0.00000     0.40800    0.00108     0.40907
      H   25    0.10377      0.00000     0.39496    0.00127     0.39623
      H   26    0.10522      0.00000     0.39353    0.00124     0.39478
      H   27    0.09087      0.00000     0.40807    0.00106     0.40913
      H   28    0.09939      0.00000     0.39946    0.00116     0.40061
      H   29    0.09898      0.00000     0.39989    0.00113     0.40102
      H   30    0.11104      0.00000     0.38771    0.00125     0.38896
 =======================================================================
   * Total *   -0.00000     18.99448    40.82074    0.18478    60.00000

 Normal termination of Gaussian 16 at Thu Dec 10 17:57:14 2020.
