 Gaussian 16, Revision A.03,

 -----------------------------------------------------------
 # opt freq B3LYP/6-31G(d) empiricaldispersion=gd3bj scf=xqc
 -----------------------------------------------------------

 -------------------------------
 CID_114492283_JID_7737_neutraal
 -------------------------------
 Symbolic Z-matrix:
 Charge =  0 Multiplicity = 1

 SCF Done:  E(RB3LYP) =  -752.601955579     A.U. after   14 cycles
 SCF Done:  E(RB3LYP) =  -752.599353508     A.U. after   13 cycles
 SCF Done:  E(RB3LYP) =  -752.605036521     A.U. after   12 cycles
 SCF Done:  E(RB3LYP) =  -752.602389969     A.U. after   12 cycles
 SCF Done:  E(RB3LYP) =  -752.607110318     A.U. after   12 cycles
 SCF Done:  E(RB3LYP) =  -752.607475408     A.U. after   11 cycles
 SCF Done:  E(RB3LYP) =  -752.608119479     A.U. after   11 cycles
 SCF Done:  E(RB3LYP) =  -752.608314180     A.U. after   11 cycles
 SCF Done:  E(RB3LYP) =  -752.608371007     A.U. after   11 cycles
 SCF Done:  E(RB3LYP) =  -752.608427758     A.U. after   10 cycles
 SCF Done:  E(RB3LYP) =  -752.608440056     A.U. after    9 cycles
 SCF Done:  E(RB3LYP) =  -752.608445543     A.U. after    9 cycles
 SCF Done:  E(RB3LYP) =  -752.608446968     A.U. after    7 cycles
 SCF Done:  E(RB3LYP) =  -752.608447351     A.U. after    7 cycles
 SCF Done:  E(RB3LYP) =  -752.608447483     A.U. after    7 cycles
 Optimization completed.
    -- Stationary point found.
 Normal termination of Gaussian 16 at Fri Dec 11 13:14:27 2020.

 --------------------------------------------------------------------
 #N Geom=AllCheck Guess=TCheck SCRF=Check GenChk RB3LYP/6-31G(d) Freq
 --------------------------------------------------------------------

 Structure from the checkpoint file:  "JID_7737.chk"
 -------------------------------
 CID_114492283_JID_7737_neutraal
 -------------------------------
 Charge =  0 Multiplicity = 1

 SCF Done:  E(RB3LYP) =  -752.608447483     A.U. after    1 cycles

  Exact polarizability: 176.647  -6.195 168.019  22.847   4.546 127.405
 Approx polarizability: 238.441  -9.552 256.871  47.180  14.293 200.832

                      1                      2                      3
                      A                      A                      A
 Frequencies --     39.3365                49.4538                74.1072
 Red. masses --      3.4618                 3.9216                 3.5091
 Frc consts  --      0.0032                 0.0057                 0.0114
 IR Inten    --      0.9271                 0.1602                 0.5462

                      4                      5                      6
                      A                      A                      A
 Frequencies --     90.3315                98.3551               121.3261
 Red. masses --      3.0244                 2.2837                 2.1494
 Frc consts  --      0.0145                 0.0130                 0.0186
 IR Inten    --      1.9338                 0.1330                 1.5025

                      7                      8                      9
                      A                      A                      A
 Frequencies --    152.6210               184.9210               200.9632
 Red. masses --      2.8231                 2.6790                 3.7389
 Frc consts  --      0.0387                 0.0540                 0.0890
 IR Inten    --      0.7894                 1.3464                 0.8484

                     10                     11                     12
                      A                      A                      A
 Frequencies --    217.3774               228.2525               235.4946
 Red. masses --      2.9529                 1.7055                 1.0882
 Frc consts  --      0.0822                 0.0524                 0.0356
 IR Inten    --      2.3984                 2.3099                 0.3155

                     13                     14                     15
                      A                      A                      A
 Frequencies --    247.2003               268.2198               287.9177
 Red. masses --      2.8616                 1.1902                 3.7410
 Frc consts  --      0.1030                 0.0504                 0.1827
 IR Inten    --      3.7687                 0.9824                 2.8405

                     16                     17                     18
                      A                      A                      A
 Frequencies --    299.3444               307.8835               322.3464
 Red. masses --      2.6996                 2.4476                 1.9111
 Frc consts  --      0.1425                 0.1367                 0.1170
 IR Inten    --      0.5679                 2.3758                 0.7649

                     19                     20                     21
                      A                      A                      A
 Frequencies --    350.0865               371.4935               386.2855
 Red. masses --      1.7938                 2.6952                 2.1152
 Frc consts  --      0.1295                 0.2191                 0.1860
 IR Inten    --     11.7315                 4.0555                10.2460

                     22                     23                     24
                      A                      A                      A
 Frequencies --    416.8630               474.6277               475.6314
 Red. masses --      2.8306                 3.7993                 2.8332
 Frc consts  --      0.2898                 0.5043                 0.3776
 IR Inten    --      2.0295                 4.3980                 2.5689

                     25                     26                     27
                      A                      A                      A
 Frequencies --    503.8203               505.9078               549.9535
 Red. masses --      3.3664                 3.7733                 4.6661
 Frc consts  --      0.5035                 0.5690                 0.8315
 IR Inten    --      1.8945                 5.9430                 0.1398

                     28                     29                     30
                      A                      A                      A
 Frequencies --    567.9906               602.6132               625.2936
 Red. masses --      3.3253                 4.1961                 3.6070
 Frc consts  --      0.6321                 0.8978                 0.8309
 IR Inten    --      2.9374                 3.2604                 1.4301

                     31                     32                     33
                      A                      A                      A
 Frequencies --    677.5625               727.8283               770.1211
 Red. masses --      3.8761                 3.3566                 2.6727
 Frc consts  --      1.0484                 1.0476                 0.9339
 IR Inten    --      0.3335                 3.3377                27.6677

                     34                     35                     36
                      A                      A                      A
 Frequencies --    776.1059               783.7219               800.4881
 Red. masses --      1.2042                 1.2368                 1.5250
 Frc consts  --      0.4274                 0.4476                 0.5758
 IR Inten    --      5.6608                15.9568                42.8823

                     37                     38                     39
                      A                      A                      A
 Frequencies --    813.3041               828.1122               910.1238
 Red. masses --      1.2249                 4.0205                 1.4079
 Frc consts  --      0.4774                 1.6245                 0.6871
 IR Inten    --      4.8562                11.7357                12.7188

                     40                     41                     42
                      A                      A                      A
 Frequencies --    919.7637               926.3751               940.1694
 Red. masses --      1.9782                 1.5936                 1.8184
 Frc consts  --      0.9860                 0.8058                 0.9470
 IR Inten    --      4.7255                26.3699                18.4842

                     43                     44                     45
                      A                      A                      A
 Frequencies --    945.1208               960.5271              1006.2532
 Red. masses --      1.7647                 1.2715                 1.9933
 Frc consts  --      0.9287                 0.6911                 1.1892
 IR Inten    --     50.4346                 0.9607                18.8802

                     46                     47                     48
                      A                      A                      A
 Frequencies --   1012.6344              1023.4658              1031.3403
 Red. masses --      1.7380                 1.8030                 2.4848
 Frc consts  --      1.0500                 1.1127                 1.5572
 IR Inten    --      4.4357                37.0992                23.5203

                     49                     50                     51
                      A                      A                      A
 Frequencies --   1046.4783              1065.4717              1072.9298
 Red. masses --      2.4221                 3.2747                 2.0179
 Frc consts  --      1.5628                 2.1903                 1.3687
 IR Inten    --     39.1943                36.1551                39.0594

                     52                     53                     54
                      A                      A                      A
 Frequencies --   1075.2447              1086.8163              1099.9632
 Red. masses --      1.5642                 1.9680                 1.9696
 Frc consts  --      1.0655                 1.3696                 1.4040
 IR Inten    --      3.3689                 3.3991                 1.9309

                     55                     56                     57
                      A                      A                      A
 Frequencies --   1132.2458              1180.6589              1190.9671
 Red. masses --      1.7732                 1.3950                 1.7402
 Frc consts  --      1.3394                 1.1457                 1.4543
 IR Inten    --     23.6190                17.5979                16.0251

                     58                     59                     60
                      A                      A                      A
 Frequencies --   1201.2576              1213.9356              1220.8449
 Red. masses --      1.1962                 2.7057                 2.3944
 Frc consts  --      1.0170                 2.3492                 2.1027
 IR Inten    --      0.5065                25.1791                 3.8784

                     61                     62                     63
                      A                      A                      A
 Frequencies --   1252.5104              1289.9682              1297.4953
 Red. masses --      4.9049                 1.5200                 2.7269
 Frc consts  --      4.5336                 1.4902                 2.7048
 IR Inten    --    107.8031                 1.5160                54.0934

                     64                     65                     66
                      A                      A                      A
 Frequencies --   1308.7424              1315.0358              1323.7640
 Red. masses --      1.2418                 1.4437                 1.2700
 Frc consts  --      1.2532                 1.4710                 1.3112
 IR Inten    --      4.7138                 4.6477                13.5403

                     67                     68                     69
                      A                      A                      A
 Frequencies --   1355.1398              1361.0859              1383.5633
 Red. masses --      1.4099                 2.3381                 1.4902
 Frc consts  --      1.5255                 2.5521                 1.6807
 IR Inten    --      3.3150                26.0333                 7.9384

                     70                     71                     72
                      A                      A                      A
 Frequencies --   1407.2246              1422.8677              1432.5290
 Red. masses --      1.5130                 1.2669                 1.2608
 Frc consts  --      1.7653                 1.5112                 1.5244
 IR Inten    --      4.6105                 3.8157                 5.3402

                     73                     74                     75
                      A                      A                      A
 Frequencies --   1440.1810              1444.7159              1445.6671
 Red. masses --      1.2802                 1.3768                 1.2600
 Frc consts  --      1.5644                 1.6931                 1.5515
 IR Inten    --      5.4160                17.5916                 3.3014

                     76                     77                     78
                      A                      A                      A
 Frequencies --   1485.3340              1509.0946              1518.1854
 Red. masses --      1.8428                 1.1244                 1.3679
 Frc consts  --      2.3954                 1.5087                 1.8577
 IR Inten    --     47.8670                14.2786                 6.3405

                     79                     80                     81
                      A                      A                      A
 Frequencies --   1519.3731              1520.6833              1525.7035
 Red. masses --      1.1279                 1.8372                 1.0911
 Frc consts  --      1.5341                 2.5032                 1.4964
 IR Inten    --     33.2612                31.9869                 3.3598

                     82                     83                     84
                      A                      A                      A
 Frequencies --   1529.2549              1534.8818              1536.6451
 Red. masses --      1.1031                 1.0646                 1.0622
 Frc consts  --      1.5200                 1.4777                 1.4777
 IR Inten    --     10.1003                10.5230                 6.6689

                     85                     86                     87
                      A                      A                      A
 Frequencies --   1537.3025              1540.1730              1541.1004
 Red. masses --      1.1214                 1.1580                 1.0830
 Frc consts  --      1.5614                 1.6184                 1.5155
 IR Inten    --     16.9596                20.9792                 5.2046

                     88                     89                     90
                      A                      A                      A
 Frequencies --   1549.2149              1647.9252              1655.4843
 Red. masses --      1.0717                 6.3373                 5.6164
 Frc consts  --      1.5155                10.1398                 9.0690
 IR Inten    --      0.9388                 9.9906                10.8590

                     91                     92                     93
                      A                      A                      A
 Frequencies --   1682.8713              3006.1960              3043.3970
 Red. masses --      1.0980                 1.0725                 1.0414
 Frc consts  --      1.8321                 5.7107                 5.6834
 IR Inten    --     33.8594                93.6729                22.9610

                     94                     95                     96
                      A                      A                      A
 Frequencies --   3046.5753              3051.6332              3053.0103
 Red. masses --      1.0605                 1.0417                 1.0457
 Frc consts  --      5.7996                 5.7158                 5.7426
 IR Inten    --     13.7162                32.4214                38.5483

                     97                     98                     99
                      A                      A                      A
 Frequencies --   3056.2880              3093.7007              3100.2607
 Red. masses --      1.0599                 1.0975                 1.0641
 Frc consts  --      5.8333                 6.1891                 6.0258
 IR Inten    --     11.0810                 6.8216                35.8709

                    100                    101                    102
                      A                      A                      A
 Frequencies --   3103.6785              3104.3818              3114.4923
 Red. masses --      1.0919                 1.0961                 1.0997
 Frc consts  --      6.1970                 6.2235                 6.2851
 IR Inten    --     28.9577                 5.6588                41.1117

                    103                    104                    105
                      A                      A                      A
 Frequencies --   3118.8971              3120.9145              3122.4124
 Red. masses --      1.0980                 1.0911                 1.0995
 Frc consts  --      6.2928                 6.2613                 6.3158
 IR Inten    --     78.2550                 9.8809                24.9705

                    106                    107                    108
                      A                      A                      A
 Frequencies --   3130.0585              3134.1671              3159.9337
 Red. masses --      1.1030                 1.1019                 1.1030
 Frc consts  --      6.3670                 6.3771                 6.4893
 IR Inten    --     19.8834                29.0261                23.5440

                    109                    110                    111
                      A                      A                      A
 Frequencies --   3173.0837              3179.0355              3207.8344
 Red. masses --      1.0869                 1.0899                 1.0957
 Frc consts  --      6.4478                 6.4900                 6.6428
 IR Inten    --      5.1712                23.3388                27.0127

                    112                    113                    114
                      A                      A                      A
 Frequencies --   3341.4091              3464.7839              3552.2266
 Red. masses --      1.0691                 1.0497                 1.0932
 Frc consts  --      7.0330                 7.4248                 8.1274
 IR Inten    --    727.6278                 0.6291                 0.5793

 - Thermochemistry -
 -------------------
 Temperature   298.150 Kelvin.  Pressure   1.00000 Atm.
 Atom     1 has atomic number  6 and mass  12.00000

 Molecular mass:   237.17288 amu.
 Principal axes and moments of inertia in atomic units:
                           1         2         3
     Eigenvalues --  2755.152864900.434125961.89196
           X            0.99961  -0.02733  -0.00558
           Y            0.02725   0.99953  -0.01409
           Z            0.00596   0.01393   0.99989
 This molecule is an asymmetric top.
 Rotational symmetry number  1.
 Warning -- assumption of classical behavior for rotation
           may cause significant error
 Rotational temperatures (Kelvin)      0.03144     0.01767     0.01453
 Rotational constants (GHZ):           0.65504     0.36828     0.30271
 Zero-point vibrational energy     936005.7 (Joules/Mol)
                                  223.71074 (Kcal/Mol)
 Warning -- explicit consideration of  29 degrees of freedom as
           vibrations may cause significant error
 Vibrational temperatures:     56.60    71.15   106.62   129.97   141.51
          (Kelvin)            174.56   219.59   266.06   289.14   312.76
                              328.40   338.82   355.67   385.91   414.25
                              430.69   442.98   463.78   503.70   534.50
                              555.78   599.77   682.88   684.33   724.89
                              727.89   791.26   817.21   867.03   899.66
                              974.86  1047.18  1108.03  1116.64  1127.60
                             1151.72  1170.16  1191.47  1309.47  1323.33
                             1332.85  1352.69  1359.82  1381.98  1447.77
                             1456.96  1472.54  1483.87  1505.65  1532.98
                             1543.71  1547.04  1563.69  1582.60  1629.05
                             1698.70  1713.54  1728.34  1746.58  1756.52
                             1802.08  1855.98  1866.81  1882.99  1892.04
                             1904.60  1949.74  1958.30  1990.64  2024.68
                             2047.19  2061.09  2072.10  2078.62  2079.99
                             2137.06  2171.25  2184.33  2186.04  2187.92
                             2195.15  2200.26  2208.35  2210.89  2211.84
                             2215.97  2217.30  2228.97  2371.00  2381.87
                             2421.28  4325.25  4378.77  4383.34  4390.62
                             4392.60  4397.32  4451.15  4460.58  4465.50
                             4466.51  4481.06  4487.40  4490.30  4492.46
                             4503.46  4509.37  4546.44  4565.36  4573.92
                             4615.36  4807.54  4985.05  5110.86

 Zero-point correction=                           0.356506 (Hartree/Particle)
 Thermal correction to Energy=                    0.374468
 Thermal correction to Enthalpy=                  0.375412
 Thermal correction to Gibbs Free Energy=         0.311725
 Sum of electronic and zero-point Energies=           -752.251942
 Sum of electronic and thermal Energies=              -752.233980
 Sum of electronic and thermal Enthalpies=            -752.233035
 Sum of electronic and thermal Free Energies=         -752.296723

                     E (Thermal)             CV                S
                      KCal/Mol        Cal/Mol-Kelvin    Cal/Mol-Kelvin
 Total                  234.982             69.955            134.042
 Electronic               0.000              0.000              0.000
 Translational            0.889              2.981             42.292
 Rotational               0.889              2.981             32.754
 Vibrational            233.205             63.994             58.996
 Vibration     1          0.594              1.981              5.292
 Vibration     2          0.595              1.978              4.839
 Vibration     3          0.599              1.966              4.041
 Vibration     4          0.602              1.956              3.653
 Vibration     5          0.604              1.950              3.487
 Vibration     6          0.609              1.931              3.079
 Vibration     7          0.619              1.900              2.639
 Vibration     8          0.631              1.860              2.278
 Vibration     9          0.638              1.839              2.124
 Vibration    10          0.646              1.815              1.981
 Vibration    11          0.651              1.798              1.893
 Vibration    12          0.655              1.786              1.837
 Vibration    13          0.661              1.767              1.750
 Vibration    14          0.673              1.732              1.608
 Vibration    15          0.685              1.696              1.486
 Vibration    16          0.692              1.675              1.421
 Vibration    17          0.698              1.659              1.374
 Vibration    18          0.707              1.631              1.298
 Vibration    19          0.727              1.575              1.166
 Vibration    20          0.743              1.531              1.074
 Vibration    21          0.755              1.499              1.014
 Vibration    22          0.780              1.434              0.903
 Vibration    23          0.831              1.306              0.725
 Vibration    24          0.832              1.304              0.722
 Vibration    25          0.859              1.242              0.649
 Vibration    26          0.861              1.237              0.644
 Vibration    27          0.905              1.140              0.544
 Vibration    28          0.924              1.100              0.508
 Vibration    29          0.961              1.026              0.445

 Optimization completed.
    -- Stationary point found.
 Normal termination of Gaussian 16 at Fri Dec 11 13:32:46 2020.

 ----------------------------------------------------------------------
 # B3LYP/6-311++G(d,p) empiricaldispersion=gd3bj scf=xqc pop=npa geom=c
 heck
 ----------------------------------------------------------------------

 ---------------------------------------
 CID_114492283_JID_7737_Energie_neutraal
 ---------------------------------------
 Structure from the checkpoint file:  "JID_7737.chk"
 Charge =  0 Multiplicity = 1

 SCF Done:  E(RB3LYP) =  -752.829863331     A.U. after   14 cycles
 Normal termination of Gaussian 16 at Fri Dec 11 13:41:27 2020.

 ----------------------------------------------------------------------
 # B3LYP/6-311++G(d,p) empiricaldispersion=gd3bj scf=xqc pop=npa geom=c
 heck
 ----------------------------------------------------------------------

 -------------------------------------
 CID_114492283_JID_7737_Energie_kation
 -------------------------------------
 Structure from the checkpoint file:  "JID_7737.chk"
 Charge =  1 Multiplicity = 2

 SCF Done:  E(UB3LYP) =  -752.542484680     A.U. after   24 cycles
 Normal termination of Gaussian 16 at Fri Dec 11 14:02:06 2020.
 Gaussian 16:  ES64L-G16RevA.03 25-Dec-2016

 ----------------------------------------------------------------------
 # B3LYP/6-311++G(d,p) empiricaldispersion=gd3bj scf=xqc pop=npa geom=c
 heck
 ----------------------------------------------------------------------

 ------------------------------------
 CID_114492283_JID_7737_Energie_anion
 ------------------------------------
 Structure from the checkpoint file:  "JID_7737.chk"
 Charge = -1 Multiplicity = 2

                         Standard orientation:
 ---------------------------------------------------------------------
 Center     Atomic      Atomic             Coordinates (Angstroms)
 Number     Number       Type             X           Y           Z
 ---------------------------------------------------------------------
      1          6           0       -2.058566   -0.825857    2.308906
      2          6           0       -1.297255   -0.070659    1.217115
      3          6           0       -1.872966   -0.286761   -0.202994
      4          6           0       -3.360862    0.116944   -0.290830
      5          6           0       -3.711741    1.545853    0.133873
      6          6           0       -1.104641    0.531623   -1.260962
      7          8           0        0.250612    0.113384   -1.505536
      8          6           0        1.264802    0.354082   -0.613165
      9          6           0        1.585830    1.635603   -0.125544
     10          6           0        2.660932    1.749406    0.765145
     11          6           0        3.430926    0.651928    1.137293
     12          6           0        3.143015   -0.594339    0.585294
     13          6           0        2.070081   -0.757189   -0.291798
     14          6           0        1.773547   -2.116028   -0.877318
     15          7           0        0.692114   -2.789989   -0.127965
     16          6           0        0.862146    2.885296   -0.565418
     17          8           0       -1.850026   -1.659819   -0.551143
     18          1           0       -3.062312   -0.417608    2.469389
     19          1           0       -1.524266   -0.773234    3.264054
     20          1           0       -2.166804   -1.877765    2.027458
     21          1           0       -1.266977    1.002566    1.446108
     22          1           0       -0.256337   -0.405415    1.220019
     23          1           0       -3.687612   -0.058389   -1.323457
     24          1           0       -3.918367   -0.599288    0.321249
     25          1           0       -3.206583    2.299928   -0.480452
     26          1           0       -4.789257    1.717908    0.035552
     27          1           0       -3.443827    1.736656    1.178792
     28          1           0       -1.589825    0.373797   -2.226993
     29          1           0       -1.142427    1.595673   -1.024689
     30          1           0        2.907357    2.735540    1.151651
     31          1           0        4.263484    0.772911    1.823654
     32          1           0        3.759701   -1.456584    0.829410
     33          1           0        1.431137   -2.012407   -1.909813
     34          1           0        2.703637   -2.704337   -0.886180
     35          1           0        0.563295   -3.738374   -0.479654
     36          1           0        0.954704   -2.872391    0.853254
     37          1           0        0.591627    2.837525   -1.624681
     38          1           0       -0.058313    3.062365    0.005273
     39          1           0        1.504575    3.759347   -0.420577
     40          1           0       -0.927583   -1.996414   -0.417785
 ---------------------------------------------------------------------

 SCF Done:  E(UB3LYP) =  -752.819068442     A.U. after   33 cycles
 SCF Done:  E(UB3LYP) =  -752.819068442     a.u. after    1 cycles

 The electronic state is 2-A.
 Alpha  occ. eigenvalues --  -19.04393 -18.98931 -14.20448 -10.13106 -10.12242
 Alpha  occ. eigenvalues --  -10.12080 -10.09629 -10.08509 -10.07793 -10.07599
 Alpha  occ. eigenvalues --  -10.07286 -10.07169 -10.07167 -10.07086 -10.06992
 Alpha  occ. eigenvalues --  -10.06185 -10.05745  -0.95911  -0.90024  -0.79376
 Alpha  occ. eigenvalues --   -0.75586  -0.70504  -0.68256  -0.66027  -0.65267
 Alpha  occ. eigenvalues --   -0.62313  -0.58983  -0.56687  -0.55178  -0.53110
 Alpha  occ. eigenvalues --   -0.49093  -0.48348  -0.45066  -0.42543  -0.40937
 Alpha  occ. eigenvalues --   -0.39719  -0.38587  -0.37564  -0.37260  -0.35842
 Alpha  occ. eigenvalues --   -0.35216  -0.34304  -0.33653  -0.32635  -0.32290
 Alpha  occ. eigenvalues --   -0.31436  -0.31311  -0.29951  -0.29177  -0.28888
 Alpha  occ. eigenvalues --   -0.27657  -0.27261  -0.26583  -0.26179  -0.25659
 Alpha  occ. eigenvalues --   -0.25448  -0.24453  -0.23314  -0.22753  -0.21029
 Alpha  occ. eigenvalues --   -0.19864  -0.15974  -0.15692  -0.14929  -0.12742
 Alpha  occ. eigenvalues --    0.04147
 Alpha virt. eigenvalues --    0.05837   0.06636   0.07440   0.07742   0.08038
 Alpha virt. eigenvalues --    0.08675   0.09053   0.09175   0.09651   0.09837
 Alpha virt. eigenvalues --    0.10477   0.11002   0.11521   0.11844   0.12416

  Beta  occ. eigenvalues --  -19.04388 -18.98927 -14.20386 -10.13093 -10.12242
  Beta  occ. eigenvalues --  -10.12077 -10.09610 -10.08507 -10.07775 -10.07574
  Beta  occ. eigenvalues --  -10.07232 -10.07148 -10.07134 -10.07077 -10.06988
  Beta  occ. eigenvalues --  -10.06178 -10.05731  -0.95900  -0.90015  -0.79268
  Beta  occ. eigenvalues --   -0.75521  -0.70491  -0.68194  -0.65975  -0.65247
  Beta  occ. eigenvalues --   -0.62269  -0.58934  -0.56582  -0.55149  -0.53077
  Beta  occ. eigenvalues --   -0.49062  -0.48273  -0.45039  -0.42508  -0.40888
  Beta  occ. eigenvalues --   -0.39669  -0.38563  -0.37539  -0.37207  -0.35801
  Beta  occ. eigenvalues --   -0.35185  -0.34233  -0.33627  -0.32581  -0.32265
  Beta  occ. eigenvalues --   -0.31405  -0.31291  -0.29896  -0.29150  -0.28855
  Beta  occ. eigenvalues --   -0.27637  -0.27237  -0.26559  -0.26141  -0.25594
  Beta  occ. eigenvalues --   -0.25408  -0.24421  -0.23296  -0.22702  -0.21014
  Beta  occ. eigenvalues --   -0.19834  -0.15946  -0.15628  -0.14723  -0.12656
  Beta virt. eigenvalues --    0.06071   0.06862   0.07113   0.07774   0.08141
  Beta virt. eigenvalues --    0.08367   0.09012   0.09154   0.09456   0.09998
  Beta virt. eigenvalues --    0.10178   0.10854   0.11194   0.11772   0.12052

 Mulliken charges and spin densities:
               1          2
     1  C    0.261301  -0.805555
     2  C   -0.831680   0.388418
     3  C    0.105725   0.222963
     4  C   -0.422887   0.281070
     5  C   -0.107698  -0.482630
     6  C   -0.699494   0.060230
     7  O   -0.117997  -0.001327
     8  C   -0.859604   1.003753
     9  C   -0.588258   1.022590
    10  C    0.506622  -0.818403
    11  C   -0.051623  -0.294560
    12  C    0.560490  -0.744931
    13  C   -1.067081   1.307387
    14  C    1.736434  -2.486197
    15  N   -0.352834  -0.114841
    16  C    0.865780  -1.393897
    17  O   -0.269405  -0.010566
    18  H    0.066880   0.056755
    19  H   -0.126447   0.268628
    20  H    0.059541   0.110590
    21  H    0.078947   0.076805
    22  H    0.839052  -0.672976
    23  H    0.112244   0.038323
    24  H    0.148086   0.029565
    25  H   -0.066169   0.207353
    26  H   -0.115242   0.258280
    27  H   -0.058831   0.213155
    28  H    0.032567   0.133407
    29  H    0.441018  -0.331900
    30  H   -0.171075   0.319628
    31  H   -0.296727   0.461437
    32  H   -0.516242   0.683671
    33  H    0.119743   0.079654
    34  H   -0.498729   0.658132
    35  H   -0.132455   0.397333
    36  H   -0.139229   0.367795
    37  H    0.063976   0.116046
    38  H   -0.159049   0.344461
    39  H   -0.033771   0.184873
    40  H    0.684122  -0.134522
 Sum of Mulliken charges =  -1.00000   1.00000

 Dipole moment (field-independent basis, Debye):
    X=             -2.9527    Y=              3.6823    Z=             -1.7601  Tot=              5.0374
 Quadrupole moment (field-independent basis, Debye-Ang):
   XX=           -169.9180   YY=           -167.4455   ZZ=           -137.9021
   XY=              9.2391   XZ=             -1.7460   YZ=             -3.4759

 Summary of Natural Population Analysis:

                                       Natural Population
                Natural  -----------------------------------------------
    Atom  No    Charge         Core      Valence    Rydberg      Total
 -----------------------------------------------------------------------
      C    1   -0.28722      0.99966     2.28297    0.00459     3.28722
      C    2   -0.20916      0.99959     2.19991    0.00966     3.20916
      C    3    0.12082      0.99951     1.86409    0.01558     2.87918
      C    4   -0.19657      0.99959     2.18786    0.00911     3.19657
      C    5   -0.28979      0.99966     2.28506    0.00506     3.28979
      C    6   -0.01352      0.99946     2.00256    0.01151     3.01352
      O    7   -0.29060      0.99985     3.28147    0.00928     4.29060
      C    8    0.16562      0.99928     1.82096    0.01415     2.83438
      C    9   -0.04411      0.99947     2.03566    0.00899     3.04411
      C   10   -0.08641      0.99952     2.07757    0.00931     3.08641
      C   11   -0.11049      0.99956     2.10070    0.01023     3.11049
      C   12   -0.09071      0.99951     2.08111    0.01009     3.09071
      C   13   -0.03755      0.99946     2.02669    0.01141     3.03755
      C   14   -0.09355      0.99958     2.08099    0.01297     3.09355
      N   15   -0.42673      0.99977     2.91497    0.01199     3.92673
      C   16   -0.29538      0.99964     2.28959    0.00615     3.29538
      O   17   -0.40185      0.99988     3.39496    0.00702     4.40185
      H   18    0.09249      0.00000     0.40658    0.00093     0.40751
      H   19    0.09808      0.00000     0.40110    0.00082     0.40192
      H   20    0.10496      0.00000     0.39377    0.00127     0.39504
      H   21    0.09653      0.00000     0.40202    0.00146     0.40347
      H   22    0.10679      0.00000     0.39072    0.00248     0.39321
      H   23    0.09791      0.00000     0.40090    0.00118     0.40209
      H   24    0.10395      0.00000     0.39482    0.00122     0.39605
      H   25    0.09550      0.00000     0.40335    0.00115     0.40450
      H   26    0.09802      0.00000     0.40128    0.00070     0.40198
      H   27    0.09886      0.00000     0.40011    0.00103     0.40114
      H   28    0.09279      0.00000     0.40603    0.00118     0.40721
      H   29    0.08640      0.00000     0.41201    0.00159     0.41360
      H   30    0.09703      0.00000     0.40199    0.00098     0.40297
      H   31    0.09994      0.00000     0.39916    0.00090     0.40006
      H   32    0.10201      0.00000     0.39650    0.00149     0.39799
      H   33    0.10126      0.00000     0.39729    0.00146     0.39874
      H   34    0.08853      0.00000     0.40914    0.00233     0.41147
      H   35    0.18442      0.00000     0.31208    0.00350     0.31558
      H   36    0.18162      0.00000     0.31523    0.00315     0.31838
      H   37    0.10376      0.00000     0.39527    0.00097     0.39624
      H   38    0.10446      0.00000     0.39421    0.00133     0.39554
      H   39    0.10314      0.00000     0.39606    0.00080     0.39686
      H   40    0.24875      0.00000     0.24731    0.00394     0.25125
 =======================================================================
   * Total *   -0.00000     16.99300    47.80406    0.20295    65.00000

 Normal termination of Gaussian 16 at Fri Dec 11 14:29:34 2020.
