 Gaussian 16, Revision A.03,

 -----------------------------------------------------------
 # opt freq B3LYP/6-31G(d) empiricaldispersion=gd3bj scf=xqc
 -----------------------------------------------------------

 ------------------------------
 CID_10845494_JID_4803_neutraal
 ------------------------------
 Symbolic Z-matrix:
 Charge =  0 Multiplicity = 1

 SCF Done:  E(RB3LYP) =  -618.374914167     A.U. after   15 cycles
 SCF Done:  E(RB3LYP) =  -618.422759606     A.U. after   13 cycles
 SCF Done:  E(RB3LYP) =  -618.454394154     A.U. after   15 cycles
 SCF Done:  E(RB3LYP) =  -618.456298328     A.U. after   13 cycles
 SCF Done:  E(RB3LYP) =  -618.454988521     A.U. after   13 cycles
 SCF Done:  E(RB3LYP) =  -618.456220666     A.U. after   13 cycles
 SCF Done:  E(RB3LYP) =  -618.459141991     A.U. after   10 cycles
 SCF Done:  E(RB3LYP) =  -618.459825875     A.U. after   12 cycles
 SCF Done:  E(RB3LYP) =  -618.460348712     A.U. after   12 cycles
 SCF Done:  E(RB3LYP) =  -618.458753491     A.U. after   12 cycles
 SCF Done:  E(RB3LYP) =  -618.461297566     A.U. after   10 cycles
 SCF Done:  E(RB3LYP) =  -618.461300292     A.U. after    9 cycles
 SCF Done:  E(RB3LYP) =  -618.461301042     A.U. after    8 cycles
 SCF Done:  E(RB3LYP) =  -618.461301400     A.U. after    7 cycles
 SCF Done:  E(RB3LYP) =  -618.461301421     A.U. after    7 cycles
 SCF Done:  E(RB3LYP) =  -618.461301466     A.U. after    7 cycles
 Optimization completed.
    -- Stationary point found.
 Normal termination of Gaussian 16 at Thu Dec 10 10:46:14 2020.

 --------------------------------------------------------------------
 #N Geom=AllCheck Guess=TCheck SCRF=Check GenChk RB3LYP/6-31G(d) Freq
 --------------------------------------------------------------------

 Structure from the checkpoint file:  "JID_4803.chk"
 ------------------------------
 CID_10845494_JID_4803_neutraal
 ------------------------------
 Charge =  0 Multiplicity = 1

 SCF Done:  E(RB3LYP) =  -618.461301466     A.U. after    1 cycles

  Exact polarizability: 186.151   0.001 122.629 -25.900  -0.001 115.300
 Approx polarizability: 244.000   0.002 174.001 -43.664  -0.003 163.733

                      1                      2                      3
                      A                      A                      A
 Frequencies --     30.1461                46.0616                61.9167
 Red. masses --      4.1248                 3.7755                 4.3627
 Frc consts  --      0.0022                 0.0047                 0.0099
 IR Inten    --      0.0003                 0.5497                 0.2193

                      4                      5                      6
                      A                      A                      A
 Frequencies --     71.3874                75.6008                98.6418
 Red. masses --      3.6465                 3.2076                 2.6745
 Frc consts  --      0.0109                 0.0108                 0.0153
 IR Inten    --      0.0044                 1.8805                 2.6042

                      7                      8                      9
                      A                      A                      A
 Frequencies --    110.9990               144.0567               161.5958
 Red. masses --      2.3316                 3.6655                 1.6715
 Frc consts  --      0.0169                 0.0448                 0.0257
 IR Inten    --      1.2023                 0.2336                 0.6751

                     10                     11                     12
                      A                      A                      A
 Frequencies --    165.9175               181.5533               203.2566
 Red. masses --      2.6944                 1.6055                 2.0897
 Frc consts  --      0.0437                 0.0312                 0.0509
 IR Inten    --      1.5369                 0.0223                 0.8894

                     13                     14                     15
                      A                      A                      A
 Frequencies --    226.4333               258.3234               264.6428
 Red. masses --      2.1184                 2.5824                 2.2651
 Frc consts  --      0.0640                 0.1015                 0.0935
 IR Inten    --      4.7383                12.8567                 7.4715

                     16                     17                     18
                      A                      A                      A
 Frequencies --    327.4840               347.7768               406.4210
 Red. masses --      3.3045                 2.8222                 2.1693
 Frc consts  --      0.2088                 0.2011                 0.2111
 IR Inten    --      0.4904                 3.5792                 5.3833

                     19                     20                     21
                      A                      A                      A
 Frequencies --    413.6585               434.2583               453.7054
 Red. masses --      2.0307                 3.3449                 2.7839
 Frc consts  --      0.2047                 0.3716                 0.3376
 IR Inten    --     11.2004                 6.6202                 1.7673

                     22                     23                     24
                      A                      A                      A
 Frequencies --    560.2069               585.4791               603.9858
 Red. masses --      5.5585                 3.4371                 1.5132
 Frc consts  --      1.0278                 0.6942                 0.3252
 IR Inten    --      1.7463                 8.6305                 2.8608

                     25                     26                     27
                      A                      A                      A
 Frequencies --    620.2661               633.7005               645.9319
 Red. masses --      1.6655                 2.5452                 1.5808
 Frc consts  --      0.3775                 0.6022                 0.3886
 IR Inten    --      1.8822                 0.7940                 2.6307

                     28                     29                     30
                      A                      A                      A
 Frequencies --    767.9330               775.0447               864.8598
 Red. masses --      3.3570                 2.8234                 1.3197
 Frc consts  --      1.1664                 0.9993                 0.5816
 IR Inten    --      2.0188                27.0937                21.9639

                     31                     32                     33
                      A                      A                      A
 Frequencies --    865.1416               910.4646               942.3525
 Red. masses --      1.3184                 1.9239                 3.9019
 Frc consts  --      0.5814                 0.9396                 2.0415
 IR Inten    --     74.0493                 7.9534                40.9704

                     34                     35                     36
                      A                      A                      A
 Frequencies --    944.5674               962.5640              1008.9575
 Red. masses --      4.2284                 2.0961                 4.3402
 Frc consts  --      2.2228                 1.1443                 2.6032
 IR Inten    --      9.1789                27.3160                 0.9989

                     37                     38                     39
                      A                      A                      A
 Frequencies --   1032.0746              1035.3618              1037.0044
 Red. masses --      1.7389                 1.7386                 1.5169
 Frc consts  --      1.0913                 1.0981                 0.9611
 IR Inten    --      4.5797                 3.4023                 0.1690

                     40                     41                     42
                      A                      A                      A
 Frequencies --   1039.0874              1131.8858              1134.0070
 Red. masses --      1.5732                 3.6873                 4.4237
 Frc consts  --      1.0008                 2.7833                 3.3517
 IR Inten    --      2.1697                13.2599               224.1725

                     43                     44                     45
                      A                      A                      A
 Frequencies --   1145.4487              1192.9826              1192.9930
 Red. masses --      2.4479                 1.2880                 1.2872
 Frc consts  --      1.8923                 1.0800                 1.0794
 IR Inten    --     41.9217                 7.3722                 0.5843

                     46                     47                     48
                      A                      A                      A
 Frequencies --   1209.9578              1217.7612              1218.8337
 Red. masses --      3.4955                 1.6257                 1.5949
 Frc consts  --      3.0151                 1.4204                 1.3960
 IR Inten    --     28.2748                19.8011                17.1785

                     49                     50                     51
                      A                      A                      A
 Frequencies --   1243.7289              1254.3285              1296.3632
 Red. masses --      1.4319                 1.9435                 1.4111
 Frc consts  --      1.3050                 1.8016                 1.3972
 IR Inten    --      7.0300                 0.6583                 3.7509

                     52                     53                     54
                      A                      A                      A
 Frequencies --   1309.3786              1327.2143              1357.7936
 Red. masses --      1.3680                 1.2208                 1.2775
 Frc consts  --      1.3819                 1.2670                 1.3876
 IR Inten    --      3.3323                40.6328                 2.0988

                     55                     56                     57
                      A                      A                      A
 Frequencies --   1380.0537              1383.4190              1419.0848
 Red. masses --      1.3350                 1.3795                 1.2571
 Frc consts  --      1.4980                 1.5555                 1.4916
 IR Inten    --      7.5643                 0.2894                27.6856

                     58                     59                     60
                      A                      A                      A
 Frequencies --   1419.2913              1496.6952              1498.6906
 Red. masses --      1.2601                 1.1388                 1.1463
 Frc consts  --      1.4955                 1.5031                 1.5169
 IR Inten    --     15.0497                 5.5253                 0.2990

                     61                     62                     63
                      A                      A                      A
 Frequencies --   1509.9267              1510.0005              1512.7818
 Red. masses --      1.4613                 1.4944                 1.0550
 Frc consts  --      1.9630                 2.0076                 1.4226
 IR Inten    --      2.0350                 0.5330                 2.3378

                     64                     65                     66
                      A                      A                      A
 Frequencies --   1512.8790              1514.8241              1517.7070
 Red. masses --      1.0497                 1.0878                 1.1241
 Frc consts  --      1.4156                 1.4707                 1.5255
 IR Inten    --      4.2173                 7.4203                 8.7991

                     67                     68                     69
                      A                      A                      A
 Frequencies --   1528.9046              1530.9167              1540.4965
 Red. masses --      1.0880                 1.0750                 1.0594
 Frc consts  --      1.4985                 1.4844                 1.4813
 IR Inten    --     10.5527                 1.2352                 3.4978

                     70                     71                     72
                      A                      A                      A
 Frequencies --   1541.8003              2074.0870              2075.6160
 Red. masses --      1.0704                10.4557                10.4225
 Frc consts  --      1.4992                26.5007                26.4555
 IR Inten    --     18.3038                79.3100                29.4020

                     73                     74                     75
                      A                      A                      A
 Frequencies --   3003.1093              3003.4042              3026.2826
 Red. masses --      1.0387                 1.0390                 1.0665
 Frc consts  --      5.5192                 5.5218                 5.7548
 IR Inten    --    105.9956                 4.4129                78.6147

                     76                     77                     78
                      A                      A                      A
 Frequencies --   3028.2619              3057.1910              3057.3605
 Red. masses --      1.0673                 1.1010                 1.1009
 Frc consts  --      5.7664                 6.0631                 6.0633
 IR Inten    --     37.7339                21.5840                68.2313

                     79                     80                     81
                      A                      A                      A
 Frequencies --   3064.3567              3068.0479              3108.2908
 Red. masses --      1.0643                 1.0612                 1.1033
 Frc consts  --      5.8883                 5.8854                 6.2805
 IR Inten    --      0.5775                31.0080                 5.3150

                     82                     83                     84
                      A                      A                      A
 Frequencies --   3114.4765              3116.1523              3124.7298
 Red. masses --      1.0980                 1.0976                 1.1001
 Frc consts  --      6.2751                 6.2794                 6.3285
 IR Inten    --      2.4837                 3.5601                23.6297

                     85                     86                     87
                      A                      A                      A
 Frequencies --   3138.0083              3138.1121              3140.2146
 Red. masses --      1.0578                 1.0579                 1.0986
 Frc consts  --      6.1371                 6.1380                 6.3830
 IR Inten    --     17.7008                 5.0583                39.0427

                     88                     89                     90
                      A                      A                      A
 Frequencies --   3140.2399              3205.1368              3205.1583
 Red. masses --      1.0986                 1.1152                 1.1152
 Frc consts  --      6.3828                 6.7501                 6.7502
 IR Inten    --     23.2589                 2.7204                 9.2127

 - Thermochemistry -
 -------------------
 Temperature   298.150 Kelvin.  Pressure   1.00000 Atm.
 Atom     1 has atomic number  6 and mass  12.00000

 Molecular mass:   194.13068 amu.
 Principal axes and moments of inertia in atomic units:
                           1         2         3
     Eigenvalues --  2033.398504693.058655258.93632
           X            0.99996   0.00000   0.00880
           Y           -0.00000   1.00000  -0.00000
           Z           -0.00880   0.00000   0.99996
 This molecule is an asymmetric top.
 Rotational symmetry number  1.
 Warning -- assumption of classical behavior for rotation
           may cause significant error
 Rotational temperatures (Kelvin)      0.04260     0.01846     0.01647
 Rotational constants (GHZ):           0.88755     0.38456     0.34318
 Zero-point vibrational energy     725279.2 (Joules/Mol)
                                  173.34588 (Kcal/Mol)
 Warning -- explicit consideration of  25 degrees of freedom as
           vibrations may cause significant error
 Vibrational temperatures:     43.37    66.27    89.08   102.71   108.77
          (Kelvin)            141.92   159.70   207.27   232.50   238.72
                              261.21   292.44   325.79   371.67   380.76
                              471.18   500.37   584.75   595.16   624.80
                              652.78   806.01   842.37   869.00   892.42
                              911.75   929.35  1104.88  1115.12  1244.34
                             1244.75  1309.96  1355.84  1359.02  1384.91
                             1451.66  1484.93  1489.65  1492.02  1495.01
                             1628.53  1631.58  1648.05  1716.44  1716.45
                             1740.86  1752.09  1753.63  1789.45  1804.70
                             1865.18  1883.90  1909.57  1953.56  1985.59
                             1990.43  2041.75  2042.04  2153.41  2156.28
                             2172.45  2172.55  2176.56  2176.70  2179.49
                             2183.64  2199.75  2202.65  2216.43  2218.31
                             2984.15  2986.35  4320.80  4321.23  4354.15
                             4356.99  4398.62  4398.86  4408.93  4414.24
                             4472.14  4481.04  4483.45  4495.79  4514.89
                             4515.04  4518.07  4518.10  4611.48  4611.51

 Zero-point correction=                           0.276244 (Hartree/Particle)
 Thermal correction to Energy=                    0.292905
 Thermal correction to Enthalpy=                  0.293849
 Thermal correction to Gibbs Free Energy=         0.230949
 Sum of electronic and zero-point Energies=           -618.185057
 Sum of electronic and thermal Energies=              -618.168397
 Sum of electronic and thermal Enthalpies=            -618.167452
 Sum of electronic and thermal Free Energies=         -618.230352

                     E (Thermal)             CV                S
                      KCal/Mol        Cal/Mol-Kelvin    Cal/Mol-Kelvin
 Total                  183.801             59.284            132.384
 Electronic               0.000              0.000              0.000
 Translational            0.889              2.981             41.695
 Rotational               0.889              2.981             32.284
 Vibrational            182.023             53.322             58.404
 Vibration     1          0.594              1.984              5.820
 Vibration     2          0.595              1.979              4.980
 Vibration     3          0.597              1.972              4.395
 Vibration     4          0.598              1.968              4.115
 Vibration     5          0.599              1.965              4.002
 Vibration     6          0.604              1.950              3.481
 Vibration     7          0.607              1.940              3.251
 Vibration     8          0.616              1.909              2.749
 Vibration     9          0.622              1.889              2.531
 Vibration    10          0.624              1.884              2.481
 Vibration    11          0.630              1.865              2.312
 Vibration    12          0.639              1.835              2.103
 Vibration    13          0.650              1.801              1.907
 Vibration    14          0.667              1.749              1.673
 Vibration    15          0.671              1.738              1.631
 Vibration    16          0.711              1.621              1.272
 Vibration    17          0.725              1.580              1.176
 Vibration    18          0.771              1.456              0.939
 Vibration    19          0.777              1.441              0.914
 Vibration    20          0.795              1.396              0.845
 Vibration    21          0.812              1.353              0.785
 Vibration    22          0.916              1.117              0.523
 Vibration    23          0.942              1.063              0.475
 Vibration    24          0.962              1.023              0.443
 Vibration    25          0.980              0.989              0.416

 Optimization completed.
    -- Stationary point found.
 Normal termination of Gaussian 16 at Thu Dec 10 10:56:11 2020.

 ----------------------------------------------------------------------
 # B3LYP/6-311++G(d,p) empiricaldispersion=gd3bj scf=xqc pop=npa geom=c
 heck
 ----------------------------------------------------------------------

 --------------------------------------
 CID_10845494_JID_4803_Energie_neutraal
 --------------------------------------
 Structure from the checkpoint file:  "JID_4803.chk"
 Charge =  0 Multiplicity = 1

 SCF Done:  E(RB3LYP) =  -618.640798466     A.U. after   14 cycles
 Normal termination of Gaussian 16 at Thu Dec 10 11:00:48 2020.

 ----------------------------------------------------------------------
 # B3LYP/6-311++G(d,p) empiricaldispersion=gd3bj scf=xqc pop=npa geom=c
 heck
 ----------------------------------------------------------------------

 ------------------------------------
 CID_10845494_JID_4803_Energie_kation
 ------------------------------------
 Structure from the checkpoint file:  "JID_4803.chk"
 Charge =  1 Multiplicity = 2

 SCF Done:  E(UB3LYP) =  -618.333263271     A.U. after   24 cycles
 Normal termination of Gaussian 16 at Thu Dec 10 11:11:33 2020.
 Gaussian 16:  ES64L-G16RevA.03 25-Dec-2016

 ----------------------------------------------------------------------
 # B3LYP/6-311++G(d,p) empiricaldispersion=gd3bj scf=xqc pop=npa geom=c
 heck
 ----------------------------------------------------------------------

 -----------------------------------
 CID_10845494_JID_4803_Energie_anion
 -----------------------------------
 Structure from the checkpoint file:  "JID_4803.chk"
 Charge = -1 Multiplicity = 2

                         Standard orientation:
 ---------------------------------------------------------------------
 Center     Atomic      Atomic             Coordinates (Angstroms)
 Number     Number       Type             X           Y           Z
 ---------------------------------------------------------------------
      1          6           0       -2.643004   -1.498702   -1.799201
      2          8           0       -1.523707   -1.616675   -0.941821
      3          6           0       -1.722349   -1.004919    0.328567
      4          6           0       -1.812530    0.509924    0.229943
      5          6           0       -2.852296    1.150409    0.704066
      6          6           0       -3.891479    1.778660    1.188584
      7          6           0       -0.650603    1.225751   -0.431223
      8          6           0        0.650579    1.225763    0.431257
      9          6           0        1.812523    0.509957   -0.229869
     10          6           0        2.852276    1.150474   -0.703972
     11          6           0        3.891396    1.778801   -1.188516
     12          6           0        1.722287   -1.004859   -0.328599
     13          8           0        1.523762   -1.616743    0.941792
     14          6           0        2.643138   -1.498828    1.799060
     15          1           0       -2.394549   -2.032036   -2.720072
     16          1           0       -2.871776   -0.450295   -2.037141
     17          1           0       -3.539226   -1.953551   -1.349038
     18          1           0       -2.626164   -1.404012    0.810763
     19          1           0       -0.847764   -1.296581    0.918177
     20          1           0       -3.922718    2.120671    2.221795
     21          1           0       -4.768578    1.988579    0.578630
     22          1           0       -0.451532    0.737661   -1.392085
     23          1           0       -0.940727    2.255795   -0.654067
     24          1           0        0.940706    2.255811    0.654118
     25          1           0        0.451519    0.737691    1.392125
     26          1           0        3.922535    2.120950   -2.221686
     27          1           0        4.768518    1.988756   -0.578605
     28          1           0        0.847607   -1.296414   -0.918121
     29          1           0        2.626035   -1.403959   -0.810897
     30          1           0        3.539310   -1.953707    1.348818
     31          1           0        2.871984   -0.450434    2.036991
     32          1           0        2.394757   -2.032161    2.719953
 ---------------------------------------------------------------------

 SCF Done:  E(UB3LYP) =  -618.624267621     A.U. after   30 cycles

 The electronic state is 2-A.
 Alpha  occ. eigenvalues --  -19.03409 -19.03409 -10.12358 -10.12357 -10.11491
 Alpha  occ. eigenvalues --  -10.11490 -10.09036 -10.09036 -10.08935 -10.08935
 Alpha  occ. eigenvalues --  -10.08054 -10.08054 -10.08033 -10.08014  -0.94497
 Alpha  occ. eigenvalues --   -0.94345  -0.73751  -0.71643  -0.66567  -0.64736
 Alpha  occ. eigenvalues --   -0.63500  -0.60747  -0.58579  -0.54404  -0.52515
 Alpha  occ. eigenvalues --   -0.50820  -0.42486  -0.41410  -0.39963  -0.39111
 Alpha  occ. eigenvalues --   -0.38817  -0.38442  -0.37968  -0.37780  -0.35035
 Alpha  occ. eigenvalues --   -0.34907  -0.34556  -0.34544  -0.32062  -0.29966
 Alpha  occ. eigenvalues --   -0.29611  -0.29076  -0.28101  -0.27430  -0.24835
 Alpha  occ. eigenvalues --   -0.23900  -0.22396  -0.18807  -0.18229  -0.16753
 Alpha  occ. eigenvalues --   -0.16416  -0.16173  -0.15308   0.04460
 Alpha virt. eigenvalues --    0.06026   0.07071   0.07250   0.08319   0.08641
 Alpha virt. eigenvalues --    0.08759   0.08844   0.09228   0.09372   0.09713
 Alpha virt. eigenvalues --    0.10188   0.10287   0.11279   0.11561   0.11680

  Beta  occ. eigenvalues --  -19.03404 -19.03403 -10.12351 -10.12351 -10.11459
  Beta  occ. eigenvalues --  -10.11459 -10.09032 -10.09032 -10.08932 -10.08932
  Beta  occ. eigenvalues --  -10.08018 -10.08018 -10.08015 -10.07996  -0.94484
  Beta  occ. eigenvalues --   -0.94332  -0.73730  -0.71621  -0.66530  -0.64700
  Beta  occ. eigenvalues --   -0.63470  -0.60704  -0.58535  -0.54358  -0.52471
  Beta  occ. eigenvalues --   -0.50772  -0.42451  -0.41363  -0.39925  -0.39089
  Beta  occ. eigenvalues --   -0.38788  -0.38421  -0.37927  -0.37747  -0.34998
  Beta  occ. eigenvalues --   -0.34866  -0.34515  -0.34512  -0.32034  -0.29933
  Beta  occ. eigenvalues --   -0.29587  -0.29054  -0.28083  -0.27402  -0.24810
  Beta  occ. eigenvalues --   -0.23870  -0.22368  -0.18777  -0.18202  -0.16727
  Beta  occ. eigenvalues --   -0.16388  -0.16146  -0.15275
  Beta virt. eigenvalues --    0.06444   0.06922   0.07586   0.07781   0.08723
  Beta virt. eigenvalues --    0.08957   0.09114   0.09139   0.09355   0.09527
  Beta virt. eigenvalues --    0.10081   0.10393   0.10496   0.11555   0.11853

 Mulliken charges and spin densities:
               1          2
     1  C    0.509392  -0.871689
     2  O   -0.103194   0.050555
     3  C   -0.797990  -0.109971
     4  C    1.038930  -0.370760
     5  C    1.256524  -1.216312
     6  C   -0.259236   0.031118
     7  C   -1.422951   0.742494
     8  C   -1.422861   0.742422
     9  C    1.038904  -0.370737
    10  C    1.256052  -1.215913
    11  C   -0.258750   0.030669
    12  C   -0.798091  -0.109904
    13  O   -0.103182   0.050543
    14  C    0.509142  -0.871425
    15  H   -0.087171   0.232453
    16  H   -0.133971   0.287274
    17  H   -0.252384   0.394171
    18  H   -0.089907   0.222884
    19  H    0.324569  -0.040266
    20  H   -0.180179   0.313074
    21  H   -0.109323   0.241874
    22  H    0.071151   0.128783
    23  H   -0.264349   0.464426
    24  H   -0.264235   0.464315
    25  H    0.071169   0.128766
    26  H   -0.180305   0.313213
    27  H   -0.109266   0.241811
    28  H    0.324653  -0.040340
    29  H   -0.089891   0.222872
    30  H   -0.252273   0.394050
    31  H   -0.133877   0.287170
    32  H   -0.087101   0.232379
 Sum of Mulliken charges =  -1.00000   1.00000

 Dipole moment (field-independent basis, Debye):
    X=              0.0007    Y=             -1.1755    Z=              0.0011  Tot=              1.1755
 Quadrupole moment (field-independent basis, Debye-Ang):
   XX=           -166.7242   YY=           -130.2222   ZZ=           -124.4439
   XY=             -0.0019   XZ=             -3.1516   YZ=              0.0007

 Summary of Natural Population Analysis:

                                       Natural Population
                Natural  -----------------------------------------------
    Atom  No    Charge         Core      Valence    Rydberg      Total
 -----------------------------------------------------------------------
      C    1   -0.10042      0.99961     2.09130    0.00950     3.10042
      O    2   -0.29875      0.99989     3.28930    0.00956     4.29875
      C    3   -0.02030      0.99952     2.00736    0.01342     3.02030
      C    4   -0.06664      0.99941     2.05626    0.01097     3.06664
      C    5    0.04415      0.99943     1.94503    0.01139     2.95585
      C    6   -0.22892      0.99952     2.22426    0.00514     3.22892
      C    7   -0.19422      0.99957     2.18459    0.01006     3.19422
      C    8   -0.19422      0.99957     2.18458    0.01006     3.19422
      C    9   -0.06665      0.99941     2.05626    0.01097     3.06665
      C   10    0.04415      0.99943     1.94503    0.01139     2.95585
      C   11   -0.22892      0.99952     2.22426    0.00514     3.22892
      C   12   -0.02030      0.99952     2.00736    0.01342     3.02030
      O   13   -0.29876      0.99989     3.28930    0.00956     4.29876
      C   14   -0.10042      0.99961     2.09130    0.00950     3.10042
      H   15    0.08941      0.00000     0.40961    0.00097     0.41059
      H   16    0.08371      0.00000     0.41454    0.00175     0.41629
      H   17    0.07919      0.00000     0.41927    0.00154     0.42081
      H   18    0.08555      0.00000     0.41322    0.00123     0.41445
      H   19    0.10634      0.00000     0.39117    0.00248     0.39366
      H   20    0.10350      0.00000     0.39463    0.00187     0.39650
      H   21    0.10396      0.00000     0.39444    0.00160     0.39604
      H   22    0.10598      0.00000     0.39210    0.00193     0.39402
      H   23    0.10748      0.00000     0.39139    0.00114     0.39252
      H   24    0.10748      0.00000     0.39139    0.00114     0.39252
      H   25    0.10597      0.00000     0.39210    0.00193     0.39403
      H   26    0.10350      0.00000     0.39463    0.00187     0.39650
      H   27    0.10396      0.00000     0.39444    0.00160     0.39604
      H   28    0.10635      0.00000     0.39117    0.00248     0.39365
      H   29    0.08555      0.00000     0.41322    0.00123     0.41445
      H   30    0.07919      0.00000     0.41928    0.00154     0.42081
      H   31    0.08370      0.00000     0.41454    0.00175     0.41630
      H   32    0.08941      0.00000     0.40962    0.00097     0.41059
 =======================================================================
   * Total *    0.00000     13.99392    38.83697    0.16911    53.00000

 Normal termination of Gaussian 16 at Thu Dec 10 11:24:44 2020.
