 Gaussian 16, Revision A.03,

 -----------------------------------------------------------
 # opt freq B3LYP/6-31G(d) empiricaldispersion=gd3bj scf=xqc
 -----------------------------------------------------------

 -------------------------------
 CID_114411397_JID_8254_neutraal
 -------------------------------
 Symbolic Z-matrix:
 Charge =  0 Multiplicity = 1

 SCF Done:  E(RB3LYP) =  -803.116337842     A.U. after   15 cycles
 SCF Done:  E(RB3LYP) =  -803.122130110     A.U. after   12 cycles
 SCF Done:  E(RB3LYP) =  -803.123051124     A.U. after   12 cycles
 SCF Done:  E(RB3LYP) =  -803.124566534     A.U. after   15 cycles
 SCF Done:  E(RB3LYP) =  -803.125817245     A.U. after   14 cycles
 SCF Done:  E(RB3LYP) =  -803.127317371     A.U. after   12 cycles
 SCF Done:  E(RB3LYP) =  -803.127630445     A.U. after   14 cycles
 SCF Done:  E(RB3LYP) =  -803.127913835     A.U. after   11 cycles
 SCF Done:  E(RB3LYP) =  -803.127955046     A.U. after   10 cycles
 SCF Done:  E(RB3LYP) =  -803.127970476     A.U. after   10 cycles
 SCF Done:  E(RB3LYP) =  -803.127976789     A.U. after    8 cycles
 SCF Done:  E(RB3LYP) =  -803.127977605     A.U. after    8 cycles
 SCF Done:  E(RB3LYP) =  -803.127977961     A.U. after    8 cycles
 SCF Done:  E(RB3LYP) =  -803.127978037     A.U. after    7 cycles
 SCF Done:  E(RB3LYP) =  -803.127978090     A.U. after    7 cycles
 Optimization completed.
    -- Stationary point found.
 Normal termination of Gaussian 16 at Fri Dec 11 19:43:40 2020.

 --------------------------------------------------------------------
 #N Geom=AllCheck Guess=TCheck SCRF=Check GenChk RB3LYP/6-31G(d) Freq
 --------------------------------------------------------------------

 Structure from the checkpoint file:  "JID_8254.chk"
 -------------------------------
 CID_114411397_JID_8254_neutraal
 -------------------------------
 Charge =  0 Multiplicity = 1

 SCF Done:  E(RB3LYP) =  -803.127978090     A.U. after    1 cycles

  Exact polarizability: 259.987  -9.238 158.566   1.874   0.504  89.572
 Approx polarizability: 339.673 -22.423 269.895   4.464   3.412 139.338

                      1                      2                      3
                      A                      A                      A
 Frequencies --     34.4243                43.5178                71.3105
 Red. masses --      4.6655                 3.7304                 5.1670
 Frc consts  --      0.0033                 0.0042                 0.0155
 IR Inten    --      0.5147                 0.3413                 3.3837

                      4                      5                      6
                      A                      A                      A
 Frequencies --     84.6830               108.7566               153.6881
 Red. masses --      5.6813                 4.0507                 3.1365
 Frc consts  --      0.0240                 0.0282                 0.0436
 IR Inten    --      2.0667                 0.3692                 0.6884

                      7                      8                      9
                      A                      A                      A
 Frequencies --    188.9266               200.9498               213.3660
 Red. masses --      1.1640                 3.3223                 3.5250
 Frc consts  --      0.0245                 0.0790                 0.0945
 IR Inten    --      1.1685                 3.0836                 0.3445

                     10                     11                     12
                      A                      A                      A
 Frequencies --    259.8513               269.2007               280.4633
 Red. masses --      3.7344                 4.6404                 3.7128
 Frc consts  --      0.1486                 0.1981                 0.1721
 IR Inten    --      7.9966                 1.8546                16.1420

                     13                     14                     15
                      A                      A                      A
 Frequencies --    289.9137               321.8346               334.5091
 Red. masses --      2.1063                 2.1653                 1.8451
 Frc consts  --      0.1043                 0.1321                 0.1216
 IR Inten    --      4.6719                25.6460                57.8542

                     16                     17                     18
                      A                      A                      A
 Frequencies --    344.7042               426.9012               438.5285
 Red. masses --      3.0132                 3.3414                 2.5458
 Frc consts  --      0.2109                 0.3588                 0.2885
 IR Inten    --      9.4552                 4.5606                 0.6596

                     19                     20                     21
                      A                      A                      A
 Frequencies --    448.0841               457.4301               497.7954
 Red. masses --      2.3486                 3.0111                 6.3781
 Frc consts  --      0.2778                 0.3712                 0.9312
 IR Inten    --      4.0853                 7.9971                 2.3074

                     22                     23                     24
                      A                      A                      A
 Frequencies --    515.9474               542.0301               558.2814
 Red. masses --      1.7446                 3.3573                 3.9237
 Frc consts  --      0.2736                 0.5811                 0.7205
 IR Inten    --     86.8482                 1.6881                34.7857

                     25                     26                     27
                      A                      A                      A
 Frequencies --    582.6267               651.5502               676.4063
 Red. masses --      5.1764                 3.6651                 4.7274
 Frc consts  --      1.0353                 0.9167                 1.2743
 IR Inten    --      3.3840                 6.4524                20.7311

                     28                     29                     30
                      A                      A                      A
 Frequencies --    703.7853               724.7875               733.1171
 Red. masses --      4.8340                 4.6040                 3.2750
 Frc consts  --      1.4107                 1.4250                 1.0371
 IR Inten    --      5.4194                 2.9206                 6.0620

                     31                     32                     33
                      A                      A                      A
 Frequencies --    759.0168               787.3366               810.1863
 Red. masses --      4.1041                 1.9310                 1.5429
 Frc consts  --      1.3931                 0.7053                 0.5967
 IR Inten    --      0.6930                 2.7796                17.4308

                     34                     35                     36
                      A                      A                      A
 Frequencies --    824.5924               835.6132               860.8772
 Red. masses --      1.6748                 1.3616                 3.8699
 Frc consts  --      0.6709                 0.5602                 1.6898
 IR Inten    --     37.6321                 0.8215                13.1087

                     37                     38                     39
                      A                      A                      A
 Frequencies --    887.3867               904.6788               946.8176
 Red. masses --      4.7252                 3.6101                 1.3207
 Frc consts  --      2.1923                 1.7408                 0.6976
 IR Inten    --      2.0588                 4.2584                 2.2475

                     40                     41                     42
                      A                      A                      A
 Frequencies --    951.2156               993.7973              1001.2569
 Red. masses --      1.9790                 2.3418                 2.5426
 Frc consts  --      1.0550                 1.3627                 1.5018
 IR Inten    --      4.4833                18.9175                 9.8386

                     43                     44                     45
                      A                      A                      A
 Frequencies --   1030.2610              1048.9338              1057.8380
 Red. masses --      1.5427                 1.6217                 1.6949
 Frc consts  --      0.9648                 1.0513                 1.1175
 IR Inten    --      4.4100                 4.4384                15.8127

                     46                     47                     48
                      A                      A                      A
 Frequencies --   1084.9468              1094.3824              1106.1008
 Red. masses --      2.3493                 2.7803                 2.0458
 Frc consts  --      1.6293                 1.9619                 1.4747
 IR Inten    --     20.8863                49.8552                78.2973

                     49                     50                     51
                      A                      A                      A
 Frequencies --   1152.3070              1187.0254              1198.0445
 Red. masses --      2.1726                 2.3186                 1.7695
 Frc consts  --      1.6997                 1.9249                 1.4964
 IR Inten    --    233.9436                75.8519                44.2123

                     52                     53                     54
                      A                      A                      A
 Frequencies --   1225.5076              1228.2102              1232.4297
 Red. masses --      2.5095                 1.5010                 1.3926
 Frc consts  --      2.2206                 1.3340                 1.2462
 IR Inten    --     19.1712                 3.1873                52.9697

                     55                     56                     57
                      A                      A                      A
 Frequencies --   1253.8052              1258.6976              1277.8179
 Red. masses --      1.5989                 1.4725                 1.4755
 Frc consts  --      1.4810                 1.3745                 1.4195
 IR Inten    --     16.0898                 9.8439                26.9137

                     58                     59                     60
                      A                      A                      A
 Frequencies --   1284.3116              1299.3134              1322.0971
 Red. masses --      1.8780                 1.6861                 2.5291
 Frc consts  --      1.8251                 1.6771                 2.6046
 IR Inten    --     14.3308                70.9173                41.4897

                     61                     62                     63
                      A                      A                      A
 Frequencies --   1352.8225              1363.2468              1378.2752
 Red. masses --      1.4619                 2.2393                 1.5354
 Frc consts  --      1.5764                 2.4519                 1.7185
 IR Inten    --     12.5032                21.9074                43.4798

                     64                     65                     66
                      A                      A                      A
 Frequencies --   1407.2178              1414.7680              1418.8949
 Red. masses --      1.8603                 2.4032                 1.9459
 Frc consts  --      2.1705                 2.8341                 2.3082
 IR Inten    --      8.8388                26.4115                15.8333

                     67                     68                     69
                      A                      A                      A
 Frequencies --   1433.2792              1439.6599              1446.4893
 Red. masses --      1.2845                 1.5528                 1.3705
 Frc consts  --      1.5547                 1.8962                 1.6895
 IR Inten    --    176.9970                38.3575                28.4986

                     70                     71                     72
                      A                      A                      A
 Frequencies --   1500.6148              1509.3602              1514.7796
 Red. masses --      1.0931                 1.0515                 3.8015
 Frc consts  --      1.4502                 1.4114                 5.1393
 IR Inten    --      1.6946                 7.4120                56.9850

                     73                     74                     75
                      A                      A                      A
 Frequencies --   1521.5305              1524.8446              1535.3969
 Red. masses --      1.0754                 1.1081                 1.1085
 Frc consts  --      1.4668                 1.5180                 1.5397
 IR Inten    --     11.7584                 9.9089                40.4018

                     76                     77                     78
                      A                      A                      A
 Frequencies --   1560.1710              1638.1538              1687.4853
 Red. masses --      2.8083                 7.1425                 6.6668
 Frc consts  --      4.0275                11.2930                11.1852
 IR Inten    --    141.7805                36.0374               408.9277

                     79                     80                     81
                      A                      A                      A
 Frequencies --   1768.5901              1854.9336              2910.5734
 Red. masses --      6.7094                11.2697                 1.0741
 Frc consts  --     12.3649                22.8466                 5.3611
 IR Inten    --      0.8271               517.0845                65.3567

                     82                     83                     84
                      A                      A                      A
 Frequencies --   2971.1635              3025.1809              3031.1119
 Red. masses --      1.0755                 1.0531                 1.0452
 Frc consts  --      5.5941                 5.6781                 5.6578
 IR Inten    --     70.9072                11.1975                69.9355

                     85                     86                     87
                      A                      A                      A
 Frequencies --   3050.8275              3059.2661              3065.3681
 Red. masses --      1.0846                 1.1018                 1.0831
 Frc consts  --      5.9480                 6.0754                 5.9963
 IR Inten    --     22.0453                35.6763                19.1547

                     88                     89                     90
                      A                      A                      A
 Frequencies --   3074.8635              3124.4871              3165.1507
 Red. masses --      1.0998                 1.0998                 1.0882
 Frc consts  --      6.1267                 6.3259                 6.4231
 IR Inten    --     29.0843                21.4671                21.2048

                     91                     92                     93
                      A                      A                      A
 Frequencies --   3169.8423              3195.5416              3223.0092
 Red. masses --      1.0900                 1.0890                 1.0913
 Frc consts  --      6.4530                 6.5518                 6.6793
 IR Inten    --     22.9419                 7.9527                15.6352

                     94                     95                     96
                      A                      A                      A
 Frequencies --   3234.0864              3629.4631              3727.0537
 Red. masses --      1.0895                 1.0786                 1.0662
 Frc consts  --      6.7142                 8.3711                 8.7259
 IR Inten    --      6.7778                29.3829                13.0667

 - Thermochemistry -
 -------------------
 Temperature   298.150 Kelvin.  Pressure   1.00000 Atm.
 Atom     1 has atomic number  6 and mass  12.00000

 Molecular mass:   244.12118 amu.
 Principal axes and moments of inertia in atomic units:
                           1         2         3
     Eigenvalues --  1283.17134********************
           X            0.99999   0.00316  -0.00131
           Y           -0.00317   0.99996  -0.00827
           Z            0.00128   0.00827   0.99996
 This molecule is an asymmetric top.
 Rotational symmetry number  1.
 Warning -- assumption of classical behavior for rotation
           may cause significant error
 Rotational temperatures (Kelvin)      0.06750     0.00822     0.00752
 Rotational constants (GHZ):           1.40647     0.17131     0.15669
 Zero-point vibrational energy     741623.0 (Joules/Mol)
                                  177.25215 (Kcal/Mol)
 Warning -- explicit consideration of  25 degrees of freedom as
           vibrations may cause significant error
 Vibrational temperatures:     49.53    62.61   102.60   121.84   156.48
          (Kelvin)            221.12   271.82   289.12   306.99   373.87
                              387.32   403.52   417.12   463.05   481.28
                              495.95   614.22   630.94   644.69   658.14
                              716.22   742.33   779.86   803.24   838.27
                              937.44   973.20  1012.59  1042.81  1054.79
                             1092.06  1132.80  1165.68  1186.40  1202.26
                             1238.61  1276.75  1301.63  1362.26  1368.59
                             1429.85  1440.59  1482.32  1509.18  1521.99
                             1561.00  1574.57  1591.43  1657.91  1707.86
                             1723.72  1763.23  1767.12  1773.19  1803.95
                             1810.99  1838.49  1847.84  1869.42  1902.20
                             1946.41  1961.41  1983.03  2024.67  2035.54
                             2041.47  2062.17  2071.35  2081.18  2159.05
                             2171.63  2179.43  2189.14  2193.91  2209.09
                             2244.74  2356.94  2427.91  2544.61  2668.84
                             4187.67  4274.84  4352.56  4361.09  4389.46
                             4401.60  4410.38  4424.04  4495.44  4553.95
                             4560.70  4597.67  4637.19  4653.13  5221.99
                             5362.40

 Zero-point correction=                           0.282469 (Hartree/Particle)
 Thermal correction to Energy=                    0.298366
 Thermal correction to Enthalpy=                  0.299311
 Thermal correction to Gibbs Free Energy=         0.238827
 Sum of electronic and zero-point Energies=           -802.845509
 Sum of electronic and thermal Energies=              -802.829612
 Sum of electronic and thermal Enthalpies=            -802.828668
 Sum of electronic and thermal Free Energies=         -802.889152

                     E (Thermal)             CV                S
                      KCal/Mol        Cal/Mol-Kelvin    Cal/Mol-Kelvin
 Total                  187.228             62.397            127.299
 Electronic               0.000              0.000              0.000
 Translational            0.889              2.981             42.378
 Rotational               0.889              2.981             33.409
 Vibrational            185.450             56.435             51.512
 Vibration     1          0.594              1.983              5.557
 Vibration     2          0.595              1.980              5.092
 Vibration     3          0.598              1.968              4.117
 Vibration     4          0.601              1.960              3.779
 Vibration     5          0.606              1.942              3.291
 Vibration     6          0.619              1.899              2.626
 Vibration     7          0.633              1.855              2.238
 Vibration     8          0.638              1.839              2.124
 Vibration     9          0.644              1.821              2.015
 Vibration    10          0.668              1.746              1.663
 Vibration    11          0.674              1.730              1.601
 Vibration    12          0.680              1.710              1.531
 Vibration    13          0.686              1.692              1.474
 Vibration    14          0.707              1.632              1.301
 Vibration    15          0.716              1.607              1.238
 Vibration    16          0.723              1.586              1.190
 Vibration    17          0.789              1.412              0.869
 Vibration    18          0.799              1.386              0.831
 Vibration    19          0.807              1.365              0.802
 Vibration    20          0.816              1.344              0.774
 Vibration    21          0.853              1.255              0.664
 Vibration    22          0.871              1.215              0.619
 Vibration    23          0.897              1.157              0.561
 Vibration    24          0.914              1.122              0.527
 Vibration    25          0.939              1.069              0.481

                           ! Non-Optimized Parameters !
 Normal termination of Gaussian 16 at Fri Dec 11 19:56:13 2020.

 ----------------------------------------------------------------------
 # B3LYP/6-311++G(d,p) empiricaldispersion=gd3bj scf=xqc pop=npa geom=c
 heck
 ----------------------------------------------------------------------

 ---------------------------------------
 CID_114411397_JID_8254_Energie_neutraal
 ---------------------------------------
 Structure from the checkpoint file:  "JID_8254.chk"
 Charge =  0 Multiplicity = 1

 SCF Done:  E(RB3LYP) =  -803.356271536     A.U. after   15 cycles
 Normal termination of Gaussian 16 at Fri Dec 11 20:01:19 2020.

 ----------------------------------------------------------------------
 # B3LYP/6-311++G(d,p) empiricaldispersion=gd3bj scf=xqc pop=npa geom=c
 heck
 ----------------------------------------------------------------------

 -------------------------------------
 CID_114411397_JID_8254_Energie_kation
 -------------------------------------
 Structure from the checkpoint file:  "JID_8254.chk"
 Charge =  1 Multiplicity = 2

 SCF Done:  E(UB3LYP) =  -803.089914199     A.U. after   22 cycles
 Normal termination of Gaussian 16 at Fri Dec 11 20:11:25 2020.
 Gaussian 16:  ES64L-G16RevA.03 25-Dec-2016

 ----------------------------------------------------------------------
 # B3LYP/6-311++G(d,p) empiricaldispersion=gd3bj scf=xqc pop=npa geom=c
 heck
 ----------------------------------------------------------------------

 ------------------------------------
 CID_114411397_JID_8254_Energie_anion
 ------------------------------------
 Structure from the checkpoint file:  "JID_8254.chk"
 Charge = -1 Multiplicity = 2

                         Standard orientation:
 ---------------------------------------------------------------------
 Center     Atomic      Atomic             Coordinates (Angstroms)
 Number     Number       Type             X           Y           Z
 ---------------------------------------------------------------------
      1          6           0       -6.055000   -0.331131    0.559085
      2          6           0       -4.588040   -0.255946    0.240226
      3          6           0       -3.789493   -1.327406    0.239763
      4          6           0       -2.307751   -1.287927   -0.017730
      5          7           0       -1.797759    0.071958   -0.093493
      6          6           0       -2.687551    0.974265   -0.823349
      7          6           0       -4.022200    1.103498   -0.093474
      8          6           0       -0.415144    0.269280   -0.128663
      9          6           0        0.473966   -0.829400   -0.192036
     10          6           0        1.837779   -0.578277   -0.171133
     11          6           0        2.371012    0.714794   -0.113871
     12          6           0        1.499265    1.792742   -0.050874
     13          6           0        0.122790    1.574659   -0.047826
     14          6           0        3.876224    0.633508   -0.137718
     15          6           0        4.130589   -0.906439   -0.090796
     16          8           0        5.191567   -1.479612    0.033703
     17          7           0        2.887120   -1.510700   -0.210064
     18          8           0        4.566771    1.350517    0.867563
     19          1           0       -6.305054    0.318769    1.408965
     20          1           0       -6.365417   -1.350352    0.809043
     21          1           0       -6.662156    0.015449   -0.288329
     22          1           0       -4.197532   -2.313945    0.452213
     23          1           0       -2.077171   -1.865098   -0.936340
     24          1           0       -1.792780   -1.802806    0.803362
     25          1           0       -2.212810    1.947433   -0.935063
     26          1           0       -2.865020    0.582907   -1.840469
     27          1           0       -3.892606    1.693604    0.825198
     28          1           0       -4.729588    1.659875   -0.724032
     29          1           0        0.109449   -1.845345   -0.273755
     30          1           0        1.887910    2.804754    0.022296
     31          1           0       -0.542313    2.423381    0.058500
     32          1           0        4.292319    1.003860   -1.082756
     33          1           0        2.775423   -2.512610   -0.137026
     34          1           0        4.206444    1.066750    1.723349
 ---------------------------------------------------------------------

 SCF Done:  E(UB3LYP) =  -803.351518741     A.U. after   33 cycles
 SCF Done:  E(UB3LYP) =  -803.351518741     a.u. after    1 cycles

 The electronic state is 2-A.
 Alpha  occ. eigenvalues --  -19.02951 -18.99592 -14.25352 -14.23098 -10.16694
 Alpha  occ. eigenvalues --  -10.13306 -10.11590 -10.11357 -10.11162 -10.10822
 Alpha  occ. eigenvalues --  -10.08514 -10.08010 -10.07805 -10.07332 -10.07287
 Alpha  occ. eigenvalues --  -10.07222 -10.06557 -10.06158  -0.95189  -0.92727
 Alpha  occ. eigenvalues --   -0.86092  -0.85506  -0.74848  -0.72119  -0.67392
 Alpha  occ. eigenvalues --   -0.66987  -0.64307  -0.62903  -0.59028  -0.55529
 Alpha  occ. eigenvalues --   -0.53484  -0.52280  -0.50642  -0.48222  -0.45179
 Alpha  occ. eigenvalues --   -0.41967  -0.40965  -0.39402  -0.39000  -0.38017
 Alpha  occ. eigenvalues --   -0.37541  -0.36778  -0.35579  -0.34226  -0.33794
 Alpha  occ. eigenvalues --   -0.33617  -0.32486  -0.31885  -0.31233  -0.30641
 Alpha  occ. eigenvalues --   -0.29732  -0.28816  -0.27982  -0.27556  -0.26865
 Alpha  occ. eigenvalues --   -0.25693  -0.24422  -0.23412  -0.22242  -0.20380
 Alpha  occ. eigenvalues --   -0.18228  -0.15316  -0.14868  -0.13357  -0.09980
 Alpha  occ. eigenvalues --    0.03873
 Alpha virt. eigenvalues --    0.05419   0.06507   0.07077   0.07742   0.08222
 Alpha virt. eigenvalues --    0.08330   0.08832   0.09367   0.09567   0.10231
 Alpha virt. eigenvalues --    0.10307   0.10948   0.11205   0.11657   0.12055

  Beta  occ. eigenvalues --  -19.02866 -18.99459 -14.25371 -14.23110 -10.16557
  Beta  occ. eigenvalues --  -10.13319 -10.11525 -10.11218 -10.11151 -10.10797
  Beta  occ. eigenvalues --  -10.08514 -10.07984 -10.07778 -10.07316 -10.07296
  Beta  occ. eigenvalues --  -10.07203 -10.06563 -10.06074  -0.94957  -0.92510
  Beta  occ. eigenvalues --   -0.86002  -0.85434  -0.74758  -0.72071  -0.67309
  Beta  occ. eigenvalues --   -0.66879  -0.64225  -0.62795  -0.58887  -0.55467
  Beta  occ. eigenvalues --   -0.53412  -0.52235  -0.50514  -0.48083  -0.45135
  Beta  occ. eigenvalues --   -0.41891  -0.40875  -0.39325  -0.38893  -0.37939
  Beta  occ. eigenvalues --   -0.37197  -0.36726  -0.35513  -0.34172  -0.33747
  Beta  occ. eigenvalues --   -0.33566  -0.32412  -0.31792  -0.31191  -0.30340
  Beta  occ. eigenvalues --   -0.29672  -0.28666  -0.27943  -0.27240  -0.26768
  Beta  occ. eigenvalues --   -0.25607  -0.24294  -0.23355  -0.21854  -0.20228
  Beta  occ. eigenvalues --   -0.17934  -0.15206  -0.14819  -0.13226  -0.09693
  Beta virt. eigenvalues --    0.06042   0.06614   0.06928   0.07492   0.08147
  Beta virt. eigenvalues --    0.08365   0.08553   0.09173   0.09512   0.09785
  Beta virt. eigenvalues --    0.10387   0.10555   0.11069   0.11441   0.11794

 Mulliken charges and spin densities:
               1          2
     1  C    1.999723  -2.605872
     2  C   -1.175993   1.957656
     3  C   -0.067641  -0.575406
     4  C    1.257941  -1.428555
     5  N    0.351598   0.080836
     6  C   -0.759728   0.344207
     7  C   -0.378074  -0.223866
     8  C   -0.150513   0.066134
     9  C   -0.370068  -0.046141
    10  C    0.243490  -0.062712
    11  C    0.406393  -0.162954
    12  C   -0.460339   0.138379
    13  C   -0.280361   0.006905
    14  C   -0.356631   0.177418
    15  C    0.111642   0.019075
    16  O   -0.381079   0.049172
    17  N   -0.205195   0.003427
    18  O   -0.119395  -0.044723
    19  H   -0.142335   0.285545
    20  H   -0.364560   0.519110
    21  H   -0.174281   0.321888
    22  H   -0.562030   0.722239
    23  H   -0.028726   0.174786
    24  H    0.101555   0.066109
    25  H    0.086110   0.033464
    26  H   -0.122042   0.270787
    27  H    0.049468   0.112582
    28  H   -0.153515   0.296251
    29  H   -0.007427   0.160299
    30  H    0.136238   0.022325
    31  H    0.027843   0.081935
    32  H    0.054333   0.147427
    33  H    0.277108   0.015505
    34  H    0.156490   0.076765
 Sum of Mulliken charges =  -1.00000   1.00000

 Dipole moment (field-independent basis, Debye):
    X=              1.4411    Y=              1.4184    Z=             -0.2100  Tot=              2.0330
 Quadrupole moment (field-independent basis, Debye-Ang):
   XX=           -257.0420   YY=           -132.9711   ZZ=           -127.5571
   XY=             -7.5827   XZ=             -0.7931   YZ=              0.2969

 Summary of Natural Population Analysis:

                                       Natural Population
                Natural  -----------------------------------------------
    Atom  No    Charge         Core      Valence    Rydberg      Total
 -----------------------------------------------------------------------
      C    1   -0.29075      0.99963     2.28594    0.00519     3.29075
      C    2   -0.00688      0.99948     1.99638    0.01102     3.00688
      C    3   -0.10219      0.99944     2.09289    0.00986     3.10219
      C    4   -0.09569      0.99960     2.08401    0.01208     3.09569
      N    5   -0.25589      0.99964     2.74579    0.01046     3.75589
      C    6   -0.07489      0.99961     2.06461    0.01067     3.07489
      C    7   -0.20508      0.99958     2.19597    0.00953     3.20508
      C    8    0.12979      0.99951     1.86031    0.01040     2.87021
      C    9   -0.16058      0.99948     2.15246    0.00864     3.16058
      C   10    0.10745      0.99945     1.88248    0.01063     2.89255
      C   11   -0.06064      0.99945     2.05079    0.01039     3.06064
      C   12   -0.07718      0.99953     2.06810    0.00955     3.07718
      C   13   -0.13845      0.99954     2.13036    0.00855     3.13845
      C   14    0.02386      0.99949     1.96084    0.01581     2.97614
      C   15    0.35371      0.99970     1.62090    0.02569     2.64629
      O   16   -0.29602      0.99987     3.28971    0.00645     4.29602
      N   17   -0.31487      0.99964     2.80711    0.00813     3.81487
      O   18   -0.35382      0.99990     3.34710    0.00682     4.35382
      H   19    0.10116      0.00000     0.39730    0.00154     0.39884
      H   20    0.10342      0.00000     0.39522    0.00136     0.39658
      H   21    0.10194      0.00000     0.39637    0.00169     0.39806
      H   22    0.09866      0.00000     0.39990    0.00145     0.40134
      H   23    0.09020      0.00000     0.40794    0.00186     0.40980
      H   24    0.10264      0.00000     0.39589    0.00147     0.39736
      H   25    0.10064      0.00000     0.39810    0.00126     0.39936
      H   26    0.08627      0.00000     0.41221    0.00151     0.41373
      H   27    0.10312      0.00000     0.39552    0.00136     0.39688
      H   28    0.10179      0.00000     0.39695    0.00126     0.39821
      H   29    0.10367      0.00000     0.39478    0.00155     0.39633
      H   30    0.10017      0.00000     0.39872    0.00112     0.39983
      H   31    0.09856      0.00000     0.40047    0.00097     0.40144
      H   32    0.10233      0.00000     0.39596    0.00171     0.39767
      H   33    0.19682      0.00000     0.30132    0.00186     0.30318
      H   34    0.22678      0.00000     0.27012    0.00310     0.27322
 =======================================================================
   * Total *    0.00000     17.99255    46.79251    0.21494    65.00000

 Normal termination of Gaussian 16 at Fri Dec 11 20:26:50 2020.
