 Gaussian 16, Revision A.03,

 -----------------------------------------------------------
 # opt freq B3LYP/6-31G(d) empiricaldispersion=gd3bj scf=xqc
 -----------------------------------------------------------

 ------------------------------
 CID_134417645_JID_976_neutraal
 ------------------------------
 Symbolic Z-matrix:
 Charge =  0 Multiplicity = 1

 SCF Done:  E(RB3LYP) =  -872.093403909     A.U. after   16 cycles
 SCF Done:  E(RB3LYP) =  -872.106451157     A.U. after   14 cycles
 SCF Done:  E(RB3LYP) =  -872.108039114     A.U. after   14 cycles
 SCF Done:  E(RB3LYP) =  -872.108243093     A.U. after   12 cycles
 SCF Done:  E(RB3LYP) =  -872.108284264     A.U. after   13 cycles
 SCF Done:  E(RB3LYP) =  -872.108295393     A.U. after   11 cycles
 SCF Done:  E(RB3LYP) =  -872.108310726     A.U. after   10 cycles
 SCF Done:  E(RB3LYP) =  -872.108327082     A.U. after   12 cycles
 SCF Done:  E(RB3LYP) =  -872.108346993     A.U. after   13 cycles
 SCF Done:  E(RB3LYP) =  -872.108367742     A.U. after   12 cycles
 SCF Done:  E(RB3LYP) =  -872.108373713     A.U. after   11 cycles
 SCF Done:  E(RB3LYP) =  -872.108374179     A.U. after    9 cycles
 SCF Done:  E(RB3LYP) =  -872.108374194     A.U. after    8 cycles
 Optimization completed.
    -- Stationary point found.
 Normal termination of Gaussian 16 at Tue Dec  8 13:34:28 2020.

 --------------------------------------------------------------------
 #N Geom=AllCheck Guess=TCheck SCRF=Check GenChk RB3LYP/6-31G(d) Freq
 --------------------------------------------------------------------

 Structure from the checkpoint file:  "JID_976.chk"
 ------------------------------
 CID_134417645_JID_976_neutraal
 ------------------------------
 Charge =  0 Multiplicity = 1

 SCF Done:  E(RB3LYP) =  -872.108374194     A.U. after    1 cycles

  Exact polarizability: 120.697  -0.849  86.671  -2.778   0.212  51.738
 Approx polarizability: 185.219  -5.129 171.349 -13.208   1.801  79.513

                      1                      2                      3
                      A                      A                      A
 Frequencies --     42.1138                70.3497               106.6887
 Red. masses --      4.7026                 4.1717                 9.8547
 Frc consts  --      0.0049                 0.0122                 0.0661
 IR Inten    --      3.3331                 0.0867                 0.4627

                      4                      5                      6
                      A                      A                      A
 Frequencies --    135.9374               172.2636               213.5207
 Red. masses --      3.6267                 1.2413                 7.7937
 Frc consts  --      0.0395                 0.0217                 0.2094
 IR Inten    --      6.7669                 2.6401                 5.8858

                      7                      8                      9
                      A                      A                      A
 Frequencies --    243.6237               265.2267               299.7970
 Red. masses --     13.0233                 8.8916                 5.0031
 Frc consts  --      0.4554                 0.3685                 0.2649
 IR Inten    --      1.5692                 0.1852                15.4435

                     10                     11                     12
                      A                      A                      A
 Frequencies --    351.8561               459.6698               555.7493
 Red. masses --      7.5835                 1.2943                 1.9972
 Frc consts  --      0.5532                 0.1611                 0.3634
 IR Inten    --      5.4755               120.7218                 4.3721

                     13                     14                     15
                      A                      A                      A
 Frequencies --    571.2123               580.7057               615.2587
 Red. masses --     11.1311                 1.5461                 9.4657
 Frc consts  --      2.1399                 0.3072                 2.1112
 IR Inten    --      0.6192                94.0964                 7.3227

                     16                     17                     18
                      A                      A                      A
 Frequencies --    670.7051               681.1625               732.4033
 Red. masses --      7.3293                 5.6614                12.0040
 Frc consts  --      1.9426                 1.5476                 3.7938
 IR Inten    --      2.6834                 1.4894                 0.1644

                     19                     20                     21
                      A                      A                      A
 Frequencies --    775.5464               830.0192               978.3228
 Red. masses --     11.3461                 6.8511                 7.7016
 Frc consts  --      4.0208                 2.7809                 4.3431
 IR Inten    --     30.0603                24.0418                79.2652

                     22                     23                     24
                      A                      A                      A
 Frequencies --    991.4376               993.6939              1037.6779
 Red. masses --      1.2399                 1.3417                 4.0894
 Frc consts  --      0.7181                 0.7806                 2.5944
 IR Inten    --      6.1991                23.2722                35.4943

                     25                     26                     27
                      A                      A                      A
 Frequencies --   1127.3622              1337.5791              1382.1111
 Red. masses --      4.1760                 2.0919                 1.1710
 Frc consts  --      3.1271                 2.2051                 1.3179
 IR Inten    --     20.9609               334.3629                 7.3861

                     28                     29                     30
                      A                      A                      A
 Frequencies --   1423.1258              1471.1782              1487.5016
 Red. masses --      1.5876                 2.3372                 1.0536
 Frc consts  --      1.8945                 2.9804                 1.3735
 IR Inten    --      5.9279               179.0423                 7.1250

                     31                     32                     33
                      A                      A                      A
 Frequencies --   1506.4668              1692.1500              1869.5178
 Red. masses --      1.0557                11.5167                12.9783
 Frc consts  --      1.4115                19.4292                26.7256
 IR Inten    --     10.3706               701.8912               272.7554

                     34                     35                     36
                      A                      A                      A
 Frequencies --   1900.4540              3067.0419              3155.9776
 Red. masses --     12.6665                 1.0294                 1.1043
 Frc consts  --     26.9538                 5.7055                 6.4807
 IR Inten    --    301.5032                 9.6888                 3.8309

                     37                     38                     39
                      A                      A                      A
 Frequencies --   3169.3519              3576.9005              3596.7375
 Red. masses --      1.1091                 1.0766                 1.0655
 Frc consts  --      6.5637                 8.1155                 8.1209
 IR Inten    --      4.1406                62.5380               115.8227

 - Thermochemistry -
 -------------------
 Temperature   298.150 Kelvin.  Pressure   1.00000 Atm.
 Atom     1 has atomic number  6 and mass  12.00000

 Molecular mass:   158.99901 amu.
 Principal axes and moments of inertia in atomic units:
                           1         2         3
     Eigenvalues --   899.684722433.502943019.83177
           X            0.99977   0.00224   0.02150
           Y           -0.00230   0.99999   0.00260
           Z           -0.02149  -0.00265   0.99977
 This molecule is an asymmetric top.
 Rotational symmetry number  1.
 Warning -- assumption of classical behavior for rotation
           may cause significant error
 Rotational temperatures (Kelvin)      0.09627     0.03559     0.02868
 Rotational constants (GHZ):           2.00597     0.74162     0.59763
 Zero-point vibrational energy     264006.2 (Joules/Mol)
                                   63.09901 (Kcal/Mol)
 Warning -- explicit consideration of  15 degrees of freedom as
           vibrations may cause significant error
 Vibrational temperatures:     60.59   101.22   153.50   195.58   247.85
          (Kelvin)            307.21   350.52   381.60   431.34   506.24
                              661.36   799.60   821.85   835.51   885.22
                              964.99   980.04  1053.76  1115.84  1194.21
                             1407.59  1426.46  1429.70  1492.99  1622.02
                             1924.48  1988.55  2047.56  2116.70  2140.18
                             2167.47  2434.63  2689.82  2734.33  4412.79
                             4540.75  4559.99  5146.36  5174.90

 Zero-point correction=                           0.100555 (Hartree/Particle)
 Thermal correction to Energy=                    0.110964
 Thermal correction to Enthalpy=                  0.111908
 Thermal correction to Gibbs Free Energy=         0.063510
 Sum of electronic and zero-point Energies=           -872.007820
 Sum of electronic and thermal Energies=              -871.997410
 Sum of electronic and thermal Enthalpies=            -871.996466
 Sum of electronic and thermal Free Energies=         -872.044864

                     E (Thermal)             CV                S
                      KCal/Mol        Cal/Mol-Kelvin    Cal/Mol-Kelvin
 Total                   69.631             36.090            101.864
 Electronic               0.000              0.000              0.000
 Translational            0.889              2.981             41.100
 Rotational               0.889              2.981             30.270
 Vibrational             67.854             30.128             30.493
 Vibration     1          0.595              1.980              5.157
 Vibration     2          0.598              1.968              4.144
 Vibration     3          0.606              1.944              3.328
 Vibration     4          0.614              1.917              2.860
 Vibration     5          0.626              1.877              2.411
 Vibration     6          0.644              1.820              2.013
 Vibration     7          0.659              1.773              1.776
 Vibration     8          0.671              1.737              1.627
 Vibration     9          0.692              1.674              1.418
 Vibration    10          0.728              1.571              1.158
 Vibration    11          0.818              1.340              0.767
 Vibration    12          0.911              1.127              0.532
 Vibration    13          0.927              1.094              0.502
 Vibration    14          0.937              1.073              0.484
 Vibration    15          0.975              1.000              0.424

 Optimization completed.
    -- Stationary point found.
 Normal termination of Gaussian 16 at Tue Dec  8 13:37:18 2020.

 ----------------------------------------------------------------------
 # B3LYP/6-311++G(d,p) empiricaldispersion=gd3bj scf=xqc pop=npa geom=c
 heck
 ----------------------------------------------------------------------

 --------------------------------------
 CID_134417645_JID_976_Energie_neutraal
 --------------------------------------
 Structure from the checkpoint file:  "JID_976.chk"
 Charge =  0 Multiplicity = 1

 SCF Done:  E(RB3LYP) =  -872.288505108     A.U. after   15 cycles
 Normal termination of Gaussian 16 at Tue Dec  8 13:39:00 2020.

 ----------------------------------------------------------------------
 # B3LYP/6-311++G(d,p) empiricaldispersion=gd3bj scf=xqc pop=npa geom=c
 heck
 ----------------------------------------------------------------------

 ------------------------------------
 CID_134417645_JID_976_Energie_kation
 ------------------------------------
 Structure from the checkpoint file:  "JID_976.chk"
 Charge =  1 Multiplicity = 2

 SCF Done:  E(UB3LYP) =  -871.963312590     A.U. after   33 cycles
 SCF Done:  E(UB3LYP) =  -871.963312590     a.u. after    2 cycles
 Normal termination of Gaussian 16 at Tue Dec  8 13:44:32 2020.
 Gaussian 16:  ES64L-G16RevA.03 25-Dec-2016

 ----------------------------------------------------------------------
 # B3LYP/6-311++G(d,p) empiricaldispersion=gd3bj scf=xqc pop=npa geom=c
 heck
 ----------------------------------------------------------------------

 -----------------------------------
 CID_134417645_JID_976_Energie_anion
 -----------------------------------
 Structure from the checkpoint file:  "JID_976.chk"
 Charge = -1 Multiplicity = 2

                         Standard orientation:
 ---------------------------------------------------------------------
 Center     Atomic      Atomic             Coordinates (Angstroms)
 Number     Number       Type             X           Y           Z
 ---------------------------------------------------------------------
      1          6           0        2.760506    0.128575    1.274744
      2         16           0        2.392254   -0.083595   -0.507218
      3          7           0        0.942020   -0.998903   -0.463587
      4          6           0       -0.268429   -0.430936   -0.239371
      5          6           0       -0.732788    0.870803   -0.176926
      6          6           0       -2.140082    0.464726    0.118408
      7          8           0       -3.184020    1.025256    0.332357
      8          6           0       -1.618766   -1.009230    0.040828
      9          8           0       -2.047299   -2.131813    0.152545
     10          8           0       -0.170099    2.069022   -0.314472
     11          1           0        3.659894    0.750498    1.328419
     12          1           0        2.961485   -0.836191    1.745622
     13          1           0        1.938474    0.638190    1.783031
     14          1           0        1.009981   -2.008781   -0.405278
     15          1           0        0.768667    1.942777   -0.560740
 ---------------------------------------------------------------------

 SCF Done:  E(UB3LYP) =  -872.292552757     A.U. after   33 cycles
 SCF Done:  E(UB3LYP) =  -872.292552757     a.u. after    1 cycles

 The electronic state is 2-A.
 Alpha  occ. eigenvalues --  -88.78490 -19.06828 -19.00173 -18.98615 -14.26592
 Alpha  occ. eigenvalues --  -10.14644 -10.13740 -10.13462 -10.11422 -10.08863
 Alpha  occ. eigenvalues --   -7.86790  -5.83367  -5.82762  -5.82086  -0.98221
 Alpha  occ. eigenvalues --   -0.93604  -0.91778  -0.85690  -0.74601  -0.67076
 Alpha  occ. eigenvalues --   -0.56294  -0.52797  -0.51720  -0.42809  -0.41350
 Alpha  occ. eigenvalues --   -0.38292  -0.36002  -0.35336  -0.33003  -0.32740
 Alpha  occ. eigenvalues --   -0.32189  -0.31123  -0.28776  -0.28370  -0.27534
 Alpha  occ. eigenvalues --   -0.25203  -0.22065  -0.19242  -0.15763  -0.12242
 Alpha  occ. eigenvalues --   -0.11461   0.04015
 Alpha virt. eigenvalues --    0.06866   0.07518   0.07751   0.08672   0.10135
 Alpha virt. eigenvalues --    0.10527   0.12184   0.12979   0.13747   0.14446
 Alpha virt. eigenvalues --    0.15435   0.15994   0.16620   0.17318   0.17618

  Beta  occ. eigenvalues --  -88.78476 -19.06753 -19.00156 -18.98477 -14.26597
  Beta  occ. eigenvalues --  -10.14635 -10.13635 -10.13363 -10.11196 -10.08700
  Beta  occ. eigenvalues --   -7.86776  -5.83358  -5.82715  -5.82079  -0.98054
  Beta  occ. eigenvalues --   -0.93530  -0.91552  -0.85552  -0.74312  -0.66875
  Beta  occ. eigenvalues --   -0.56023  -0.52608  -0.51542  -0.42652  -0.41187
  Beta  occ. eigenvalues --   -0.38178  -0.35875  -0.34795  -0.32887  -0.32595
  Beta  occ. eigenvalues --   -0.31975  -0.30952  -0.28488  -0.28170  -0.27331
  Beta  occ. eigenvalues --   -0.24607  -0.21696  -0.19113  -0.15655  -0.11602
  Beta  occ. eigenvalues --   -0.11295
  Beta virt. eigenvalues --    0.07267   0.07879   0.08098   0.08711   0.09403
  Beta virt. eigenvalues --    0.10454   0.11630   0.12591   0.13197   0.13998
  Beta virt. eigenvalues --    0.14602   0.15554   0.16166   0.16618   0.17402

 Mulliken charges and spin densities:
               1          2
     1  C    1.355150  -1.957122
     2  S   -0.267129   0.475722
     3  N   -0.386613   0.046573
     4  C    0.531956   0.183307
     5  C    0.035093  -0.102975
     6  C    0.099680   0.087072
     7  O   -0.397621   0.038426
     8  C   -0.081312  -0.162233
     9  O   -0.400429   0.002855
    10  O   -0.235780  -0.013497
    11  H   -0.868405   1.050580
    12  H   -0.517582   0.704371
    13  H   -0.180502   0.369270
    14  H    0.235943   0.107785
    15  H    0.077551   0.169865
 Sum of Mulliken charges =  -1.00000   1.00000

 Dipole moment (field-independent basis, Debye):
    X=             -0.0924    Y=             -0.8700    Z=             -4.3493  Tot=              4.4365
 Quadrupole moment (field-independent basis, Debye-Ang):
   XX=           -133.8213   YY=            -93.7377   ZZ=            -84.4702
   XY=             -2.9615   XZ=            -10.4245   YZ=             -0.5570

 Summary of Natural Population Analysis:

                                       Natural Population
                Natural  -----------------------------------------------
    Atom  No    Charge         Core      Valence    Rydberg      Total
 -----------------------------------------------------------------------
      C    1   -0.34835      0.99963     2.34177    0.00695     3.34835
      S    2    0.18910      4.99962     2.78652    0.02476     7.81090
      N    3   -0.37249      0.99964     2.86066    0.01218     3.87249
      C    4    0.06753      0.99940     1.91545    0.01763     2.93247
      C    5    0.14426      0.99931     1.83910    0.01733     2.85574
      C    6    0.22382      0.99960     1.75188    0.02470     2.77618
      O    7   -0.27948      0.99987     3.27203    0.00758     4.27948
      C    8    0.22629      0.99960     1.75010    0.02401     2.77371
      O    9   -0.29622      0.99987     3.28874    0.00761     4.29622
      O   10   -0.32377      0.99986     3.31534    0.00857     4.32377
      H   11    0.11493      0.00000     0.37747    0.00760     0.38507
      H   12    0.10700      0.00000     0.38931    0.00369     0.39300
      H   13    0.10569      0.00000     0.39191    0.00240     0.39431
      H   14    0.20008      0.00000     0.29716    0.00276     0.29992
      H   15    0.24161      0.00000     0.25357    0.00482     0.25839
 =======================================================================
   * Total *   -0.00000     13.99640    26.83102    0.17259    41.00000

 Normal termination of Gaussian 16 at Tue Dec  8 13:49:37 2020.
