 Gaussian 16, Revision A.03,

 -----------------------------------------------------------
 # opt freq B3LYP/6-31G(d) empiricaldispersion=gd3bj scf=xqc
 -----------------------------------------------------------

 ------------------------------
 CID_117036442_JID_901_neutraal
 ------------------------------
 Symbolic Z-matrix:
 Charge =  0 Multiplicity = 1

 SCF Done:  E(RB3LYP) =  -839.787337885     A.U. after   14 cycles
 SCF Done:  E(RB3LYP) =  -839.792866620     A.U. after   12 cycles
 SCF Done:  E(RB3LYP) =  -839.793916183     A.U. after   12 cycles
 SCF Done:  E(RB3LYP) =  -839.794156312     A.U. after   12 cycles
 SCF Done:  E(RB3LYP) =  -839.794236783     A.U. after   12 cycles
 SCF Done:  E(RB3LYP) =  -839.794259838     A.U. after   10 cycles
 SCF Done:  E(RB3LYP) =  -839.794274474     A.U. after   10 cycles
 SCF Done:  E(RB3LYP) =  -839.794276442     A.U. after    8 cycles
 SCF Done:  E(RB3LYP) =  -839.794277130     A.U. after    8 cycles
 SCF Done:  E(RB3LYP) =  -839.794277269     A.U. after    7 cycles
 SCF Done:  E(RB3LYP) =  -839.794277293     A.U. after    6 cycles
 Optimization completed.
    -- Stationary point found.
 Normal termination of Gaussian 16 at Tue Dec  8 13:33:03 2020.

 --------------------------------------------------------------------
 #N Geom=AllCheck Guess=TCheck SCRF=Check GenChk RB3LYP/6-31G(d) Freq
 --------------------------------------------------------------------

 Structure from the checkpoint file:  "JID_901.chk"
 ------------------------------
 CID_117036442_JID_901_neutraal
 ------------------------------
 Charge =  0 Multiplicity = 1

 SCF Done:  E(RB3LYP) =  -839.794277293     A.U. after    1 cycles

  Exact polarizability: 103.538  -1.232  87.557  -0.249  -0.401  80.237
 Approx polarizability: 132.436   0.224 126.521  -4.879   5.621 128.232

                      1                      2                      3
                      A                      A                      A
 Frequencies --     37.7816                53.8954                80.1472
 Red. masses --      3.5208                 2.7638                 2.4578
 Frc consts  --      0.0030                 0.0047                 0.0093
 IR Inten    --      2.6548                 1.7101                 1.5355

                      4                      5                      6
                      A                      A                      A
 Frequencies --    112.9303               153.7062               206.9220
 Red. masses --      3.9020                 2.3223                 3.7898
 Frc consts  --      0.0293                 0.0323                 0.0956
 IR Inten    --      2.0870                 4.0003                 0.3631

                      7                      8                      9
                      A                      A                      A
 Frequencies --    217.0027               245.0172               279.9567
 Red. masses --      1.7424                 1.9986                 2.4504
 Frc consts  --      0.0483                 0.0707                 0.1132
 IR Inten    --      1.9183                 1.8460                 0.2733

                     10                     11                     12
                      A                      A                      A
 Frequencies --    300.1356               379.7605               432.4784
 Red. masses --      4.8179                 4.7544                 2.9601
 Frc consts  --      0.2557                 0.4040                 0.3262
 IR Inten    --      6.9585                 9.0068                 2.9855

                     13                     14                     15
                      A                      A                      A
 Frequencies --    446.4111               463.4357               508.8363
 Red. masses --      3.4542                 2.9948                 5.8906
 Frc consts  --      0.4056                 0.3790                 0.8986
 IR Inten    --     16.5917                10.9229                34.0272

                     16                     17                     18
                      A                      A                      A
 Frequencies --    646.1729               750.5170               779.7272
 Red. masses --      3.9077                 2.0121                 1.2048
 Frc consts  --      0.9613                 0.6678                 0.4316
 IR Inten    --     18.4719                 2.5159                19.2223

                     19                     20                     21
                      A                      A                      A
 Frequencies --    792.4991               817.3437               847.1762
 Red. masses --      1.2837                 1.6525                 1.6382
 Frc consts  --      0.4750                 0.6504                 0.6928
 IR Inten    --     27.2189                86.5346                19.5748

                     22                     23                     24
                      A                      A                      A
 Frequencies --    856.7105               943.5962               966.1749
 Red. masses --      1.5813                 1.8906                 3.0461
 Frc consts  --      0.6838                 0.9918                 1.6754
 IR Inten    --      7.4962                10.4444                 7.6783

                     25                     26                     27
                      A                      A                      A
 Frequencies --    996.4755              1040.2144              1064.8729
 Red. masses --      1.7188                 1.7665                 1.3796
 Frc consts  --      1.0056                 1.1262                 0.9217
 IR Inten    --      2.0075                 6.4110                15.8547

                     28                     29                     30
                      A                      A                      A
 Frequencies --   1067.7453              1085.5021              1090.0334
 Red. masses --      1.6698                 1.3870                 2.1586
 Frc consts  --      1.1216                 0.9629                 1.5112
 IR Inten    --     25.4747                 1.1823                 2.9992

                     31                     32                     33
                      A                      A                      A
 Frequencies --   1120.5196              1135.8754              1144.8103
 Red. masses --      3.5831                 2.6278                 1.1667
 Frc consts  --      2.6506                 1.9976                 0.9009
 IR Inten    --    134.5835                27.8881                 2.2325

                     34                     35                     36
                      A                      A                      A
 Frequencies --   1201.7755              1209.7762              1230.1590
 Red. masses --      1.8939                 1.3793                 1.3507
 Frc consts  --      1.6116                 1.1894                 1.2043
 IR Inten    --      5.1694                 0.3101                30.1030

                     37                     38                     39
                      A                      A                      A
 Frequencies --   1255.7528              1282.7627              1291.1998
 Red. masses --      1.7443                 1.3419                 2.7445
 Frc consts  --      1.6206                 1.3010                 2.6958
 IR Inten    --      4.0902                25.4952               114.8199

                     40                     41                     42
                      A                      A                      A
 Frequencies --   1333.1397              1340.7324              1427.9027
 Red. masses --      1.7715                 1.5021                 1.5029
 Frc consts  --      1.8550                 1.5909                 1.8054
 IR Inten    --     47.1534                19.3007                36.9703

                     43                     44                     45
                      A                      A                      A
 Frequencies --   1439.1347              1480.5537              1483.2240
 Red. masses --      1.2168                 1.1034                 1.1024
 Frc consts  --      1.4848                 1.4250                 1.4289
 IR Inten    --      2.7682                 6.6755                 8.7169

                     46                     47                     48
                      A                      A                      A
 Frequencies --   1489.9408              1511.7808              1527.0038
 Red. masses --      1.1784                 1.1739                 1.0498
 Frc consts  --      1.5413                 1.5807                 1.4423
 IR Inten    --      8.3894                16.4936                12.0533

                     49                     50                     51
                      A                      A                      A
 Frequencies --   1532.5905              1535.1157              3006.3653
 Red. masses --      1.0487                 1.3701                 1.0700
 Frc consts  --      1.4513                 1.9023                 5.6978
 IR Inten    --      5.3143                 4.6938                28.7715

                     52                     53                     54
                      A                      A                      A
 Frequencies --   3064.6003              3080.4203              3093.8244
 Red. masses --      1.0361                 1.0872                 1.0614
 Frc consts  --      5.7334                 6.0780                 5.9857
 IR Inten    --     15.7120                54.3708                 2.8024

                     55                     56                     57
                      A                      A                      A
 Frequencies --   3126.7839              3136.9809              3146.7866
 Red. masses --      1.1003                 1.0929                 1.1037
 Frc consts  --      6.3379                 6.3368                 6.4391
 IR Inten    --     23.9394                 4.3471                 2.3879

                     58                     59                     60
                      A                      A                      A
 Frequencies --   3154.0129              3160.2247              3163.4707
 Red. masses --      1.0518                 1.0577                 1.1044
 Frc consts  --      6.1644                 6.2237                 6.5119
 IR Inten    --     14.4851                 7.6763                 6.0012

                     61                     62                     63
                      A                      A                      A
 Frequencies --   3234.1020              3247.6976              3516.2927
 Red. masses --      1.1201                 1.1171                 1.0742
 Frc consts  --      6.9024                 6.9419                 7.8254
 IR Inten    --      2.0070                19.5482                 6.8294

 - Thermochemistry -
 -------------------
 Temperature   298.150 Kelvin.  Pressure   1.00000 Atm.
 Atom     1 has atomic number  6 and mass  12.00000

 Molecular mass:   163.06670 amu.
 Principal axes and moments of inertia in atomic units:
                           1         2         3
     Eigenvalues --   936.509522686.377833066.20308
           X            0.99974  -0.02187   0.00605
           Y            0.02202   0.99943  -0.02548
           Z           -0.00549   0.02561   0.99966
 This molecule is an asymmetric top.
 Rotational symmetry number  1.
 Warning -- assumption of classical behavior for rotation
           may cause significant error
 Rotational temperatures (Kelvin)      0.09249     0.03224     0.02825
 Rotational constants (GHZ):           1.92709     0.67181     0.58859
 Zero-point vibrational energy     513009.5 (Joules/Mol)
                                  122.61221 (Kcal/Mol)
 Warning -- explicit consideration of  15 degrees of freedom as
           vibrations may cause significant error
 Vibrational temperatures:     54.36    77.54   115.31   162.48   221.15
          (Kelvin)            297.71   312.22   352.53   402.80   431.83
                              546.39   622.24   642.29   666.78   732.10
                              929.70  1079.83  1121.85  1140.23  1175.98
                             1218.90  1232.62  1357.62  1390.11  1433.71
                             1496.64  1532.11  1536.25  1561.80  1568.31
                             1612.18  1634.27  1647.13  1729.09  1740.60
                             1769.92  1806.75  1845.61  1857.75  1918.09
                             1929.01  2054.43  2070.59  2130.19  2134.03
                             2143.69  2175.12  2197.02  2205.06  2208.69
                             4325.49  4409.28  4432.04  4451.32  4498.74
                             4513.42  4527.52  4537.92  4546.86  4551.53
                             4653.15  4672.71  5059.16

 Zero-point correction=                           0.195395 (Hartree/Particle)
 Thermal correction to Energy=                    0.206905
 Thermal correction to Enthalpy=                  0.207849
 Thermal correction to Gibbs Free Energy=         0.156995
 Sum of electronic and zero-point Energies=           -839.598882
 Sum of electronic and thermal Energies=              -839.587373
 Sum of electronic and thermal Enthalpies=            -839.586428
 Sum of electronic and thermal Free Energies=         -839.637283

                     E (Thermal)             CV                S
                      KCal/Mol        Cal/Mol-Kelvin    Cal/Mol-Kelvin
 Total                  129.835             41.707            107.032
 Electronic               0.000              0.000              0.000
 Translational            0.889              2.981             41.176
 Rotational               0.889              2.981             30.424
 Vibrational            128.057             35.746             35.433
 Vibration     1          0.594              1.982              5.372
 Vibration     2          0.596              1.976              4.669
 Vibration     3          0.600              1.963              3.887
 Vibration     4          0.607              1.939              3.218
 Vibration     5          0.619              1.899              2.626
 Vibration     6          0.641              1.830              2.071
 Vibration     7          0.646              1.815              1.984
 Vibration     8          0.660              1.771              1.766
 Vibration     9          0.680              1.711              1.534
 Vibration    10          0.693              1.673              1.416
 Vibration    11          0.750              1.513              1.040
 Vibration    12          0.793              1.399              0.851
 Vibration    13          0.806              1.369              0.807
 Vibration    14          0.821              1.331              0.756
 Vibration    15          0.864              1.230              0.636

 Optimization completed.
    -- Stationary point found.
 Normal termination of Gaussian 16 at Tue Dec  8 13:39:32 2020.

 ----------------------------------------------------------------------
 # B3LYP/6-311++G(d,p) empiricaldispersion=gd3bj scf=xqc pop=npa geom=c
 heck
 ----------------------------------------------------------------------

 --------------------------------------
 CID_117036442_JID_901_Energie_neutraal
 --------------------------------------
 Structure from the checkpoint file:  "JID_901.chk"
 Charge =  0 Multiplicity = 1

 SCF Done:  E(RB3LYP) =  -839.954942875     A.U. after   13 cycles
 Normal termination of Gaussian 16 at Tue Dec  8 13:42:17 2020.

 ----------------------------------------------------------------------
 # B3LYP/6-311++G(d,p) empiricaldispersion=gd3bj scf=xqc pop=npa geom=c
 heck
 ----------------------------------------------------------------------

 ------------------------------------
 CID_117036442_JID_901_Energie_kation
 ------------------------------------
 Structure from the checkpoint file:  "JID_901.chk"
 Charge =  1 Multiplicity = 2

 SCF Done:  E(UB3LYP) =  -839.621825845     A.U. after   22 cycles
 Normal termination of Gaussian 16 at Tue Dec  8 13:49:58 2020.
 Gaussian 16:  ES64L-G16RevA.03 25-Dec-2016

 ----------------------------------------------------------------------
 # B3LYP/6-311++G(d,p) empiricaldispersion=gd3bj scf=xqc pop=npa geom=c
 heck
 ----------------------------------------------------------------------

 -----------------------------------
 CID_117036442_JID_901_Energie_anion
 -----------------------------------
 Structure from the checkpoint file:  "JID_901.chk"
 Charge = -1 Multiplicity = 2

                         Standard orientation:
 ---------------------------------------------------------------------
 Center     Atomic      Atomic             Coordinates (Angstroms)
 Number     Number       Type             X           Y           Z
 ---------------------------------------------------------------------
      1          6           0       -1.290357    2.326596   -0.001593
      2          6           0       -1.366321    1.102642   -0.905823
      3         16           0       -1.516466   -0.456786    0.013656
      4          8           0       -2.519737   -0.296188    1.080545
      5          8           0       -1.634332   -1.544536   -0.975615
      6          6           0        0.112333   -0.654680    0.811679
      7          7           0        1.134043   -0.705761   -0.204519
      8          6           0        2.475181   -0.554393    0.297730
      9          6           0        3.497301    0.015177   -0.646803
     10          6           0        2.973156    0.855246    0.492734
     11          1           0       -2.136972    2.351068    0.689305
     12          1           0       -1.308511    3.236204   -0.610538
     13          1           0       -0.364697    2.337009    0.583317
     14          1           0       -2.258151    1.109522   -1.540279
     15          1           0       -0.483124    0.981772   -1.537153
     16          1           0        0.273901    0.206574    1.464530
     17          1           0       -0.006416   -1.552252    1.440393
     18          1           0        1.031352   -1.551284   -0.761355
     19          1           0        2.826639   -1.299550    1.017393
     20          1           0        4.513606   -0.362826   -0.591065
     21          1           0        3.152013    0.259497   -1.646456
     22          1           0        2.283636    1.656271    0.242601
     23          1           0        3.626663    1.059152    1.335455
 ---------------------------------------------------------------------

 SCF Done:  E(UB3LYP) =  -839.941785910     A.U. after   26 cycles

 The electronic state is 2-A.
 Alpha  occ. eigenvalues --  -88.94078 -19.01576 -19.01551 -14.22608 -10.13759
 Alpha  occ. eigenvalues --  -10.11109 -10.11077 -10.07661 -10.07647 -10.07329
 Alpha  occ. eigenvalues --   -8.00669  -5.96932  -5.96798  -5.96757  -1.00633
 Alpha  occ. eigenvalues --   -0.90400  -0.84364  -0.74886  -0.70521  -0.63365
 Alpha  occ. eigenvalues --   -0.57219  -0.51177  -0.49515  -0.48689  -0.43436
 Alpha  occ. eigenvalues --   -0.41227  -0.40476  -0.38543  -0.37977  -0.35519
 Alpha  occ. eigenvalues --   -0.35009  -0.33171  -0.31584  -0.30117  -0.29139
 Alpha  occ. eigenvalues --   -0.27435  -0.26991  -0.23870  -0.22651  -0.21888
 Alpha  occ. eigenvalues --   -0.20760  -0.20413  -0.18814  -0.15199   0.04522
 Alpha virt. eigenvalues --    0.06318   0.07829   0.07988   0.09369   0.09735
 Alpha virt. eigenvalues --    0.10172   0.11165   0.11643   0.12503   0.12677
 Alpha virt. eigenvalues --    0.13071   0.14316   0.15218   0.15671   0.15851

  Beta  occ. eigenvalues --  -88.94075 -19.01568 -19.01548 -14.22597 -10.13732
  Beta  occ. eigenvalues --  -10.11088 -10.11054 -10.07627 -10.07606 -10.07289
  Beta  occ. eigenvalues --   -8.00665  -5.96929  -5.96794  -5.96756  -1.00620
  Beta  occ. eigenvalues --   -0.90387  -0.84342  -0.74851  -0.70477  -0.63311
  Beta  occ. eigenvalues --   -0.57124  -0.51101  -0.49442  -0.48629  -0.43397
  Beta  occ. eigenvalues --   -0.41186  -0.40444  -0.38505  -0.37902  -0.35497
  Beta  occ. eigenvalues --   -0.34971  -0.33123  -0.31519  -0.30071  -0.29082
  Beta  occ. eigenvalues --   -0.27393  -0.26950  -0.23851  -0.22637  -0.21856
  Beta  occ. eigenvalues --   -0.20745  -0.20377  -0.18782  -0.15152
  Beta virt. eigenvalues --    0.07150   0.07726   0.08331   0.08647   0.09934
  Beta virt. eigenvalues --    0.10294   0.10828   0.11404   0.12055   0.12903
  Beta virt. eigenvalues --    0.13030   0.13595   0.14583   0.15452   0.15657

 Mulliken charges and spin densities:
               1          2
     1  C    1.326521  -1.819527
     2  C   -0.883859   0.369798
     3  S    0.158021   0.285874
     4  O   -0.204894   0.004535
     5  O   -0.268128   0.025852
     6  C    0.400662  -0.974731
     7  N   -0.111834   0.027502
     8  C   -1.546331   1.398022
     9  C    1.112281  -1.492316
    10  C    1.073526  -1.339853
    11  H    0.030325   0.141020
    12  H   -0.843015   1.006761
    13  H   -0.297066   0.445213
    14  H   -0.034430   0.262607
    15  H    0.262569  -0.000706
    16  H    0.042087   0.217751
    17  H   -0.002085   0.200470
    18  H    0.213310   0.036844
    19  H   -0.837674   1.043354
    20  H   -0.023853   0.170133
    21  H   -0.064500   0.194869
    22  H    0.140350  -0.015767
    23  H   -0.641982   0.812295
 Sum of Mulliken charges =  -1.00000   1.00000

 Dipole moment (field-independent basis, Debye):
    X=             -2.4493    Y=             -2.8134    Z=             -2.3041  Tot=              4.3844
 Quadrupole moment (field-independent basis, Debye-Ang):
   XX=           -139.4483   YY=           -117.3090   ZZ=           -102.4611
   XY=              0.9707   XZ=            -11.4167   YZ=              4.1482

 Summary of Natural Population Analysis:

                                       Natural Population
                Natural  -----------------------------------------------
    Atom  No    Charge         Core      Valence    Rydberg      Total
 -----------------------------------------------------------------------
      C    1   -0.29688      0.99965     2.29034    0.00689     3.29688
      C    2   -0.28986      0.99960     2.27829    0.01197     3.28986
      S    3    1.01135      4.99928     1.89611    0.09325     6.98865
      O    4   -0.47124      0.99991     3.46582    0.00550     4.47124
      O    5   -0.47652      0.99991     3.47114    0.00547     4.47652
      C    6   -0.18128      0.99959     2.16713    0.01456     3.18128
      N    7   -0.34655      0.99971     2.83428    0.01256     3.84655
      C    8   -0.02467      0.99957     2.01106    0.01404     3.02467
      C    9   -0.19650      0.99962     2.18725    0.00963     3.19650
      C   10   -0.20024      0.99962     2.19014    0.01048     3.20024
      H   11    0.10834      0.00000     0.39041    0.00126     0.39166
      H   12    0.11087      0.00000     0.38595    0.00318     0.38913
      H   13    0.10196      0.00000     0.39638    0.00165     0.39804
      H   14    0.11507      0.00000     0.38367    0.00125     0.38493
      H   15    0.12103      0.00000     0.37740    0.00157     0.37897
      H   16    0.11248      0.00000     0.38582    0.00170     0.38752
      H   17    0.10159      0.00000     0.39686    0.00155     0.39841
      H   18    0.18413      0.00000     0.31320    0.00267     0.31587
      H   19    0.09458      0.00000     0.40207    0.00336     0.40542
      H   20    0.10461      0.00000     0.39419    0.00119     0.39539
      H   21    0.10421      0.00000     0.39464    0.00116     0.39579
      H   22    0.10556      0.00000     0.39267    0.00177     0.39444
      H   23    0.10795      0.00000     0.38884    0.00321     0.39205
 =======================================================================
   * Total *   -0.00000     13.99647    29.79365    0.20988    44.00000

 Normal termination of Gaussian 16 at Tue Dec  8 13:56:46 2020.
