 Gaussian 16, Revision A.03,

 -----------------------------------------------------------
 # opt freq B3LYP/6-31G(d) empiricaldispersion=gd3bj scf=xqc
 -----------------------------------------------------------

 -------------------------------
 CID_115003137_JID_7979_neutraal
 -------------------------------
 Symbolic Z-matrix:
 Charge =  0 Multiplicity = 1

 SCF Done:  E(RB3LYP) =  -747.755828335     A.U. after   14 cycles
 SCF Done:  E(RB3LYP) =  -747.757977810     A.U. after   13 cycles
 SCF Done:  E(RB3LYP) =  -747.758266085     A.U. after   14 cycles
 SCF Done:  E(RB3LYP) =  -747.759664553     A.U. after   13 cycles
 SCF Done:  E(RB3LYP) =  -747.761788656     A.U. after   14 cycles
 SCF Done:  E(RB3LYP) =  -747.762705363     A.U. after   13 cycles
 SCF Done:  E(RB3LYP) =  -747.763096984     A.U. after   12 cycles
 SCF Done:  E(RB3LYP) =  -747.763481397     A.U. after   12 cycles
 SCF Done:  E(RB3LYP) =  -747.763694190     A.U. after   11 cycles
 SCF Done:  E(RB3LYP) =  -747.763874534     A.U. after   12 cycles
 SCF Done:  E(RB3LYP) =  -747.763947803     A.U. after   11 cycles
 SCF Done:  E(RB3LYP) =  -747.763951684     A.U. after   10 cycles
 SCF Done:  E(RB3LYP) =  -747.763952820     A.U. after    9 cycles
 SCF Done:  E(RB3LYP) =  -747.763953003     A.U. after    8 cycles
 SCF Done:  E(RB3LYP) =  -747.763953046     A.U. after    7 cycles
 Optimization completed.
    -- Stationary point found.
 Normal termination of Gaussian 16 at Fri Dec 11 13:32:38 2020.

 --------------------------------------------------------------------
 #N Geom=AllCheck Guess=TCheck SCRF=Check GenChk RB3LYP/6-31G(d) Freq
 --------------------------------------------------------------------

 Structure from the checkpoint file:  "JID_7979.chk"
 -------------------------------
 CID_115003137_JID_7979_neutraal
 -------------------------------
 Charge =  0 Multiplicity = 1

 SCF Done:  E(RB3LYP) =  -747.763953046     A.U. after    1 cycles

  Exact polarizability: 178.721 -23.538 141.740  22.301   6.889 123.304
 Approx polarizability: 254.027 -44.577 231.942  43.548  19.721 209.785

                      1                      2                      3
                      A                      A                      A
 Frequencies --     16.5866                36.5859                38.8603
 Red. masses --      6.0768                 4.1333                 3.9347
 Frc consts  --      0.0010                 0.0033                 0.0035
 IR Inten    --      0.0585                 0.1834                 0.4374

                      4                      5                      6
                      A                      A                      A
 Frequencies --     72.1867                94.3377               130.3176
 Red. masses --      4.7002                 5.6459                 4.6223
 Frc consts  --      0.0144                 0.0296                 0.0463
 IR Inten    --      1.1143                 0.5753                 5.2270

                      7                      8                      9
                      A                      A                      A
 Frequencies --    185.1358               216.7861               248.2694
 Red. masses --      3.6880                 5.0334                 5.5103
 Frc consts  --      0.0745                 0.1394                 0.2001
 IR Inten    --      0.8231                 1.1771                 1.6175

                     10                     11                     12
                      A                      A                      A
 Frequencies --    259.0837               277.7429               344.7135
 Red. masses --      3.4813                 2.8013                 1.2504
 Frc consts  --      0.1377                 0.1273                 0.0875
 IR Inten    --      5.5412                 4.5162               106.3188

                     13                     14                     15
                      A                      A                      A
 Frequencies --    368.0781               392.4284               414.8691
 Red. masses --      2.7736                 2.5614                 4.3515
 Frc consts  --      0.2214                 0.2324                 0.4413
 IR Inten    --     18.9598                 2.6781                 9.0220

                     16                     17                     18
                      A                      A                      A
 Frequencies --    423.8100               448.0528               513.5191
 Red. masses --      3.1866                 3.9877                 5.1220
 Frc consts  --      0.3372                 0.4717                 0.7958
 IR Inten    --      0.2544                 1.7490                11.5307

                     19                     20                     21
                      A                      A                      A
 Frequencies --    520.5610               578.3856               615.6286
 Red. masses --      2.8951                 3.4288                 3.9410
 Frc consts  --      0.4622                 0.6758                 0.8800
 IR Inten    --      3.2406                20.3210                17.4234

                     22                     23                     24
                      A                      A                      A
 Frequencies --    630.4828               635.1461               686.3124
 Red. masses --      6.0344                 4.5768                 6.9401
 Frc consts  --      1.4133                 1.0878                 1.9260
 IR Inten    --      2.0383                 3.4969                 0.5160

                     25                     26                     27
                      A                      A                      A
 Frequencies --    703.0701               765.2579               766.9379
 Red. masses --      2.3346                 2.0388                 2.8333
 Frc consts  --      0.6799                 0.7035                 0.9819
 IR Inten    --     11.8911                43.9870                13.9576

                     28                     29                     30
                      A                      A                      A
 Frequencies --    769.6730               824.7037               830.4666
 Red. masses --      2.5774                 3.1990                 1.2564
 Frc consts  --      0.8996                 1.2819                 0.5105
 IR Inten    --      2.6102                 6.3222                 0.3433

                     31                     32                     33
                      A                      A                      A
 Frequencies --    846.1719               893.1225               906.7844
 Red. masses --      1.5672                 1.4860                 1.4212
 Frc consts  --      0.6611                 0.6984                 0.6885
 IR Inten    --     38.2638                 6.5890                 1.2310

                     34                     35                     36
                      A                      A                      A
 Frequencies --    907.4734               948.5897               956.7626
 Red. masses --      1.6201                 2.7702                 1.3237
 Frc consts  --      0.7861                 1.4687                 0.7139
 IR Inten    --      0.3391                35.6048                 0.1031

                     37                     38                     39
                      A                      A                      A
 Frequencies --    983.1157               986.1893               997.4182
 Red. masses --      1.2280                 1.2948                 1.4498
 Frc consts  --      0.6993                 0.7420                 0.8498
 IR Inten    --      0.3774                 2.2047                 0.3423

                     40                     41                     42
                      A                      A                      A
 Frequencies --   1014.9239              1017.3130              1054.5176
 Red. masses --      7.3405                 5.6924                 2.4336
 Frc consts  --      4.4549                 3.4710                 1.5944
 IR Inten    --      4.9460                 0.5448                49.8692

                     43                     44                     45
                      A                      A                      A
 Frequencies --   1058.9159              1082.4597              1090.3211
 Red. masses --      2.0870                 2.5520                 2.9611
 Frc consts  --      1.3788                 1.7618                 2.0740
 IR Inten    --     20.6778                42.7305                 5.0460

                     46                     47                     48
                      A                      A                      A
 Frequencies --   1098.7050              1115.5878              1122.1877
 Red. masses --      1.8402                 1.5705                 1.8279
 Frc consts  --      1.3088                 1.1516                 1.3562
 IR Inten    --      2.9776                15.7188                 5.4924

                     49                     50                     51
                      A                      A                      A
 Frequencies --   1128.9691              1190.5383              1209.4854
 Red. masses --      1.9658                 1.1005                 1.1474
 Frc consts  --      1.4762                 0.9190                 0.9889
 IR Inten    --     34.9834                 2.8661                19.9826

                     52                     53                     54
                      A                      A                      A
 Frequencies --   1215.4663              1240.3487              1256.4409
 Red. masses --      1.6003                 1.8748                 1.3633
 Frc consts  --      1.3930                 1.6994                 1.2680
 IR Inten    --      9.6894                 4.3913                 6.5663

                     55                     56                     57
                      A                      A                      A
 Frequencies --   1268.6544              1291.6429              1302.2652
 Red. masses --      1.1729                 4.2989                 5.4056
 Frc consts  --      1.1122                 4.2256                 5.4013
 IR Inten    --      6.8197               298.9032                 3.2906

                     58                     59                     60
                      A                      A                      A
 Frequencies --   1317.1498              1350.8665              1356.0379
 Red. masses --      1.2221                 1.9492                 1.5558
 Frc consts  --      1.2491                 2.0957                 1.6856
 IR Inten    --      8.7503                11.4568                 6.9989

                     61                     62                     63
                      A                      A                      A
 Frequencies --   1373.7344              1380.1117              1408.3918
 Red. masses --      2.4768                 1.3585                 1.4114
 Frc consts  --      2.7539                 1.5246                 1.6494
 IR Inten    --      9.9721                20.2990                21.3854

                     64                     65                     66
                      A                      A                      A
 Frequencies --   1426.6408              1444.4569              1462.3768
 Red. masses --      1.4286                 1.3833                 2.0138
 Frc consts  --      1.7131                 1.7004                 2.5373
 IR Inten    --      3.9647                44.6968                29.8379

                     67                     68                     69
                      A                      A                      A
 Frequencies --   1506.8170              1508.2869              1540.4827
 Red. masses --      1.7455                 1.3039                 1.4719
 Frc consts  --      2.3351                 1.7477                 2.0579
 IR Inten    --      0.2248                 3.9098                85.1705

                     70                     71                     72
                      A                      A                      A
 Frequencies --   1542.4609              1556.8185              1622.0537
 Red. masses --      2.0673                 1.5274                 6.6177
 Frc consts  --      2.8979                 2.1811                10.2586
 IR Inten    --     18.2795                16.9739                10.9321

                     73                     74                     75
                      A                      A                      A
 Frequencies --   1648.4490              1656.2459              1667.8773
 Red. masses --      5.9285                 5.3600                 5.6139
 Frc consts  --      9.4917                 8.6629                 9.2012
 IR Inten    --     20.5308                39.8995                74.6982

                     76                     77                     78
                      A                      A                      A
 Frequencies --   3031.6930              3037.7789              3066.1152
 Red. masses --      1.0580                 1.0839                 1.0662
 Frc consts  --      5.7296                 5.8933                 5.9056
 IR Inten    --     29.5911                22.8869                14.0185

                     79                     80                     81
                      A                      A                      A
 Frequencies --   3077.3214              3116.6067              3170.2220
 Red. masses --      1.1003                 1.1041                 1.0883
 Frc consts  --      6.1390                 6.3189                 6.4443
 IR Inten    --     40.4552                28.8329                37.7284

                     82                     83                     84
                      A                      A                      A
 Frequencies --   3174.1614              3186.4895              3193.9470
 Red. masses --      1.0905                 1.0852                 1.0893
 Frc consts  --      6.4735                 6.4918                 6.5471
 IR Inten    --     16.5481                 2.5714                13.8920

                     85                     86                     87
                      A                      A                      A
 Frequencies --   3209.0331              3210.5327              3216.3812
 Red. masses --      1.0924                 1.0932                 1.0965
 Frc consts  --      6.6279                 6.6389                 6.6833
 IR Inten    --     27.6557                 8.0026                14.5238

                     88                     89                     90
                      A                      A                      A
 Frequencies --   3218.0775              3231.6749              3738.9766
 Red. masses --      1.0924                 1.0920                 1.0662
 Frc consts  --      6.6654                 6.7191                 8.7820
 IR Inten    --      6.4481                 7.1205                15.5505

 - Thermochemistry -
 -------------------
 Temperature   298.150 Kelvin.  Pressure   1.00000 Atm.
 Atom     1 has atomic number  6 and mass  12.00000

 Molecular mass:   229.11028 amu.
 Principal axes and moments of inertia in atomic units:
                           1         2         3
     Eigenvalues --  2310.997606501.770667781.74809
           X            0.99990  -0.01346   0.00302
           Y            0.01348   0.99990  -0.00424
           Z           -0.00296   0.00428   0.99999
 This molecule is an asymmetric top.
 Rotational symmetry number  1.
 Warning -- assumption of classical behavior for rotation
           may cause significant error
 Rotational temperatures (Kelvin)      0.03748     0.01332     0.01113
 Rotational constants (GHZ):           0.78094     0.27758     0.23192
 Zero-point vibrational energy     697665.9 (Joules/Mol)
                                  166.74615 (Kcal/Mol)
 Warning -- explicit consideration of  21 degrees of freedom as
           vibrations may cause significant error
 Vibrational temperatures:     23.86    52.64    55.91   103.86   135.73
          (Kelvin)            187.50   266.37   311.91   357.20   372.76
                              399.61   495.97   529.58   564.62   596.90
                              609.77   644.65   738.84   748.97   832.17
                              885.75   907.12   913.83   987.45  1011.56
                             1101.04  1103.45  1107.39  1186.56  1194.86
                             1217.45  1285.00  1304.66  1305.65  1364.81
                             1376.57  1414.48  1418.91  1435.06  1460.25
                             1463.69  1517.22  1523.54  1557.42  1568.73
                             1580.79  1605.08  1614.58  1624.33  1712.92
                             1740.18  1748.78  1784.59  1807.74  1825.31
                             1858.39  1873.67  1895.08  1943.60  1951.04
                             1976.50  1985.67  2026.36  2052.62  2078.25
                             2104.03  2167.97  2170.09  2216.41  2219.26
                             2239.91  2333.77  2371.75  2382.97  2399.70
                             4361.93  4370.69  4411.46  4427.58  4484.10
                             4561.24  4566.91  4584.65  4595.38  4617.08
                             4619.24  4627.66  4630.10  4649.66  5379.55

 Zero-point correction=                           0.265727 (Hartree/Particle)
 Thermal correction to Energy=                    0.280395
 Thermal correction to Enthalpy=                  0.281339
 Thermal correction to Gibbs Free Energy=         0.221607
 Sum of electronic and zero-point Energies=           -747.498226
 Sum of electronic and thermal Energies=              -747.483558
 Sum of electronic and thermal Enthalpies=            -747.482614
 Sum of electronic and thermal Free Energies=         -747.542346

                     E (Thermal)             CV                S
                      KCal/Mol        Cal/Mol-Kelvin    Cal/Mol-Kelvin
 Total                  175.950             56.962            125.717
 Electronic               0.000              0.000              0.000
 Translational            0.889              2.981             42.189
 Rotational               0.889              2.981             33.125
 Vibrational            174.173             51.000             50.403
 Vibration     1          0.593              1.986              7.006
 Vibration     2          0.594              1.982              5.436
 Vibration     3          0.594              1.981              5.316
 Vibration     4          0.598              1.967              4.093
 Vibration     5          0.603              1.953              3.568
 Vibration     6          0.612              1.923              2.941
 Vibration     7          0.631              1.860              2.276
 Vibration     8          0.646              1.815              1.986
 Vibration     9          0.662              1.766              1.743
 Vibration    10          0.668              1.747              1.668
 Vibration    11          0.679              1.715              1.548
 Vibration    12          0.723              1.586              1.190
 Vibration    13          0.741              1.538              1.088
 Vibration    14          0.760              1.486              0.991
 Vibration    15          0.778              1.438              0.910
 Vibration    16          0.786              1.418              0.879
 Vibration    17          0.807              1.365              0.802
 Vibration    18          0.869              1.220              0.625
 Vibration    19          0.876              1.204              0.609
 Vibration    20          0.935              1.078              0.488
 Vibration    21          0.975              0.999              0.424

 Optimization completed.
    -- Stationary point found.
 Normal termination of Gaussian 16 at Fri Dec 11 13:45:18 2020.

 ----------------------------------------------------------------------
 # B3LYP/6-311++G(d,p) empiricaldispersion=gd3bj scf=xqc pop=npa geom=c
 heck
 ----------------------------------------------------------------------

 ---------------------------------------
 CID_115003137_JID_7979_Energie_neutraal
 ---------------------------------------
 Structure from the checkpoint file:  "JID_7979.chk"
 Charge =  0 Multiplicity = 1

 SCF Done:  E(RB3LYP) =  -747.973313445     A.U. after   14 cycles
 Normal termination of Gaussian 16 at Fri Dec 11 13:50:52 2020.

 ----------------------------------------------------------------------
 # B3LYP/6-311++G(d,p) empiricaldispersion=gd3bj scf=xqc pop=npa geom=c
 heck
 ----------------------------------------------------------------------

 -------------------------------------
 CID_115003137_JID_7979_Energie_kation
 -------------------------------------
 Structure from the checkpoint file:  "JID_7979.chk"
 Charge =  1 Multiplicity = 2

 SCF Done:  E(UB3LYP) =  -747.672417794     A.U. after   32 cycles
 Normal termination of Gaussian 16 at Fri Dec 11 14:09:03 2020.
 Gaussian 16:  ES64L-G16RevA.03 25-Dec-2016

 ----------------------------------------------------------------------
 # B3LYP/6-311++G(d,p) empiricaldispersion=gd3bj scf=xqc pop=npa geom=c
 heck
 ----------------------------------------------------------------------

 ------------------------------------
 CID_115003137_JID_7979_Energie_anion
 ------------------------------------
 Structure from the checkpoint file:  "JID_7979.chk"
 Charge = -1 Multiplicity = 2

                         Standard orientation:
 ---------------------------------------------------------------------
 Center     Atomic      Atomic             Coordinates (Angstroms)
 Number     Number       Type             X           Y           Z
 ---------------------------------------------------------------------
      1          6           0       -4.493151    0.972428   -0.093438
      2          6           0       -4.038634    0.280674   -1.220796
      3          6           0       -2.874821   -0.477141   -1.161748
      4          6           0       -2.148907   -0.552723    0.034674
      5          6           0       -2.596332    0.132572    1.168754
      6          6           0       -3.767790    0.891482    1.092490
      7          8           0       -1.016440   -1.317273   -0.008860
      8          6           0       -0.157589   -1.325326    1.130595
      9          6           0        1.115926   -2.056438    0.743341
     10          6           0        1.821087   -1.462557   -0.485487
     11          6           0        2.129901    0.012295   -0.311134
     12          6           0        1.228785    0.997951   -0.725094
     13          6           0        1.544938    2.337608   -0.502175
     14          7           0        2.675428    2.750767    0.085307
     15          6           0        3.534406    1.799149    0.473107
     16          6           0        3.312545    0.433184    0.302534
     17          8           0        3.002809   -2.242872   -0.655621
     18          1           0       -5.401397    1.565116   -0.142230
     19          1           0       -4.593802    0.333280   -2.153231
     20          1           0       -2.506813   -1.021364   -2.025834
     21          1           0       -2.050680    0.080569    2.103178
     22          1           0       -4.109709    1.421859    1.976969
     23          1           0        0.064964   -0.294370    1.432000
     24          1           0       -0.651961   -1.829956    1.971726
     25          1           0        1.810571   -2.026839    1.591261
     26          1           0        0.899131   -3.108362    0.529468
     27          1           0        1.155060   -1.580059   -1.350759
     28          1           0        0.293231    0.727174   -1.205233
     29          1           0        0.855188    3.119753   -0.814557
     30          1           0        4.450523    2.148730    0.946526
     31          1           0        4.044983   -0.297187    0.630500
     32          1           0        3.459566   -1.911509   -1.444836
 ---------------------------------------------------------------------

 SCF Done:  E(UB3LYP) =  -747.963601340     A.U. after   33 cycles
 SCF Done:  E(UB3LYP) =  -747.963601340     a.u. after    1 cycles

 The electronic state is 2-A.
 Alpha  occ. eigenvalues --  -19.05631 -19.03347 -14.17813 -10.13911 -10.13009
 Alpha  occ. eigenvalues --  -10.12736 -10.08546 -10.08545 -10.08039 -10.07916
 Alpha  occ. eigenvalues --  -10.07756 -10.07689 -10.07377 -10.07194 -10.06453
 Alpha  occ. eigenvalues --  -10.06209 -10.05857  -0.97309  -0.93602  -0.82076
 Alpha  occ. eigenvalues --   -0.75879  -0.71407  -0.68149  -0.65431  -0.64279
 Alpha  occ. eigenvalues --   -0.63905  -0.59016  -0.53468  -0.51561  -0.51183
 Alpha  occ. eigenvalues --   -0.49950  -0.47100  -0.44754  -0.42963  -0.40559
 Alpha  occ. eigenvalues --   -0.39139  -0.38932  -0.37472  -0.36096  -0.35423
 Alpha  occ. eigenvalues --   -0.34854  -0.32984  -0.32641  -0.31747  -0.31063
 Alpha  occ. eigenvalues --   -0.30035  -0.28500  -0.28099  -0.27672  -0.26507
 Alpha  occ. eigenvalues --   -0.26156  -0.25032  -0.24083  -0.23302  -0.22126
 Alpha  occ. eigenvalues --   -0.19518  -0.16559  -0.16168  -0.15143  -0.14043
 Alpha  occ. eigenvalues --   -0.13076   0.04573
 Alpha virt. eigenvalues --    0.06088   0.06875   0.07185   0.07849   0.07929
 Alpha virt. eigenvalues --    0.08552   0.08834   0.09207   0.09418   0.09999
 Alpha virt. eigenvalues --    0.10269   0.11010   0.11403   0.12088   0.12789

  Beta  occ. eigenvalues --  -19.05622 -19.03324 -14.17509 -10.13914 -10.12994
  Beta  occ. eigenvalues --  -10.12754 -10.08534 -10.08489 -10.08011 -10.07893
  Beta  occ. eigenvalues --  -10.07750 -10.07659 -10.07358 -10.07184 -10.06234
  Beta  occ. eigenvalues --  -10.06167 -10.05824  -0.97291  -0.93545  -0.81668
  Beta  occ. eigenvalues --   -0.75844  -0.71169  -0.67932  -0.65381  -0.64098
  Beta  occ. eigenvalues --   -0.63839  -0.58935  -0.53301  -0.51490  -0.51069
  Beta  occ. eigenvalues --   -0.49800  -0.46985  -0.44716  -0.42909  -0.40484
  Beta  occ. eigenvalues --   -0.39073  -0.38859  -0.37435  -0.35965  -0.35284
  Beta  occ. eigenvalues --   -0.34803  -0.32941  -0.32552  -0.31609  -0.31009
  Beta  occ. eigenvalues --   -0.29988  -0.28448  -0.27697  -0.27258  -0.26464
  Beta  occ. eigenvalues --   -0.26111  -0.24891  -0.23991  -0.23258  -0.22046
  Beta  occ. eigenvalues --   -0.19270  -0.16087  -0.15431  -0.14618  -0.13703
  Beta  occ. eigenvalues --   -0.13039
  Beta virt. eigenvalues --    0.06713   0.07204   0.07569   0.07897   0.08177
  Beta virt. eigenvalues --    0.08642   0.08903   0.09127   0.09336   0.09521
  Beta virt. eigenvalues --    0.10239   0.10334   0.11125   0.11687   0.12110

 Mulliken charges and spin densities:
               1          2
     1  C    0.967907  -1.307608
     2  C    0.704345  -0.946378
     3  C   -1.361906   1.399173
     4  C    0.252061  -0.378501
     5  C    0.620592  -0.504527
     6  C   -0.635069   0.501001
     7  O   -0.052837   0.001875
     8  C    0.010092  -0.275685
     9  C    0.088477  -0.640556
    10  C   -0.262353  -0.090918
    11  C    0.349158  -0.080023
    12  C   -0.303191   0.433675
    13  C   -0.598548  -0.107821
    14  N   -0.121771   0.133511
    15  C   -0.613854  -0.019171
    16  C    0.463131   0.005180
    17  O   -0.218300   0.006951
    18  H   -0.341793   0.490080
    19  H   -0.562723   0.741530
    20  H   -0.108586   0.283044
    21  H    0.091432   0.061944
    22  H   -0.313832   0.491745
    23  H    0.179886  -0.066315
    24  H   -0.300945   0.480291
    25  H    0.104760   0.064564
    26  H    0.077952   0.101157
    27  H    0.105080   0.138749
    28  H    0.129299   0.024585
    29  H    0.109204   0.041045
    30  H    0.120804   0.005935
    31  H    0.168544   0.012649
    32  H    0.252983  -0.001183
 Sum of Mulliken charges =  -1.00000   1.00000

 Dipole moment (field-independent basis, Debye):
    X=              4.7456    Y=             -2.9073    Z=              0.5828  Tot=              5.5958
 Quadrupole moment (field-independent basis, Debye-Ang):
   XX=           -181.8203   YY=           -146.1486   ZZ=           -125.0067
   XY=             -2.5727   XZ=             -6.8579   YZ=              2.5670

 Summary of Natural Population Analysis:

                                       Natural Population
                Natural  -----------------------------------------------
    Atom  No    Charge         Core      Valence    Rydberg      Total
 -----------------------------------------------------------------------
      C    1   -0.11944      0.99956     2.10956    0.01031     3.11944
      C    2   -0.09248      0.99957     2.08236    0.01054     3.09248
      C    3   -0.12004      0.99952     2.10991    0.01061     3.12004
      C    4    0.16185      0.99938     1.82567    0.01309     2.83815
      C    5   -0.14480      0.99951     2.13666    0.00863     3.14480
      C    6   -0.08904      0.99958     2.07892    0.01054     3.08904
      O    7   -0.28140      0.99985     3.27103    0.01052     4.28140
      C    8   -0.01496      0.99956     2.00403    0.01137     3.01496
      C    9   -0.19575      0.99960     2.18536    0.01079     3.19575
      C   10    0.05569      0.99950     1.93092    0.01389     2.94431
      C   11    0.01917      0.99949     1.96959    0.01176     2.98083
      C   12   -0.12463      0.99951     2.11478    0.01034     3.12463
      C   13    0.02505      0.99960     1.95984    0.01552     2.97495
      N   14   -0.20252      0.99972     2.69154    0.01126     3.70252
      C   15    0.03096      0.99960     1.95533    0.01411     2.96904
      C   16   -0.13359      0.99951     2.12579    0.00829     3.13359
      O   17   -0.37015      0.99989     3.36458    0.00568     4.37015
      H   18    0.10225      0.00000     0.39628    0.00147     0.39775
      H   19    0.10225      0.00000     0.39615    0.00160     0.39775
      H   20    0.10619      0.00000     0.39238    0.00142     0.39381
      H   21    0.10565      0.00000     0.39319    0.00117     0.39435
      H   22    0.10020      0.00000     0.39879    0.00101     0.39980
      H   23    0.09138      0.00000     0.40657    0.00205     0.40862
      H   24    0.08737      0.00000     0.41126    0.00137     0.41263
      H   25    0.10403      0.00000     0.39507    0.00090     0.39597
      H   26    0.10425      0.00000     0.39456    0.00119     0.39575
      H   27    0.08766      0.00000     0.41030    0.00203     0.41234
      H   28    0.10604      0.00000     0.39228    0.00169     0.39396
      H   29    0.08597      0.00000     0.41216    0.00187     0.41403
      H   30    0.08168      0.00000     0.41713    0.00120     0.41832
      H   31    0.10349      0.00000     0.39530    0.00121     0.39651
      H   32    0.22766      0.00000     0.26981    0.00252     0.27234
 =======================================================================
   * Total *    0.00000     16.99295    43.79709    0.20997    61.00000

 Normal termination of Gaussian 16 at Fri Dec 11 14:28:12 2020.
