 Gaussian 16, Revision A.03,

 -----------------------------------------------------------
 # opt freq B3LYP/6-31G(d) empiricaldispersion=gd3bj scf=xqc
 -----------------------------------------------------------

 -------------------------------
 CID_143614232_JID_5072_neutraal
 -------------------------------
 Symbolic Z-matrix:
 Charge =  0 Multiplicity = 1

 SCF Done:  E(RB3LYP) =  -682.561503983     A.U. after   15 cycles
 SCF Done:  E(RB3LYP) =  -682.570956129     A.U. after   13 cycles
 SCF Done:  E(RB3LYP) =  -682.573130266     A.U. after   13 cycles
 SCF Done:  E(RB3LYP) =  -682.574721860     A.U. after   14 cycles
 SCF Done:  E(RB3LYP) =  -682.574646960     A.U. after   13 cycles
 SCF Done:  E(RB3LYP) =  -682.575944968     A.U. after   13 cycles
 SCF Done:  E(RB3LYP) =  -682.576535325     A.U. after   12 cycles
 SCF Done:  E(RB3LYP) =  -682.576691491     A.U. after   12 cycles
 SCF Done:  E(RB3LYP) =  -682.576727306     A.U. after   12 cycles
 SCF Done:  E(RB3LYP) =  -682.576738145     A.U. after   10 cycles
 SCF Done:  E(RB3LYP) =  -682.576742751     A.U. after    9 cycles
 SCF Done:  E(RB3LYP) =  -682.576743929     A.U. after    9 cycles
 SCF Done:  E(RB3LYP) =  -682.576744198     A.U. after    8 cycles
 Optimization completed.
    -- Stationary point found.
 Normal termination of Gaussian 16 at Thu Dec 10 14:45:36 2020.

 --------------------------------------------------------------------
 #N Geom=AllCheck Guess=TCheck SCRF=Check GenChk RB3LYP/6-31G(d) Freq
 --------------------------------------------------------------------

 Structure from the checkpoint file:  "JID_5072.chk"
 -------------------------------
 CID_143614232_JID_5072_neutraal
 -------------------------------
 Charge =  0 Multiplicity = 1

 SCF Done:  E(RB3LYP) =  -682.576744198     A.U. after    1 cycles

  Exact polarizability: 198.206  -4.137 132.812   1.955   9.392  79.609
 Approx polarizability: 256.021 -11.833 236.936   8.417  24.852 130.401

                      1                      2                      3
                      A                      A                      A
 Frequencies --     20.5074                30.1128                41.3148
 Red. masses --      5.4343                 1.0294                 3.9177
 Frc consts  --      0.0013                 0.0005                 0.0039
 IR Inten    --      3.8630                 0.5120                 1.1043

                      4                      5                      6
                      A                      A                      A
 Frequencies --     61.9869               100.0298               142.9381
 Red. masses --      4.4191                 4.6841                 6.0057
 Frc consts  --      0.0100                 0.0276                 0.0723
 IR Inten    --      2.5900                 2.0260                 1.4581

                      7                      8                      9
                      A                      A                      A
 Frequencies --    153.4800               186.1036               224.5147
 Red. masses --      5.7967                 5.0491                 4.6762
 Frc consts  --      0.0805                 0.1030                 0.1389
 IR Inten    --     16.2259                 5.3904                 8.2792

                     10                     11                     12
                      A                      A                      A
 Frequencies --    285.5447               324.5806               344.3378
 Red. masses --      4.2565                 4.3852                 1.4964
 Frc consts  --      0.2045                 0.2722                 0.1045
 IR Inten    --     11.5356                 1.4570               143.3820

                     13                     14                     15
                      A                      A                      A
 Frequencies --    354.4147               399.8270               416.0661
 Red. masses --      2.3522                 5.1675                 3.8720
 Frc consts  --      0.1741                 0.4867                 0.3949
 IR Inten    --     36.3570                30.2646                17.0860

                     16                     17                     18
                      A                      A                      A
 Frequencies --    419.1336               436.1063               455.3379
 Red. masses --      3.1016                 1.3085                 3.9203
 Frc consts  --      0.3210                 0.1466                 0.4789
 IR Inten    --      1.8606               208.8578                11.5214

                     19                     20                     21
                      A                      A                      A
 Frequencies --    504.9091               528.6077               567.9202
 Red. masses --      3.0253                 2.4559                 1.2804
 Frc consts  --      0.4544                 0.4043                 0.2433
 IR Inten    --      3.8512                33.7010               176.8058

                     22                     23                     24
                      A                      A                      A
 Frequencies --    619.9865               654.6128               713.0988
 Red. masses --      4.0004                 6.9353                 4.3979
 Frc consts  --      0.9060                 1.7510                 1.3176
 IR Inten    --     17.9189                 0.6408                 4.4644

                     25                     26                     27
                      A                      A                      A
 Frequencies --    715.5899               727.3256               762.1581
 Red. masses --      1.5707                 5.8223                 2.8721
 Frc consts  --      0.4739                 1.8147                 0.9830
 IR Inten    --     16.8888                 3.4367                69.6550

                     28                     29                     30
                      A                      A                      A
 Frequencies --    790.7784               818.3294               847.4282
 Red. masses --      2.9332                 2.5456                 2.1889
 Frc consts  --      1.0807                 1.0044                 0.9262
 IR Inten    --     74.7814                 4.1632                53.3150

                     31                     32                     33
                      A                      A                      A
 Frequencies --    861.9701               871.3973               932.4467
 Red. masses --      1.6288                 2.7548                 1.9925
 Frc consts  --      0.7130                 1.2324                 1.0207
 IR Inten    --     13.5558                51.3368                13.1462

                     34                     35                     36
                      A                      A                      A
 Frequencies --    954.9273               967.3592               993.0308
 Red. masses --      1.9873                 1.3989                 1.3237
 Frc consts  --      1.0677                 0.7713                 0.7691
 IR Inten    --     29.9758                11.7585                 0.2762

                     37                     38                     39
                      A                      A                      A
 Frequencies --   1020.5928              1024.3362              1045.6087
 Red. masses --      1.7753                 2.4167                 2.7459
 Frc consts  --      1.0895                 1.4940                 1.7688
 IR Inten    --     10.1084                10.9780                 7.1896

                     40                     41                     42
                      A                      A                      A
 Frequencies --   1075.1567              1104.8502              1139.2882
 Red. masses --      1.5328                 1.3621                 1.8238
 Frc consts  --      1.0439                 0.9796                 1.3947
 IR Inten    --     14.8187                16.3834                 5.6852

                     43                     44                     45
                      A                      A                      A
 Frequencies --   1156.1577              1214.5977              1227.5021
 Red. masses --      1.3056                 2.0743                 1.3385
 Frc consts  --      1.0282                 1.8030                 1.1883
 IR Inten    --      4.2689                35.0881                18.8783

                     46                     47                     48
                      A                      A                      A
 Frequencies --   1248.1696              1327.6677              1347.9514
 Red. masses --      2.7381                 2.5154                 2.0922
 Frc consts  --      2.5133                 2.6124                 2.2397
 IR Inten    --      1.5594               228.6982                87.5048

                     49                     50                     51
                      A                      A                      A
 Frequencies --   1355.6930              1438.2733              1442.0574
 Red. masses --      2.3687                 3.4260                 1.2486
 Frc consts  --      2.5649                 4.1757                 1.5298
 IR Inten    --     39.0750               128.2316                 0.1651

                     52                     53                     54
                      A                      A                      A
 Frequencies --   1458.8835              1479.4419              1517.9650
 Red. masses --      2.8900                 2.1000                 1.0505
 Frc consts  --      3.6240                 2.7081                 1.4261
 IR Inten    --     32.7059                44.4342                 5.5144

                     55                     56                     57
                      A                      A                      A
 Frequencies --   1520.4993              1559.1065              1564.5401
 Red. masses --      1.1072                 2.5271                 2.4030
 Frc consts  --      1.5082                 3.6193                 3.4656
 IR Inten    --      8.6656               195.8980               302.9645

                     58                     59                     60
                      A                      A                      A
 Frequencies --   1620.1922              1661.9733              1670.0787
 Red. masses --      5.5424                 2.0458                 4.1163
 Frc consts  --      8.5720                 3.3294                 6.7644
 IR Inten    --     10.6214               377.4099                42.5006

                     61                     62                     63
                      A                      A                      A
 Frequencies --   1673.7544              1695.9045              1701.7878
 Red. masses --      5.8134                 1.7148                 8.4296
 Frc consts  --      9.5954                 2.9058                14.3836
 IR Inten    --     43.3293               744.1499                48.5887

                     64                     65                     66
                      A                      A                      A
 Frequencies --   3041.4376              3098.8986              3126.6043
 Red. masses --      1.0408                 1.0952                 1.1028
 Frc consts  --      5.6724                 6.1964                 6.3517
 IR Inten    --     33.7110                21.5446                15.9921

                     67                     68                     69
                      A                      A                      A
 Frequencies --   3176.5583              3180.2344              3195.7721
 Red. masses --      1.0870                 1.0898                 1.0936
 Frc consts  --      6.4624                 6.4940                 6.5806
 IR Inten    --     13.8733                23.5750                13.7078

                     70                     71                     72
                      A                      A                      A
 Frequencies --   3245.3180              3391.0400              3430.3610
 Red. masses --      1.0919                 1.0734                 1.0591
 Frc consts  --      6.7756                 7.2721                 7.3428
 IR Inten    --      3.2262                19.6372               168.6030

                     73                     74                     75
                      A                      A                      A
 Frequencies --   3576.6650              3659.0619              3690.6172
 Red. masses --      1.0470                 1.0923                 1.1015
 Frc consts  --      7.8910                 8.6164                 8.8397
 IR Inten    --     43.5347                63.9479                33.1859

 - Thermochemistry -
 -------------------
 Temperature   298.150 Kelvin.  Pressure   1.00000 Atm.
 Atom     1 has atomic number  6 and mass  12.00000

 Molecular mass:   204.10111 amu.
 Principal axes and moments of inertia in atomic units:
                           1         2         3
     Eigenvalues --  1231.191716654.338427114.48391
           X            1.00000  -0.00171   0.00070
           Y            0.00169   0.99982   0.01894
           Z           -0.00073  -0.01894   0.99982
 This molecule is an asymmetric top.
 Rotational symmetry number  1.
 Warning -- assumption of classical behavior for rotation
           may cause significant error
 Rotational temperatures (Kelvin)      0.07035     0.01302     0.01217
 Rotational constants (GHZ):           1.46585     0.27121     0.25367
 Zero-point vibrational energy     570216.8 (Joules/Mol)
                                  136.28510 (Kcal/Mol)
 Warning -- explicit consideration of  22 degrees of freedom as
           vibrations may cause significant error
 Vibrational temperatures:     29.51    43.33    59.44    89.19   143.92
          (Kelvin)            205.66   220.82   267.76   323.03   410.84
                              467.00   495.43   509.92   575.26   598.63
                              603.04   627.46   655.13   726.45   760.55
                              817.11   892.02   941.84  1025.99  1029.57
                             1046.46  1096.58  1137.75  1177.39  1219.26
                             1240.18  1253.75  1341.58  1373.93  1391.81
                             1428.75  1468.41  1473.79  1504.40  1546.91
                             1589.63  1639.18  1663.45  1747.54  1766.10
                             1795.84  1910.22  1939.40  1950.54  2069.35
                             2074.80  2099.01  2128.59  2184.01  2187.66
                             2243.21  2251.02  2331.10  2391.21  2402.87
                             2408.16  2440.03  2448.49  4375.95  4458.62
                             4498.49  4570.36  4575.65  4598.00  4669.29
                             4878.95  4935.52  5146.02  5264.57  5309.97

 Zero-point correction=                           0.217184 (Hartree/Particle)
 Thermal correction to Energy=                    0.231696
 Thermal correction to Enthalpy=                  0.232640
 Thermal correction to Gibbs Free Energy=         0.173456
 Sum of electronic and zero-point Energies=           -682.359560
 Sum of electronic and thermal Energies=              -682.345049
 Sum of electronic and thermal Enthalpies=            -682.344104
 Sum of electronic and thermal Free Energies=         -682.403288

                     E (Thermal)             CV                S
                      KCal/Mol        Cal/Mol-Kelvin    Cal/Mol-Kelvin
 Total                  145.391             53.933            124.563
 Electronic               0.000              0.000              0.000
 Translational            0.889              2.981             41.845
 Rotational               0.889              2.981             32.433
 Vibrational            143.614             47.971             50.285
 Vibration     1          0.593              1.986              6.584
 Vibration     2          0.594              1.984              5.822
 Vibration     3          0.594              1.981              5.195
 Vibration     4          0.597              1.972              4.393
 Vibration     5          0.604              1.949              3.454
 Vibration     6          0.616              1.910              2.764
 Vibration     7          0.619              1.899              2.629
 Vibration     8          0.632              1.859              2.266
 Vibration     9          0.649              1.804              1.922
 Vibration    10          0.683              1.701              1.500
 Vibration    11          0.709              1.626              1.287
 Vibration    12          0.723              1.587              1.192
 Vibration    13          0.730              1.566              1.147
 Vibration    14          0.766              1.470              0.963
 Vibration    15          0.779              1.435              0.905
 Vibration    16          0.782              1.429              0.895
 Vibration    17          0.797              1.392              0.839
 Vibration    18          0.814              1.349              0.780
 Vibration    19          0.860              1.239              0.646
 Vibration    20          0.884              1.187              0.590
 Vibration    21          0.924              1.101              0.508
 Vibration    22          0.980              0.990              0.417

                           ! Non-Optimized Parameters !
 Normal termination of Gaussian 16 at Thu Dec 10 14:52:26 2020.

 ----------------------------------------------------------------------
 # B3LYP/6-311++G(d,p) empiricaldispersion=gd3bj scf=xqc pop=npa geom=c
 heck
 ----------------------------------------------------------------------

 ---------------------------------------
 CID_143614232_JID_5072_Energie_neutraal
 ---------------------------------------
 Structure from the checkpoint file:  "JID_5072.chk"
 Charge =  0 Multiplicity = 1

 SCF Done:  E(RB3LYP) =  -682.781034739     A.U. after   15 cycles
 Normal termination of Gaussian 16 at Thu Dec 10 14:55:10 2020.

 ----------------------------------------------------------------------
 # B3LYP/6-311++G(d,p) empiricaldispersion=gd3bj scf=xqc pop=npa geom=c
 heck
 ----------------------------------------------------------------------

 -------------------------------------
 CID_143614232_JID_5072_Energie_kation
 -------------------------------------
 Structure from the checkpoint file:  "JID_5072.chk"
 Charge =  1 Multiplicity = 2

 SCF Done:  E(UB3LYP) =  -682.479332830     A.U. after   32 cycles
 Normal termination of Gaussian 16 at Thu Dec 10 15:03:47 2020.
 Gaussian 16:  ES64L-G16RevA.03 25-Dec-2016

 ----------------------------------------------------------------------
 # B3LYP/6-311++G(d,p) empiricaldispersion=gd3bj scf=xqc pop=npa geom=c
 heck
 ----------------------------------------------------------------------

 ------------------------------------
 CID_143614232_JID_5072_Energie_anion
 ------------------------------------
 Structure from the checkpoint file:  "JID_5072.chk"
 Charge = -1 Multiplicity = 2

                         Standard orientation:
 ---------------------------------------------------------------------
 Center     Atomic      Atomic             Coordinates (Angstroms)
 Number     Number       Type             X           Y           Z
 ---------------------------------------------------------------------
      1          6           0        5.059579   -0.857702    0.675860
      2          6           0        3.657760   -0.402014    0.355543
      3          6           0        3.261291    0.922023    0.583947
      4          6           0        1.979192    1.350977    0.259137
      5          6           0        1.043726    0.467329   -0.302859
      6          6           0        1.429228   -0.865236   -0.512866
      7          6           0        2.718713   -1.283015   -0.193204
      8          6           0       -0.312190    0.979901   -0.646920
      9          7           0       -0.575794    2.160420   -1.064764
     10          6           0       -1.496582    0.036069   -0.512785
     11          8           0       -1.475376   -1.032286   -1.152689
     12          7           0       -2.476006    0.497883    0.311426
     13          6           0       -3.558126   -0.237966    0.509511
     14          7           0       -3.855943   -1.398899   -0.114282
     15          7           0       -4.448980    0.220077    1.442456
     16          1           0        5.736922   -0.675255   -0.169074
     17          1           0        5.467500   -0.321956    1.539546
     18          1           0        5.092103   -1.930215    0.893227
     19          1           0        3.963230    1.620985    1.032590
     20          1           0        1.685835    2.374833    0.474911
     21          1           0        0.714772   -1.558110   -0.939578
     22          1           0        3.002154   -2.317390   -0.373479
     23          1           0        0.297740    2.686601   -1.192488
     24          1           0       -4.560505   -2.016488    0.262224
     25          1           0       -3.099693   -1.762915   -0.696196
     26          1           0       -4.272993    1.174366    1.727745
     27          1           0       -5.422552   -0.034730    1.346037
 ---------------------------------------------------------------------

 SCF Done:  E(UB3LYP) =  -682.786117066     A.U. after   32 cycles

 The electronic state is 2-A.
 Alpha  occ. eigenvalues --  -18.96067 -14.21738 -14.21585 -14.15642 -14.14726
 Alpha  occ. eigenvalues --  -10.16512 -10.12599 -10.07550 -10.07239 -10.06533
 Alpha  occ. eigenvalues --  -10.06068 -10.05728 -10.05678 -10.05610 -10.04955
 Alpha  occ. eigenvalues --   -0.90885  -0.86586  -0.77326  -0.77000  -0.74624
 Alpha  occ. eigenvalues --   -0.73708  -0.66439  -0.63155  -0.58863  -0.55137
 Alpha  occ. eigenvalues --   -0.50494  -0.49047  -0.47605  -0.44900  -0.43464
 Alpha  occ. eigenvalues --   -0.40345  -0.37239  -0.36162  -0.35631  -0.34649
 Alpha  occ. eigenvalues --   -0.33254  -0.32704  -0.32069  -0.30799  -0.30661
 Alpha  occ. eigenvalues --   -0.29594  -0.28419  -0.25935  -0.24669  -0.23958
 Alpha  occ. eigenvalues --   -0.22647  -0.19217  -0.17195  -0.16412  -0.14402
 Alpha  occ. eigenvalues --   -0.13747  -0.13010  -0.12306  -0.10972   0.03800
 Alpha virt. eigenvalues --    0.05737   0.06826   0.08584   0.08857   0.09369
 Alpha virt. eigenvalues --    0.09604   0.09676   0.10562   0.11344   0.11581
 Alpha virt. eigenvalues --    0.12816   0.13899   0.13988   0.14387   0.15031

  Beta  occ. eigenvalues --  -18.95936 -14.21656 -14.21542 -14.15702 -14.14410
  Beta  occ. eigenvalues --  -10.16370 -10.12464 -10.07564 -10.07169 -10.06360
  Beta  occ. eigenvalues --  -10.06106 -10.05749 -10.05606 -10.05545 -10.04899
  Beta  occ. eigenvalues --   -0.90655  -0.86395  -0.77093  -0.76693  -0.74541
  Beta  occ. eigenvalues --   -0.73478  -0.66224  -0.63046  -0.58701  -0.54765
  Beta  occ. eigenvalues --   -0.50267  -0.48927  -0.47408  -0.44747  -0.43343
  Beta  occ. eigenvalues --   -0.40219  -0.37055  -0.36055  -0.35539  -0.34490
  Beta  occ. eigenvalues --   -0.33104  -0.32519  -0.31812  -0.30621  -0.30465
  Beta  occ. eigenvalues --   -0.29479  -0.28285  -0.25376  -0.24495  -0.23574
  Beta  occ. eigenvalues --   -0.22540  -0.18235  -0.16979  -0.16171  -0.14095
  Beta  occ. eigenvalues --   -0.13468  -0.12792  -0.11470  -0.10688
  Beta virt. eigenvalues --    0.06756   0.07113   0.07846   0.08757   0.09302
  Beta virt. eigenvalues --    0.09583   0.09753   0.09976   0.11174   0.11416
  Beta virt. eigenvalues --    0.11885   0.12932   0.13923   0.14049   0.14385

 Mulliken charges and spin densities:
               1          2
     1  C   -0.592705  -0.023839
     2  C    0.816397   0.094479
     3  C   -0.560232   0.011481
     4  C   -0.487784   0.058914
     5  C    2.231211   0.087527
     6  C   -0.722949   0.041586
     7  C   -0.663691  -0.027237
     8  C   -1.218127  -0.023663
     9  N   -0.202048   0.168866
    10  C   -0.378727  -0.174065
    11  O   -0.348087   0.043098
    12  N   -0.003150  -0.128217
    13  C    0.817254  -0.347014
    14  N   -0.406594  -0.018465
    15  N   -0.372946   0.088771
    16  H    0.115629   0.031857
    17  H    0.123132   0.002754
    18  H    0.128849   0.001632
    19  H    0.118022   0.001389
    20  H    0.116348   0.012911
    21  H    0.209545  -0.002828
    22  H    0.122649   0.000755
    23  H    0.180048  -0.008612
    24  H   -0.002855   0.252619
    25  H    0.301709   0.008528
    26  H    0.201089   0.063471
    27  H   -0.521988   0.783301
 Sum of Mulliken charges =  -1.00000   1.00000

 Dipole moment (field-independent basis, Debye):
    X=              7.6116    Y=             -1.7587    Z=              1.1368  Tot=              7.8944
 Quadrupole moment (field-independent basis, Debye-Ang):
   XX=           -157.7569   YY=           -103.8120   ZZ=           -107.6693
   XY=              2.9994   XZ=              5.0803   YZ=              3.1500

 Summary of Natural Population Analysis:

                                       Natural Population
                Natural  -----------------------------------------------
    Atom  No    Charge         Core      Valence    Rydberg      Total
 -----------------------------------------------------------------------
      C    1   -0.29181      0.99965     2.28772    0.00445     3.29181
      C    2    0.00436      0.99952     1.98808    0.00804     2.99564
      C    3   -0.11743      0.99952     2.10949    0.00841     3.11743
      C    4   -0.07763      0.99954     2.06941    0.00869     3.07763
      C    5   -0.04159      0.99947     2.03204    0.01008     3.04159
      C    6   -0.07565      0.99954     2.06792    0.00820     3.07565
      C    7   -0.11236      0.99953     2.10439    0.00845     3.11236
      C    8    0.11504      0.99956     1.86932    0.01608     2.88496
      N    9   -0.25831      0.99972     2.75134    0.00726     3.75831
      C   10    0.34366      0.99963     1.63097    0.02574     2.65634
      O   11   -0.33771      0.99987     3.33249    0.00535     4.33771
      N   12   -0.33930      0.99963     2.83081    0.00886     3.83930
      C   13    0.34587      0.99967     1.63819    0.01627     2.65413
      N   14   -0.40137      0.99968     2.89333    0.00836     3.90137
      N   15   -0.39234      0.99970     2.88337    0.00927     3.89234
      H   16    0.10033      0.00000     0.39868    0.00099     0.39967
      H   17    0.09772      0.00000     0.40139    0.00088     0.40228
      H   18    0.09803      0.00000     0.40109    0.00089     0.40197
      H   19    0.09163      0.00000     0.40704    0.00133     0.40837
      H   20    0.09732      0.00000     0.40095    0.00173     0.40268
      H   21    0.11625      0.00000     0.38275    0.00100     0.38375
      H   22    0.09209      0.00000     0.40694    0.00097     0.40791
      H   23    0.14765      0.00000     0.35004    0.00231     0.35235
      H   24    0.18938      0.00000     0.30891    0.00172     0.31062
      H   25    0.21738      0.00000     0.28050    0.00212     0.28262
      H   26    0.19727      0.00000     0.30070    0.00203     0.30273
      H   27    0.19154      0.00000     0.29724    0.01122     0.30846
 =======================================================================
   * Total *    0.00000     14.99422    38.82510    0.18068    54.00000

 Normal termination of Gaussian 16 at Thu Dec 10 15:16:17 2020.
