 Gaussian 16, Revision A.03,

 -----------------------------------------------------------
 # opt freq B3LYP/6-31G(d) empiricaldispersion=gd3bj scf=xqc
 -----------------------------------------------------------

 ------------------------------
 CID_15307492_JID_5567_neutraal
 ------------------------------
 Symbolic Z-matrix:
 Charge =  0 Multiplicity = 1

 SCF Done:  E(RB3LYP) =  -691.380471487     A.U. after   14 cycles
 SCF Done:  E(RB3LYP) =  -691.385256189     A.U. after   12 cycles
 SCF Done:  E(RB3LYP) =  -691.385716963     A.U. after   11 cycles
 SCF Done:  E(RB3LYP) =  -691.385773016     A.U. after   10 cycles
 SCF Done:  E(RB3LYP) =  -691.385784376     A.U. after    8 cycles
 SCF Done:  E(RB3LYP) =  -691.385786851     A.U. after    8 cycles
 SCF Done:  E(RB3LYP) =  -691.385787746     A.U. after    7 cycles
 SCF Done:  E(RB3LYP) =  -691.385787969     A.U. after    7 cycles
 SCF Done:  E(RB3LYP) =  -691.385788065     A.U. after    7 cycles
 Optimization completed.
    -- Stationary point found.
 Normal termination of Gaussian 16 at Thu Dec 10 15:42:33 2020.

 --------------------------------------------------------------------
 #N Geom=AllCheck Guess=TCheck SCRF=Check GenChk RB3LYP/6-31G(d) Freq
 --------------------------------------------------------------------

 Structure from the checkpoint file:  "JID_5567.chk"
 ------------------------------
 CID_15307492_JID_5567_neutraal
 ------------------------------
 Charge =  0 Multiplicity = 1

 SCF Done:  E(RB3LYP) =  -691.385788065     A.U. after    1 cycles

  Exact polarizability: 198.294   0.358 126.075  11.644   0.699  75.547
 Approx polarizability: 254.356   2.500 214.256  19.176  -0.561 118.428

                      1                      2                      3
                      A                      A                      A
 Frequencies --     50.2558                54.3015                77.0652
 Red. masses --      4.1564                 3.6091                 3.7688
 Frc consts  --      0.0062                 0.0063                 0.0132
 IR Inten    --      0.0383                 0.3819                 1.1884

                      4                      5                      6
                      A                      A                      A
 Frequencies --     93.0982               112.9536               149.8045
 Red. masses --      3.5657                 3.6480                 2.8385
 Frc consts  --      0.0182                 0.0274                 0.0375
 IR Inten    --      1.7452                 1.0355                 0.5787

                      7                      8                      9
                      A                      A                      A
 Frequencies --    225.9796               234.3035               241.7989
 Red. masses --      3.0222                 2.3173                 3.8401
 Frc consts  --      0.0909                 0.0750                 0.1323
 IR Inten    --      0.1344                 1.1163                 0.9102

                     10                     11                     12
                      A                      A                      A
 Frequencies --    270.0376               289.4097               332.4551
 Red. masses --      1.6456                 3.2448                 2.8071
 Frc consts  --      0.0707                 0.1601                 0.1828
 IR Inten    --      0.6939                 1.8097                10.6823

                     13                     14                     15
                      A                      A                      A
 Frequencies --    358.4830               373.5988               404.9073
 Red. masses --      4.2545                 1.3143                 2.7948
 Frc consts  --      0.3221                 0.1081                 0.2700
 IR Inten    --      2.7746               101.2177                 0.9262

                     16                     17                     18
                      A                      A                      A
 Frequencies --    449.7967               488.3882               503.2760
 Red. masses --      3.0361                 4.3467                 2.7902
 Frc consts  --      0.3619                 0.6109                 0.4164
 IR Inten    --      1.9882                 9.8974                 4.8281

                     19                     20                     21
                      A                      A                      A
 Frequencies --    549.8314               570.9797               638.1959
 Red. masses --      3.0970                 5.6466                 3.6712
 Frc consts  --      0.5516                 1.0846                 0.8810
 IR Inten    --      6.1541                25.1714                21.7330

                     22                     23                     24
                      A                      A                      A
 Frequencies --    642.3893               670.4374               725.7370
 Red. masses --      3.5941                 2.4694                 3.4006
 Frc consts  --      0.8739                 0.6540                 1.0553
 IR Inten    --      7.5183                 4.2495                 6.3745

                     25                     26                     27
                      A                      A                      A
 Frequencies --    749.0912               765.1835               795.0528
 Red. masses --      3.4919                 6.4341                 2.0060
 Frc consts  --      1.1545                 2.2196                 0.7471
 IR Inten    --      0.5752                 8.0141                20.3725

                     28                     29                     30
                      A                      A                      A
 Frequencies --    805.2741               856.0541               911.9120
 Red. masses --      2.1888                 1.4744                 2.7723
 Frc consts  --      0.8363                 0.6366                 1.3583
 IR Inten    --      4.9224                26.4454                45.0539

                     31                     32                     33
                      A                      A                      A
 Frequencies --    924.0658               937.9526               940.3579
 Red. masses --      1.4086                 2.2419                 2.2429
 Frc consts  --      0.7086                 1.1620                 1.1686
 IR Inten    --      6.2953                16.2848                10.8810

                     34                     35                     36
                      A                      A                      A
 Frequencies --    943.3135               972.1519               982.3159
 Red. masses --      1.3636                 3.0982                 3.2661
 Frc consts  --      0.7149                 1.7252                 1.8569
 IR Inten    --     43.3578                62.7477                97.7360

                     37                     38                     39
                      A                      A                      A
 Frequencies --   1049.7408              1066.0681              1074.1067
 Red. masses --      1.1730                 2.5047                 2.3356
 Frc consts  --      0.7616                 1.6772                 1.5876
 IR Inten    --      5.1059                25.8294                59.6197

                     40                     41                     42
                      A                      A                      A
 Frequencies --   1118.5492              1140.4588              1164.4360
 Red. masses --      3.1260                 2.4226                 1.8262
 Frc consts  --      2.3043                 1.8565                 1.4589
 IR Inten    --     16.1221               211.9351                33.7884

                     43                     44                     45
                      A                      A                      A
 Frequencies --   1186.6046              1191.0366              1213.6087
 Red. masses --      1.2707                 1.9519                 1.7280
 Frc consts  --      1.0542                 1.6314                 1.4995
 IR Inten    --      0.8107                70.6913                65.1786

                     46                     47                     48
                      A                      A                      A
 Frequencies --   1231.1744              1241.6442              1262.0071
 Red. masses --      1.5537                 1.3445                 1.3545
 Frc consts  --      1.3875                 1.2213                 1.2710
 IR Inten    --     68.6891                58.7836                 2.1393

                     49                     50                     51
                      A                      A                      A
 Frequencies --   1285.3949              1315.8895              1321.3702
 Red. masses --      2.4210                 1.4244                 1.7372
 Frc consts  --      2.3568                 1.4532                 1.7871
 IR Inten    --     12.8883                28.4917                41.8558

                     52                     53                     54
                      A                      A                      A
 Frequencies --   1330.2818              1355.8057              1358.0449
 Red. masses --      1.2933                 1.6181                 1.5141
 Frc consts  --      1.3485                 1.7524                 1.6452
 IR Inten    --      5.5531                16.4567                21.0087

                     55                     56                     57
                      A                      A                      A
 Frequencies --   1388.5640              1398.7302              1459.7437
 Red. masses --      1.7736                 3.7645                 1.2510
 Frc consts  --      2.0148                 4.3394                 1.5706
 IR Inten    --     10.5508                56.6757                94.0830

                     58                     59                     60
                      A                      A                      A
 Frequencies --   1474.1293              1492.1474              1502.5865
 Red. masses --      1.1919                 2.0035                 1.7015
 Frc consts  --      1.5261                 2.6282                 2.2633
 IR Inten    --      0.4110                21.4738                22.6465

                     61                     62                     63
                      A                      A                      A
 Frequencies --   1514.4071              1520.8630              1534.9789
 Red. masses --      1.1082                 1.0479                 1.1766
 Frc consts  --      1.4975                 1.4281                 1.6333
 IR Inten    --      5.8519                 5.4668                95.6649

                     64                     65                     66
                      A                      A                      A
 Frequencies --   1548.7000              1649.6533              1685.9557
 Red. masses --      2.2414                 7.4602                 7.2889
 Frc consts  --      3.1674                11.9615                12.2069
 IR Inten    --     77.5480                37.5541               159.9008

                     67                     68                     69
                      A                      A                      A
 Frequencies --   1735.0635              3024.7702              3026.4508
 Red. masses --      4.4993                 1.0815                 1.0355
 Frc consts  --      7.9804                 5.8302                 5.5881
 IR Inten    --      7.3062                13.1117                54.2625

                     70                     71                     72
                      A                      A                      A
 Frequencies --   3042.2133              3082.9605              3085.1487
 Red. masses --      1.0612                 1.1019                 1.1066
 Frc consts  --      5.7865                 6.1707                 6.2058
 IR Inten    --     30.4385                21.1085                44.5315

                     73                     74                     75
                      A                      A                      A
 Frequencies --   3153.1552              3159.3138              3163.3000
 Red. masses --      1.0592                 1.0998                 1.0901
 Frc consts  --      6.2049                 6.4678                 6.4271
 IR Inten    --     12.8850                29.3405                30.4127

                     76                     77                     78
                      A                      A                      A
 Frequencies --   3173.2709              3189.4466              3235.1333
 Red. masses --      1.0918                 1.0896                 1.1150
 Frc consts  --      6.4776                 6.5307                 6.8758
 IR Inten    --      9.1464                12.8288                22.3404

                     79                     80                     81
                      A                      A                      A
 Frequencies --   3237.3695              3238.3767              3715.5294
 Red. masses --      1.0909                 1.0920                 1.0654
 Frc consts  --      6.7364                 6.7471                 8.6655
 IR Inten    --      9.8391                 1.4774                13.4556

 - Thermochemistry -
 -------------------
 Temperature   298.150 Kelvin.  Pressure   1.00000 Atm.
 Atom     1 has atomic number  6 and mass  12.00000

 Molecular mass:   206.09429 amu.
 Principal axes and moments of inertia in atomic units:
                           1         2         3
     Eigenvalues --  1241.248585872.535776799.53880
           X            0.99999  -0.00044   0.00415
           Y            0.00045   1.00000  -0.00106
           Z           -0.00415   0.00107   0.99999
 This molecule is an asymmetric top.
 Rotational symmetry number  1.
 Warning -- assumption of classical behavior for rotation
           may cause significant error
 Rotational temperatures (Kelvin)      0.06978     0.01475     0.01274
 Rotational constants (GHZ):           1.45397     0.30732     0.26542
 Zero-point vibrational energy     630601.8 (Joules/Mol)
                                  150.71745 (Kcal/Mol)
 Warning -- explicit consideration of  20 degrees of freedom as
           vibrations may cause significant error
 Vibrational temperatures:     72.31    78.13   110.88   133.95   162.52
          (Kelvin)            215.54   325.13   337.11   347.89   388.52
                              416.40   478.33   515.78   537.53   582.57
                              647.16   702.68   724.10   791.08   821.51
                              918.22   924.25   964.61  1044.17  1077.78
                             1100.93  1143.90  1158.61  1231.67  1312.04
                             1329.52  1349.50  1352.97  1357.22  1398.71
                             1413.33  1510.34  1533.83  1545.40  1609.34
                             1640.87  1675.36  1707.26  1713.64  1746.11
                             1771.39  1786.45  1815.75  1849.40  1893.27
                             1901.16  1913.98  1950.70  1953.92  1997.83
                             2012.46  2100.25  2120.94  2146.87  2161.89
                             2178.89  2188.18  2208.49  2228.23  2373.48
                             2425.71  2496.37  4351.97  4354.39  4377.07
                             4435.69  4438.84  4536.69  4545.55  4551.28
                             4565.63  4588.90  4654.64  4657.85  4659.30
                             5345.82

 Zero-point correction=                           0.240184 (Hartree/Particle)
 Thermal correction to Energy=                    0.254031
 Thermal correction to Enthalpy=                  0.254975
 Thermal correction to Gibbs Free Energy=         0.199183
 Sum of electronic and zero-point Energies=           -691.145605
 Sum of electronic and thermal Energies=              -691.131757
 Sum of electronic and thermal Enthalpies=            -691.130813
 Sum of electronic and thermal Free Energies=         -691.186605

                     E (Thermal)             CV                S
                      KCal/Mol        Cal/Mol-Kelvin    Cal/Mol-Kelvin
 Total                  159.407             53.273            117.424
 Electronic               0.000              0.000              0.000
 Translational            0.889              2.981             41.874
 Rotational               0.889              2.981             32.272
 Vibrational            157.629             47.311             43.279
 Vibration     1          0.595              1.977              4.807
 Vibration     2          0.596              1.976              4.654
 Vibration     3          0.599              1.964              3.964
 Vibration     4          0.602              1.954              3.594
 Vibration     5          0.607              1.939              3.218
 Vibration     6          0.618              1.903              2.675
 Vibration     7          0.650              1.801              1.911
 Vibration     8          0.654              1.788              1.846
 Vibration     9          0.658              1.776              1.790
 Vibration    10          0.674              1.728              1.596
 Vibration    11          0.686              1.693              1.477
 Vibration    12          0.714              1.611              1.248
 Vibration    13          0.733              1.558              1.129
 Vibration    14          0.745              1.526              1.065
 Vibration    15          0.770              1.460              0.945
 Vibration    16          0.809              1.361              0.796
 Vibration    17          0.844              1.276              0.688
 Vibration    18          0.859              1.243              0.650
 Vibration    19          0.905              1.140              0.545
 Vibration    20          0.927              1.094              0.502

                           ! Non-Optimized Parameters !
 Normal termination of Gaussian 16 at Thu Dec 10 15:50:53 2020.

 ----------------------------------------------------------------------
 # B3LYP/6-311++G(d,p) empiricaldispersion=gd3bj scf=xqc pop=npa geom=c
 heck
 ----------------------------------------------------------------------

 --------------------------------------
 CID_15307492_JID_5567_Energie_neutraal
 --------------------------------------
 Structure from the checkpoint file:  "JID_5567.chk"
 Charge =  0 Multiplicity = 1

 SCF Done:  E(RB3LYP) =  -691.585374529     A.U. after   14 cycles
 Normal termination of Gaussian 16 at Thu Dec 10 15:54:42 2020.

 ----------------------------------------------------------------------
 # B3LYP/6-311++G(d,p) empiricaldispersion=gd3bj scf=xqc pop=npa geom=c
 heck
 ----------------------------------------------------------------------

 ------------------------------------
 CID_15307492_JID_5567_Energie_kation
 ------------------------------------
 Structure from the checkpoint file:  "JID_5567.chk"
 Charge =  1 Multiplicity = 2

 SCF Done:  E(UB3LYP) =  -691.296458929     A.U. after   24 cycles
 Normal termination of Gaussian 16 at Thu Dec 10 16:03:05 2020.
 Gaussian 16:  ES64L-G16RevA.03 25-Dec-2016

 ----------------------------------------------------------------------
 # B3LYP/6-311++G(d,p) empiricaldispersion=gd3bj scf=xqc pop=npa geom=c
 heck
 ----------------------------------------------------------------------

 -----------------------------------
 CID_15307492_JID_5567_Energie_anion
 -----------------------------------
 Structure from the checkpoint file:  "JID_5567.chk"
 Charge = -1 Multiplicity = 2

                         Standard orientation:
 ---------------------------------------------------------------------
 Center     Atomic      Atomic             Coordinates (Angstroms)
 Number     Number       Type             X           Y           Z
 ---------------------------------------------------------------------
      1          6           0        4.908768   -0.884347    0.247919
      2          8           0        4.047146    0.221880    0.041204
      3          6           0        2.706136   -0.015842   -0.043780
      4          6           0        1.914730    1.129718   -0.243561
      5          6           0        0.548234    0.947604   -0.337543
      6          6           0       -0.060264   -0.309671   -0.242560
      7          6           0        0.731468   -1.426522   -0.037733
      8          6           0        2.123686   -1.286155    0.066502
      9          6           0       -1.544075   -0.118051   -0.448588
     10          6           0       -1.673310    1.420761   -0.238580
     11          8           0       -0.359377    1.959230   -0.523131
     12          8           0       -2.080743    1.801319    1.043875
     13          6           0       -2.462625   -0.972211    0.441674
     14          6           0       -3.922985   -0.691880    0.217194
     15          6           0       -4.780325   -1.549217   -0.336051
     16          1           0        5.919511   -0.474287    0.281316
     17          1           0        4.837079   -1.609475   -0.573286
     18          1           0        4.690886   -1.392921    1.196297
     19          1           0        2.376383    2.107355   -0.313344
     20          1           0        0.287708   -2.415596    0.039598
     21          1           0        2.735279   -2.164771    0.227629
     22          1           0       -1.800334   -0.327507   -1.496901
     23          1           0       -2.371791    1.900186   -0.922685
     24          1           0       -1.451670    1.420746    1.680035
     25          1           0       -2.251325   -2.029195    0.239540
     26          1           0       -2.204274   -0.795002    1.493770
     27          1           0       -4.265070    0.294834    0.525837
     28          1           0       -5.825715   -1.295829   -0.489647
     29          1           0       -4.469498   -2.543095   -0.653098
 ---------------------------------------------------------------------

 SCF Done:  E(UB3LYP) =  -691.573166362     A.U. after   33 cycles
 SCF Done:  E(UB3LYP) =  -691.573166362     a.u. after    1 cycles

 The electronic state is 2-A.
 Alpha  occ. eigenvalues --  -19.06295 -19.05830 -19.05151 -10.19200 -10.14154
 Alpha  occ. eigenvalues --  -10.13625 -10.12377 -10.10058 -10.08873 -10.08777
 Alpha  occ. eigenvalues --  -10.08292 -10.07755 -10.07737 -10.07483 -10.07193
 Alpha  occ. eigenvalues --   -1.00426  -0.97457  -0.93925  -0.76245  -0.72899
 Alpha  occ. eigenvalues --   -0.68592  -0.65444  -0.64958  -0.60097  -0.59421
 Alpha  occ. eigenvalues --   -0.54609  -0.50477  -0.49535  -0.46875  -0.45061
 Alpha  occ. eigenvalues --   -0.43233  -0.40911  -0.40096  -0.39298  -0.37773
 Alpha  occ. eigenvalues --   -0.37326  -0.36328  -0.34933  -0.33545  -0.32747
 Alpha  occ. eigenvalues --   -0.31759  -0.30821  -0.29704  -0.28786  -0.27288
 Alpha  occ. eigenvalues --   -0.26889  -0.26683  -0.25438  -0.25112  -0.23630
 Alpha  occ. eigenvalues --   -0.21302  -0.20966  -0.17804  -0.14454  -0.12240
 Alpha  occ. eigenvalues --    0.04184
 Alpha virt. eigenvalues --    0.05824   0.07084   0.07227   0.07365   0.08361
 Alpha virt. eigenvalues --    0.08478   0.08688   0.09736   0.09852   0.10114
 Alpha virt. eigenvalues --    0.10464   0.10989   0.11630   0.11936   0.12892

  Beta  occ. eigenvalues --  -19.06291 -19.05819 -19.05126 -10.19193 -10.14140
  Beta  occ. eigenvalues --  -10.13626 -10.12327 -10.10052 -10.08869 -10.08753
  Beta  occ. eigenvalues --  -10.08244 -10.07731 -10.07729 -10.07469 -10.07183
  Beta  occ. eigenvalues --   -1.00405  -0.97428  -0.93884  -0.76207  -0.72870
  Beta  occ. eigenvalues --   -0.68559  -0.65394  -0.64916  -0.60042  -0.59366
  Beta  occ. eigenvalues --   -0.54548  -0.50434  -0.49497  -0.46816  -0.45019
  Beta  occ. eigenvalues --   -0.43193  -0.40872  -0.40058  -0.39261  -0.37735
  Beta  occ. eigenvalues --   -0.37278  -0.36298  -0.34887  -0.33500  -0.32701
  Beta  occ. eigenvalues --   -0.31726  -0.30776  -0.29670  -0.28751  -0.27253
  Beta  occ. eigenvalues --   -0.26847  -0.26648  -0.25403  -0.25075  -0.23590
  Beta  occ. eigenvalues --   -0.21234  -0.20920  -0.17780  -0.14354  -0.12178
  Beta virt. eigenvalues --    0.06241   0.06904   0.07433   0.07734   0.07982
  Beta virt. eigenvalues --    0.08382   0.08797   0.09092   0.09928   0.10293
  Beta virt. eigenvalues --    0.10591   0.10769   0.11288   0.11871   0.12112

 Mulliken charges and spin densities:
               1          2
     1  C    0.854680  -1.180292
     2  O   -0.215480   0.064958
     3  C   -0.987500   0.354082
     4  C   -1.152024   0.326374
     5  C   -0.222241   0.117862
     6  C    2.831420  -1.256680
     7  C    0.295958  -0.856881
     8  C   -1.083997   1.182239
     9  C    0.741121  -0.685817
    10  C    0.031540  -0.615413
    11  O   -0.085584   0.007303
    12  O   -0.194229   0.015035
    13  C    1.164719  -1.577241
    14  C   -0.672326   0.942291
    15  C    0.067344  -0.707762
    16  H   -0.595733   0.771577
    17  H   -0.234279   0.387191
    18  H   -0.377353   0.536795
    19  H    0.102427   0.079074
    20  H   -0.972268   1.130017
    21  H   -0.185597   0.385910
    22  H   -0.040298   0.265383
    23  H    0.128163   0.090606
    24  H    0.166652   0.109805
    25  H    0.358714  -0.229418
    26  H   -0.156747   0.334855
    27  H   -0.076931   0.274799
    28  H   -0.088341   0.202278
    29  H   -0.401812   0.531071
 Sum of Mulliken charges =  -1.00000   1.00000

 Dipole moment (field-independent basis, Debye):
    X=             -3.7911    Y=              4.5907    Z=             -0.6083  Tot=              5.9847
 Quadrupole moment (field-independent basis, Debye-Ang):
   XX=           -192.1169   YY=           -135.2623   ZZ=           -117.3319
   XY=              5.4715   XZ=             -3.4102   YZ=             -1.0313

 Summary of Natural Population Analysis:

                                       Natural Population
                Natural  -----------------------------------------------
    Atom  No    Charge         Core      Valence    Rydberg      Total
 -----------------------------------------------------------------------
      C    1   -0.10070      0.99960     2.09199    0.00911     3.10070
      O    2   -0.27360      0.99986     3.26383    0.00992     4.27360
      C    3    0.17292      0.99941     1.81364    0.01403     2.82708
      C    4   -0.14543      0.99947     2.13680    0.00915     3.14543
      C    5    0.16114      0.99933     1.82376    0.01577     2.83886
      C    6   -0.06285      0.99946     2.05177    0.01162     3.06285
      C    7   -0.07321      0.99952     2.06351    0.01017     3.07321
      C    8   -0.15494      0.99953     2.14614    0.00928     3.15494
      C    9   -0.12905      0.99955     2.11821    0.01129     3.12905
      C   10    0.22234      0.99959     1.75935    0.01871     2.77766
      O   11   -0.27943      0.99987     3.27216    0.00740     4.27943
      O   12   -0.36329      0.99989     3.35714    0.00625     4.36329
      C   13   -0.20627      0.99959     2.19508    0.01159     3.20627
      C   14   -0.08406      0.99956     2.07454    0.00997     3.08406
      C   15   -0.18947      0.99956     2.18324    0.00666     3.18947
      H   16    0.09379      0.00000     0.40475    0.00146     0.40621
      H   17    0.08534      0.00000     0.41289    0.00176     0.41466
      H   18    0.08754      0.00000     0.41012    0.00234     0.41246
      H   19    0.10998      0.00000     0.38858    0.00144     0.39002
      H   20    0.10409      0.00000     0.39410    0.00182     0.39591
      H   21    0.10883      0.00000     0.38918    0.00199     0.39117
      H   22    0.10954      0.00000     0.38899    0.00148     0.39046
      H   23    0.08519      0.00000     0.41352    0.00129     0.41481
      H   24    0.23201      0.00000     0.26476    0.00323     0.26799
      H   25    0.10433      0.00000     0.39316    0.00251     0.39567
      H   26    0.10414      0.00000     0.39423    0.00163     0.39586
      H   27    0.09715      0.00000     0.40157    0.00128     0.40285
      H   28    0.09249      0.00000     0.40634    0.00117     0.40751
      H   29    0.09148      0.00000     0.40697    0.00155     0.40852
 =======================================================================
   * Total *   -0.00000     14.99379    39.82032    0.18589    55.00000

 Normal termination of Gaussian 16 at Thu Dec 10 16:14:49 2020.
