 Gaussian 16, Revision A.03,

 -----------------------------------------------------------
 # opt freq B3LYP/6-31G(d) empiricaldispersion=gd3bj scf=xqc
 -----------------------------------------------------------

 -------------------------------
 CID_68625737_JID_10368_neutraal
 -------------------------------
 Symbolic Z-matrix:
 Charge =  0 Multiplicity = 1

 SCF Done:  E(RB3LYP) =  -1283.94350509     A.U. after   14 cycles
 SCF Done:  E(RB3LYP) =  -1283.93597697     A.U. after   13 cycles
 SCF Done:  E(RB3LYP) =  -1283.95120393     A.U. after   12 cycles
 SCF Done:  E(RB3LYP) =  -1283.95235381     A.U. after   12 cycles
 SCF Done:  E(RB3LYP) =  -1283.95291957     A.U. after   12 cycles
 SCF Done:  E(RB3LYP) =  -1283.95385056     A.U. after   12 cycles
 SCF Done:  E(RB3LYP) =  -1283.95398873     A.U. after   12 cycles
 SCF Done:  E(RB3LYP) =  -1283.95436118     A.U. after   12 cycles
 SCF Done:  E(RB3LYP) =  -1283.95429226     A.U. after   12 cycles
 SCF Done:  E(RB3LYP) =  -1283.95440394     A.U. after   11 cycles
 SCF Done:  E(RB3LYP) =  -1283.95449625     A.U. after    8 cycles
 SCF Done:  E(RB3LYP) =  -1283.95449679     A.U. after    8 cycles
 SCF Done:  E(RB3LYP) =  -1283.95449678     A.U. after    6 cycles
 SCF Done:  E(RB3LYP) =  -1283.95449694     A.U. after    7 cycles
 Optimization completed.
    -- Stationary point found.
 Normal termination of Gaussian 16 at Sun Dec 13 13:07:56 2020.

 --------------------------------------------------------------------
 #N Geom=AllCheck Guess=TCheck SCRF=Check GenChk RB3LYP/6-31G(d) Freq
 --------------------------------------------------------------------

 Structure from the checkpoint file:  "JID_10368.chk"
 -------------------------------
 CID_68625737_JID_10368_neutraal
 -------------------------------
 Charge =  0 Multiplicity = 1

 SCF Done:  E(RB3LYP) =  -1283.95449694     A.U. after    1 cycles

  Exact polarizability: 173.494 -24.438 184.305  11.201   6.694 168.880
 Approx polarizability: 245.488 -37.004 284.268  22.207  14.215 286.616

                      1                      2                      3
                      A                      A                      A
 Frequencies --     36.9502                60.0213                72.5875
 Red. masses --      5.2813                 4.5187                 4.3180
 Frc consts  --      0.0042                 0.0096                 0.0134
 IR Inten    --      0.8995                 0.5549                 0.9278

                      4                      5                      6
                      A                      A                      A
 Frequencies --     86.6338                96.3198               117.6672
 Red. masses --      3.9354                 4.8804                 4.1351
 Frc consts  --      0.0174                 0.0267                 0.0337
 IR Inten    --      0.7694                 0.3137                 0.5978

                      7                      8                      9
                      A                      A                      A
 Frequencies --    171.5081               185.6252               195.5857
 Red. masses --      5.4586                 2.8083                 4.1327
 Frc consts  --      0.0946                 0.0570                 0.0931
 IR Inten    --      0.9935                 0.4215                 0.7168

                     10                     11                     12
                      A                      A                      A
 Frequencies --    202.6173               233.6474               249.6840
 Red. masses --      1.5014                 2.2792                 4.8722
 Frc consts  --      0.0363                 0.0733                 0.1790
 IR Inten    --      0.8192                 0.5345                 0.6637

                     13                     14                     15
                      A                      A                      A
 Frequencies --    261.3873               272.5370               283.5816
 Red. masses --      2.6665                 1.4140                 2.7597
 Frc consts  --      0.1073                 0.0619                 0.1308
 IR Inten    --      4.4937                27.3435                17.5215

                     16                     17                     18
                      A                      A                      A
 Frequencies --    303.0334               309.5558               311.8128
 Red. masses --      3.0691                 4.8217                 2.1207
 Frc consts  --      0.1660                 0.2722                 0.1215
 IR Inten    --      3.4599                 4.8610                17.2696

                     19                     20                     21
                      A                      A                      A
 Frequencies --    323.4881               363.9751               373.3809
 Red. masses --      1.8712                 2.0546                 1.9960
 Frc consts  --      0.1154                 0.1604                 0.1640
 IR Inten    --     49.8394                 3.2131                10.2310

                     22                     23                     24
                      A                      A                      A
 Frequencies --    388.5025               410.8989               417.3168
 Red. masses --      3.9876                 2.5748                 2.4900
 Frc consts  --      0.3546                 0.2561                 0.2555
 IR Inten    --      4.4312                 9.3229                 9.0244

                     25                     26                     27
                      A                      A                      A
 Frequencies --    420.2919               445.6431               485.6760
 Red. masses --      2.2851                 2.3592                 2.6912
 Frc consts  --      0.2378                 0.2761                 0.3740
 IR Inten    --     26.3081                28.1149                 8.1679

                     28                     29                     30
                      A                      A                      A
 Frequencies --    490.0974               497.4047               517.3474
 Red. masses --      4.1078                 4.3491                 4.7481
 Frc consts  --      0.5813                 0.6340                 0.7487
 IR Inten    --     14.1564                28.6086                 4.4485

                     31                     32                     33
                      A                      A                      A
 Frequencies --    547.5200               563.8751               610.9197
 Red. masses --      3.1423                 3.3604                 5.4932
 Frc consts  --      0.5550                 0.6295                 1.2079
 IR Inten    --     13.3672                59.0448                56.3359

                     34                     35                     36
                      A                      A                      A
 Frequencies --    631.5022               649.8053               696.8119
 Red. masses --      6.4168                 4.8803                 3.1632
 Frc consts  --      1.5077                 1.2141                 0.9049
 IR Inten    --      0.1705                45.2505                 4.2145

                     37                     38                     39
                      A                      A                      A
 Frequencies --    698.9609               740.6682               760.2835
 Red. masses --      2.4220                 4.4917                 2.6212
 Frc consts  --      0.6972                 1.4518                 0.8927
 IR Inten    --     32.6698                50.1552                 1.7970

                     40                     41                     42
                      A                      A                      A
 Frequencies --    767.6369               812.9824               856.2704
 Red. masses --      1.6863                 2.3395                 1.2551
 Frc consts  --      0.5855                 0.9111                 0.5422
 IR Inten    --     21.8935                 7.1066                 1.3474

                     43                     44                     45
                      A                      A                      A
 Frequencies --    873.2574               890.2231               909.4556
 Red. masses --      3.0113                 2.2468                 2.2913
 Frc consts  --      1.3530                 1.0491                 1.1166
 IR Inten    --      4.5161                10.1911                13.2015

                     46                     47                     48
                      A                      A                      A
 Frequencies --    934.6541               945.2490               954.7208
 Red. masses --      1.3625                 2.2026                 1.9084
 Frc consts  --      0.7013                 1.1595                 1.0249
 IR Inten    --      1.3562                48.1287                35.0136

                     49                     50                     51
                      A                      A                      A
 Frequencies --    978.0635               980.5173               989.7037
 Red. masses --      2.0983                 1.3471                 1.4804
 Frc consts  --      1.1826                 0.7631                 0.8543
 IR Inten    --      2.7647                 0.6878                 4.3140

                     52                     53                     54
                      A                      A                      A
 Frequencies --   1003.0099              1020.0722              1021.8456
 Red. masses --      1.2669                 3.2131                 2.3786
 Frc consts  --      0.7509                 1.9698                 1.4634
 IR Inten    --      0.1474                 8.0275                 2.4277

                     55                     56                     57
                      A                      A                      A
 Frequencies --   1052.4132              1057.7258              1076.1898
 Red. masses --      3.0927                 2.0175                 4.4641
 Frc consts  --      2.0182                 1.3299                 3.0462
 IR Inten    --      7.3029                32.3549                83.3671

                     58                     59                     60
                      A                      A                      A
 Frequencies --   1091.3745              1097.7012              1113.0276
 Red. masses --      1.7538                 1.7038                 1.6410
 Frc consts  --      1.2308                 1.2096                 1.1978
 IR Inten    --     14.9915                12.8277                 5.3206

                     61                     62                     63
                      A                      A                      A
 Frequencies --   1119.4518              1127.0663              1138.9934
 Red. masses --      3.0458                 2.6174                 1.9855
 Frc consts  --      2.2489                 1.9589                 1.5176
 IR Inten    --     54.9292                44.8730                 4.4671

                     64                     65                     66
                      A                      A                      A
 Frequencies --   1148.5843              1172.9183              1181.1011
 Red. masses --      1.5359                 1.7787                 2.2806
 Frc consts  --      1.1938                 1.4417                 1.8745
 IR Inten    --     10.0574                32.6602               103.6609

                     67                     68                     69
                      A                      A                      A
 Frequencies --   1195.1575              1211.1712              1212.5248
 Red. masses --      1.1053                 1.3747                 1.2353
 Frc consts  --      0.9302                 1.1881                 1.0700
 IR Inten    --      0.2189                14.1648                12.8846

                     70                     71                     72
                      A                      A                      A
 Frequencies --   1264.9214              1279.7140              1305.0976
 Red. masses --      1.6824                 5.8072                 1.4172
 Frc consts  --      1.5860                 5.6033                 1.4222
 IR Inten    --      5.5606               131.5029                17.4495

                     73                     74                     75
                      A                      A                      A
 Frequencies --   1316.3219              1332.9999              1344.4041
 Red. masses --      1.1425                 1.3907                 1.5356
 Frc consts  --      1.1663                 1.4559                 1.6352
 IR Inten    --     15.6049                17.2217                 3.2947

                     76                     77                     78
                      A                      A                      A
 Frequencies --   1351.7852              1357.3397              1362.5916
 Red. masses --      1.2586                 1.6195                 1.3082
 Frc consts  --      1.3550                 1.7580                 1.4310
 IR Inten    --      3.3283                13.0820                19.6844

                     79                     80                     81
                      A                      A                      A
 Frequencies --   1364.2232              1382.4242              1393.4361
 Red. masses --      3.8856                 1.4551                 1.3573
 Frc consts  --      4.2607                 1.6385                 1.5528
 IR Inten    --      3.4423                21.9955                 8.6323

                     82                     83                     84
                      A                      A                      A
 Frequencies --   1398.6311              1409.9143              1415.7216
 Red. masses --      1.3950                 1.4334                 1.5290
 Frc consts  --      1.6078                 1.6788                 1.8055
 IR Inten    --     12.1754                22.3818                 4.1695

                     85                     86                     87
                      A                      A                      A
 Frequencies --   1435.9225              1451.2160              1454.4899
 Red. masses --      1.4082                 1.2471                 1.5763
 Frc consts  --      1.7107                 1.5474                 1.9647
 IR Inten    --     10.6791                 0.8644                68.1590

                     88                     89                     90
                      A                      A                      A
 Frequencies --   1493.5731              1508.0160              1515.0782
 Red. masses --      2.1778                 1.0717                 1.0588
 Frc consts  --      2.8624                 1.4359                 1.4319
 IR Inten    --     13.1861                11.5646                 6.8977

                     91                     92                     93
                      A                      A                      A
 Frequencies --   1518.9113              1523.5074              1528.8010
 Red. masses --      1.0923                 1.2209                 1.1403
 Frc consts  --      1.4848                 1.6696                 1.5703
 IR Inten    --      6.8393                 0.1385                 5.6525

                     94                     95                     96
                      A                      A                      A
 Frequencies --   1529.5179              1532.4734              1541.1403
 Red. masses --      1.0685                 1.4907                 1.0688
 Frc consts  --      1.4727                 2.0627                 1.4957
 IR Inten    --      7.1906                 6.1980                 0.9485

                     97                     98                     99
                      A                      A                      A
 Frequencies --   1646.7650              1648.1117              2977.4229
 Red. masses --      5.6374                 5.5532                 1.0824
 Frc consts  --      9.0072                 8.8873                 5.6535
 IR Inten    --      0.3654                 0.3325                23.3865

                    100                    101                    102
                      A                      A                      A
 Frequencies --   3028.7954              3031.2927              3046.0469
 Red. masses --      1.0659                 1.0779                 1.0822
 Frc consts  --      5.7613                 5.8357                 5.9160
 IR Inten    --     27.4351                10.7602                12.5963

                    103                    104                    105
                      A                      A                      A
 Frequencies --   3051.2155              3062.1787              3065.5627
 Red. masses --      1.0715                 1.0748                 1.0510
 Frc consts  --      5.8775                 5.9381                 5.8195
 IR Inten    --     33.9039                36.2441                51.1205

                    106                    107                    108
                      A                      A                      A
 Frequencies --   3067.5892              3068.1319              3132.4981
 Red. masses --      1.0594                 1.0755                 1.1001
 Frc consts  --      5.8734                 5.9647                 6.3604
 IR Inten    --     22.8798                34.3212                16.2662

                    109                    110                    111
                      A                      A                      A
 Frequencies --   3133.4247              3143.8150              3147.6525
 Red. masses --      1.0979                 1.0920                 1.0883
 Frc consts  --      6.3511                 6.3592                 6.3532
 IR Inten    --     20.8746                10.5551                 5.8354

                    112                    113                    114
                      A                      A                      A
 Frequencies --   3159.7098              3177.1443              3191.4965
 Red. masses --      1.0983                 1.1005                 1.0861
 Frc consts  --      6.4605                 6.5452                 6.5180
 IR Inten    --     32.9073                 4.7992                 0.6492

                    115                    116                    117
                      A                      A                      A
 Frequencies --   3202.7367              3214.2147              3242.8400
 Red. masses --      1.0904                 1.0958                 1.0919
 Frc consts  --      6.5902                 6.6700                 6.7653
 IR Inten    --     13.7496                19.9744                 3.3072

                    118                    119                    120
                      A                      A                      A
 Frequencies --   3249.9909              3733.3137              3736.0397
 Red. masses --      1.0909                 1.0657                 1.0649
 Frc consts  --      6.7890                 8.7516                 8.7579
 IR Inten    --      2.9417                18.6709                 7.4789

 - Thermochemistry -
 -------------------
 Temperature   298.150 Kelvin.  Pressure   1.00000 Atm.
 Atom     1 has atomic number  6 and mass  12.00000

 Molecular mass:   298.12388 amu.
 Principal axes and moments of inertia in atomic units:
                           1         2         3
     Eigenvalues --  4798.898695241.619036851.72528
           X            0.98684  -0.16141   0.00956
           Y            0.16066   0.98550   0.05460
           Z           -0.01823  -0.05235   0.99846
 This molecule is an asymmetric top.
 Rotational symmetry number  1.
 Warning -- assumption of classical behavior for rotation
           may cause significant error
 Rotational temperatures (Kelvin)      0.01805     0.01652     0.01264
 Rotational constants (GHZ):           0.37607     0.34431     0.26340
 Zero-point vibrational energy     938400.7 (Joules/Mol)
                                  224.28316 (Kcal/Mol)
 Warning -- explicit consideration of  33 degrees of freedom as
           vibrations may cause significant error
 Vibrational temperatures:     53.16    86.36   104.44   124.65   138.58
          (Kelvin)            169.30   246.76   267.07   281.40   291.52
                              336.17   359.24   376.08   392.12   408.01
                              436.00   445.38   448.63   465.43   523.68
                              537.21   558.97   591.19   600.43   604.71
                              641.18   698.78   705.14   715.65   744.35
                              787.76   811.29   878.98   908.59   934.92
                             1002.56  1005.65  1065.66  1093.88  1104.46
                             1169.70  1231.98  1256.42  1280.83  1308.50
                             1344.76  1360.00  1373.63  1407.22  1410.75
                             1423.96  1443.11  1467.66  1470.21  1514.19
                             1521.83  1548.40  1570.24  1579.35  1601.40
                             1610.64  1621.60  1638.76  1652.56  1687.57
                             1699.34  1719.57  1742.61  1744.55  1819.94
                             1841.22  1877.74  1893.89  1917.89  1934.30
                             1944.92  1952.91  1960.47  1962.81  1989.00
                             2004.84  2012.32  2028.55  2036.91  2065.97
                             2087.98  2092.69  2148.92  2169.70  2179.86
                             2185.37  2191.99  2199.60  2200.64  2204.89
                             2217.36  2369.33  2371.27  4283.85  4357.76
                             4361.35  4382.58  4390.02  4405.79  4410.66
                             4413.58  4414.36  4506.97  4508.30  4523.25
                             4528.77  4546.12  4571.20  4591.85  4608.02
                             4624.54  4665.72  4676.01  5371.41  5375.33

 Zero-point correction=                           0.357418 (Hartree/Particle)
 Thermal correction to Energy=                    0.376786
 Thermal correction to Enthalpy=                  0.377731
 Thermal correction to Gibbs Free Energy=         0.311416
 Sum of electronic and zero-point Energies=          -1283.597079
 Sum of electronic and thermal Energies=             -1283.577711
 Sum of electronic and thermal Enthalpies=           -1283.576766
 Sum of electronic and thermal Free Energies=        -1283.643081

                     E (Thermal)             CV                S
                      KCal/Mol        Cal/Mol-Kelvin    Cal/Mol-Kelvin
 Total                  236.437             77.779            139.571
 Electronic               0.000              0.000              0.000
 Translational            0.889              2.981             42.974
 Rotational               0.889              2.981             33.510
 Vibrational            234.660             71.818             63.087
 Vibration     1          0.594              1.982              5.416
 Vibration     2          0.597              1.973              4.456
 Vibration     3          0.599              1.967              4.082
 Vibration     4          0.601              1.959              3.735
 Vibration     5          0.603              1.952              3.527
 Vibration     6          0.608              1.935              3.138
 Vibration     7          0.626              1.878              2.419
 Vibration     8          0.632              1.859              2.271
 Vibration     9          0.636              1.846              2.174
 Vibration    10          0.639              1.836              2.109
 Vibration    11          0.654              1.789              1.851
 Vibration    12          0.662              1.763              1.733
 Vibration    13          0.669              1.743              1.652
 Vibration    14          0.676              1.724              1.580
 Vibration    15          0.682              1.704              1.512
 Vibration    16          0.694              1.668              1.400
 Vibration    17          0.699              1.656              1.365
 Vibration    18          0.700              1.651              1.353
 Vibration    19          0.708              1.628              1.292
 Vibration    20          0.738              1.546              1.105
 Vibration    21          0.745              1.527              1.066
 Vibration    22          0.757              1.495              1.006
 Vibration    23          0.775              1.447              0.923
 Vibration    24          0.780              1.433              0.901
 Vibration    25          0.783              1.426              0.891
 Vibration    26          0.805              1.371              0.809
 Vibration    27          0.842              1.282              0.695
 Vibration    28          0.846              1.272              0.683
 Vibration    29          0.853              1.256              0.665
 Vibration    30          0.872              1.212              0.616
 Vibration    31          0.903              1.145              0.549
 Vibration    32          0.920              1.109              0.516
 Vibration    33          0.970              1.009              0.431

 Optimization completed.
    -- Stationary point found.
 Normal termination of Gaussian 16 at Sun Dec 13 13:37:33 2020.

 ----------------------------------------------------------------------
 # B3LYP/6-311++G(d,p) empiricaldispersion=gd3bj scf=xqc pop=npa geom=c
 heck
 ----------------------------------------------------------------------

 ---------------------------------------
 CID_68625737_JID_10368_Energie_neutraal
 ---------------------------------------
 Structure from the checkpoint file:  "JID_10368.chk"
 Charge =  0 Multiplicity = 1

 SCF Done:  E(RB3LYP) =  -1284.24301713     A.U. after   17 cycles
 Normal termination of Gaussian 16 at Sun Dec 13 13:52:36 2020.

 ----------------------------------------------------------------------
 # B3LYP/6-311++G(d,p) empiricaldispersion=gd3bj scf=xqc pop=npa geom=c
 heck
 ----------------------------------------------------------------------

 -------------------------------------
 CID_68625737_JID_10368_Energie_kation
 -------------------------------------
 Structure from the checkpoint file:  "JID_10368.chk"
 Charge =  1 Multiplicity = 2

 SCF Done:  E(UB3LYP) =  -1283.91210966     A.U. after   33 cycles
 SCF Done:  E(UB3LYP) =  -1283.91210966     a.u. after    1 cycles
 Normal termination of Gaussian 16 at Sun Dec 13 14:34:20 2020.
 Gaussian 16:  ES64L-G16RevA.03 25-Dec-2016

 ----------------------------------------------------------------------
 # B3LYP/6-311++G(d,p) empiricaldispersion=gd3bj scf=xqc pop=npa geom=c
 heck
 ----------------------------------------------------------------------

 ------------------------------------
 CID_68625737_JID_10368_Energie_anion
 ------------------------------------
 Structure from the checkpoint file:  "JID_10368.chk"
 Charge = -1 Multiplicity = 2

                         Standard orientation:
 ---------------------------------------------------------------------
 Center     Atomic      Atomic             Coordinates (Angstroms)
 Number     Number       Type             X           Y           Z
 ---------------------------------------------------------------------
      1          6           0        0.500913   -3.163578   -1.394573
      2          6           0        1.365319   -2.038773   -0.817691
      3          6           0        1.546450   -0.850303   -1.770684
      4          6           0        2.642286    0.098443   -1.265028
      5          6           0        2.395056    0.647160    0.157985
      6          6           0        1.993994   -0.497768    1.116902
      7          6           0        1.021722   -1.579007    0.612899
      8         16           0       -0.758147   -1.335247    1.117494
      9          8           0       -1.406290   -2.640110    0.887143
     10          8           0       -0.675411   -0.778179    2.485068
     11          6           0       -1.696695   -0.131883    0.156789
     12          6           0       -2.155075    1.004608    0.821188
     13          6           0       -2.926125    1.934868    0.124334
     14          6           0       -3.233372    1.721157   -1.221718
     15          6           0       -2.797488    0.559986   -1.863530
     16          6           0       -2.039695   -0.381403   -1.169649
     17          6           0        1.508661    1.918413    0.165985
     18          6           0        1.081415    2.361562    1.561404
     19          8           0        2.244169    3.021164   -0.355963
     20          8           0        0.399967    1.659478   -0.670880
     21          1           0       -0.512129   -2.839362   -1.639239
     22          1           0        0.964682   -3.537963   -2.314123
     23          1           0        0.403373   -3.993428   -0.689390
     24          1           0        2.369454   -2.474108   -0.681889
     25          1           0        1.830554   -1.234288   -2.758805
     26          1           0        0.607960   -0.305256   -1.890765
     27          1           0        2.780445    0.921751   -1.976527
     28          1           0        3.595299   -0.448599   -1.255898
     29          1           0        3.352446    1.021679    0.538507
     30          1           0        1.649024   -0.120897    2.080680
     31          1           0        2.919503   -1.048728    1.331898
     32          1           0        1.147014   -2.448663    1.272109
     33          1           0       -1.904152    1.144427    1.865591
     34          1           0       -3.290806    2.822167    0.633832
     35          1           0       -3.827436    2.450110   -1.765283
     36          1           0       -3.056031    0.381701   -2.902944
     37          1           0       -1.721786   -1.293209   -1.658359
     38          1           0        1.957912    2.521792    2.196044
     39          1           0        0.548435    3.315496    1.483159
     40          1           0        0.431117    1.623680    2.032443
     41          1           0        2.399890    2.825384   -1.294048
     42          1           0       -0.258103    2.360549   -0.537525
 ---------------------------------------------------------------------

 SCF Done:  E(UB3LYP) =  -1284.24291464     A.U. after   33 cycles
 SCF Done:  E(UB3LYP) =  -1284.24291464     a.u. after    1 cycles

 The electronic state is 2-A.
 Alpha  occ. eigenvalues --  -88.91323 -19.02758 -19.02131 -18.98701 -18.98374
 Alpha  occ. eigenvalues --  -10.17614 -10.10155 -10.08254 -10.07830 -10.07555
 Alpha  occ. eigenvalues --  -10.06817 -10.06680 -10.06298 -10.06078 -10.05986
 Alpha  occ. eigenvalues --  -10.05917 -10.05789 -10.05711 -10.05609 -10.04828
 Alpha  occ. eigenvalues --   -7.97754  -5.94048  -5.93907  -5.93846  -0.97589
 Alpha  occ. eigenvalues --   -0.96763  -0.89539  -0.87444  -0.74614  -0.74369
 Alpha  occ. eigenvalues --   -0.68513  -0.65997  -0.64552  -0.64088  -0.63495
 Alpha  occ. eigenvalues --   -0.59033  -0.55864  -0.52754  -0.51807  -0.49684
 Alpha  occ. eigenvalues --   -0.48797  -0.46769  -0.45487  -0.43982  -0.40839
 Alpha  occ. eigenvalues --   -0.38994  -0.37168  -0.36747  -0.35767  -0.35022
 Alpha  occ. eigenvalues --   -0.34438  -0.34257  -0.33254  -0.32879  -0.32316
 Alpha  occ. eigenvalues --   -0.31961  -0.31316  -0.31130  -0.29610  -0.28905
 Alpha  occ. eigenvalues --   -0.28345  -0.28073  -0.27209  -0.26478  -0.26066
 Alpha  occ. eigenvalues --   -0.25254  -0.25054  -0.24013  -0.23326  -0.21823
 Alpha  occ. eigenvalues --   -0.21593  -0.20452  -0.20330  -0.19785  -0.19469
 Alpha  occ. eigenvalues --   -0.18468  -0.18065  -0.16090  -0.14631  -0.14372
 Alpha  occ. eigenvalues --    0.04235
 Alpha virt. eigenvalues --    0.05880   0.07355   0.07727   0.07912   0.09078
 Alpha virt. eigenvalues --    0.09269   0.09728   0.09872   0.10525   0.10999
 Alpha virt. eigenvalues --    0.11165   0.11633   0.12527   0.13013   0.13402

  Beta  occ. eigenvalues --  -88.91311 -19.02750 -19.02121 -18.98684 -18.98341
  Beta  occ. eigenvalues --  -10.17614 -10.10102 -10.08252 -10.07825 -10.07551
  Beta  occ. eigenvalues --  -10.06792 -10.06413 -10.06290 -10.06124 -10.05954
  Beta  occ. eigenvalues --  -10.05899 -10.05704 -10.05658 -10.05594 -10.04495
  Beta  occ. eigenvalues --   -7.97740  -5.94040  -5.93880  -5.93819  -0.97491
  Beta  occ. eigenvalues --   -0.96746  -0.89517  -0.87384  -0.74545  -0.74045
  Beta  occ. eigenvalues --   -0.68485  -0.65902  -0.64133  -0.63982  -0.63250
  Beta  occ. eigenvalues --   -0.58990  -0.55676  -0.52659  -0.51552  -0.49566
  Beta  occ. eigenvalues --   -0.48700  -0.46592  -0.45450  -0.43852  -0.40744
  Beta  occ. eigenvalues --   -0.38932  -0.37055  -0.36652  -0.35702  -0.34915
  Beta  occ. eigenvalues --   -0.34315  -0.34129  -0.33183  -0.32801  -0.32283
  Beta  occ. eigenvalues --   -0.31876  -0.31291  -0.31082  -0.29562  -0.28771
  Beta  occ. eigenvalues --   -0.28255  -0.28044  -0.27148  -0.26439  -0.25826
  Beta  occ. eigenvalues --   -0.25083  -0.24645  -0.23922  -0.23233  -0.21773
  Beta  occ. eigenvalues --   -0.21548  -0.20389  -0.20264  -0.19736  -0.19382
  Beta  occ. eigenvalues --   -0.18318  -0.17969  -0.15906  -0.13916  -0.12947
  Beta virt. eigenvalues --    0.06454   0.07460   0.07912   0.08114   0.08855
  Beta virt. eigenvalues --    0.09166   0.09347   0.09871   0.10043   0.10543
  Beta virt. eigenvalues --    0.11026   0.11263   0.11744   0.12600   0.13018

 Mulliken charges and spin densities:
               1          2
     1  C   -0.288391  -0.420574
     2  C    0.181187  -0.009852
     3  C   -0.212869   0.036018
     4  C   -0.075023  -0.555514
     5  C    0.523436   0.112889
     6  C   -0.942253  -0.023641
     7  C   -0.230160  -0.149225
     8  S    0.389640  -0.219208
     9  O   -0.023439   0.008897
    10  O   -0.153551   0.014855
    11  C    0.222908   0.088091
    12  C   -0.158380   0.178673
    13  C   -0.514369   0.073369
    14  C   -0.321018   0.189746
    15  C   -0.467001   0.005092
    16  C   -0.195502   0.148976
    17  C   -0.246410  -0.425579
    18  C   -0.009192  -0.332040
    19  O   -0.152155   0.005434
    20  O   -0.016586   0.030839
    21  H    0.203974  -0.021443
    22  H   -0.024704   0.145384
    23  H    0.128575   0.030302
    24  H   -0.055384   0.247672
    25  H   -0.201847   0.386810
    26  H    0.172860   0.036799
    27  H   -0.159918   0.264773
    28  H   -0.338648   0.488625
    29  H    0.087890   0.174850
    30  H    0.142853   0.057639
    31  H   -0.162250   0.328877
    32  H    0.354485  -0.059672
    33  H    0.199401   0.004016
    34  H    0.135801   0.007227
    35  H    0.120949  -0.018346
    36  H    0.129847   0.022720
    37  H    0.108608  -0.010955
    38  H    0.113103   0.056924
    39  H    0.139774   0.014249
    40  H    0.173109  -0.010969
    41  H    0.178353   0.087689
    42  H    0.242300   0.009584
 Sum of Mulliken charges =  -1.00000   1.00000

 Dipole moment (field-independent basis, Debye):
    X=             -0.1243    Y=              2.2773    Z=             -0.5274  Tot=              2.3409
 Quadrupole moment (field-independent basis, Debye-Ang):
   XX=           -182.3368   YY=           -164.3217   ZZ=           -158.3864
   XY=             -6.6968   XZ=             10.0336   YZ=              3.2384

 Summary of Natural Population Analysis:

                                       Natural Population
                Natural  -----------------------------------------------
    Atom  No    Charge         Core      Valence    Rydberg      Total
 -----------------------------------------------------------------------
      C    1   -0.28013      0.99964     2.27424    0.00626     3.28013
      C    2   -0.11738      0.99956     2.10681    0.01101     3.11738
      C    3   -0.19632      0.99959     2.18651    0.01021     3.19632
      C    4   -0.18595      0.99961     2.17571    0.01063     3.18595
      C    5   -0.12370      0.99952     2.11073    0.01345     3.12370
      C    6   -0.20134      0.99957     2.19077    0.01100     3.20134
      C    7   -0.18028      0.99948     2.16419    0.01661     3.18028
      S    8    1.03525      4.99910     1.87372    0.09193     6.96475
      O    9   -0.47534      0.99991     3.47010    0.00533     4.47534
      O   10   -0.48619      0.99991     3.48021    0.00607     4.48619
      C   11   -0.08477      0.99934     2.06919    0.01624     3.08477
      C   12   -0.09106      0.99950     2.08218    0.00937     3.09106
      C   13   -0.11779      0.99957     2.10902    0.00920     3.11779
      C   14   -0.04287      0.99957     2.03447    0.00883     3.04287
      C   15   -0.11454      0.99957     2.10637    0.00859     3.11454
      C   16   -0.06967      0.99949     2.06044    0.00973     3.06967
      C   17    0.28105      0.99955     1.69944    0.01996     2.71895
      C   18   -0.30654      0.99960     2.30130    0.00564     3.30654
      O   19   -0.38211      0.99988     3.37622    0.00600     4.38211
      O   20   -0.37762      0.99988     3.36920    0.00854     4.37762
      H   21    0.10053      0.00000     0.39853    0.00094     0.39947
      H   22    0.09493      0.00000     0.40426    0.00081     0.40507
      H   23    0.10422      0.00000     0.39497    0.00082     0.39578
      H   24    0.09587      0.00000     0.40204    0.00209     0.40413
      H   25    0.09662      0.00000     0.40232    0.00105     0.40338
      H   26    0.11513      0.00000     0.38296    0.00190     0.38487
      H   27    0.09421      0.00000     0.40440    0.00139     0.40579
      H   28    0.09829      0.00000     0.40008    0.00163     0.40171
      H   29    0.10634      0.00000     0.39255    0.00112     0.39366
      H   30    0.11780      0.00000     0.38098    0.00122     0.38220
      H   31    0.10302      0.00000     0.39578    0.00119     0.39698
      H   32    0.11157      0.00000     0.38682    0.00161     0.38843
      H   33    0.11263      0.00000     0.38647    0.00090     0.38737
      H   34    0.09495      0.00000     0.40408    0.00097     0.40505
      H   35    0.08948      0.00000     0.40955    0.00097     0.41052
      H   36    0.09524      0.00000     0.40384    0.00091     0.40476
      H   37    0.09997      0.00000     0.39821    0.00182     0.40003
      H   38    0.10323      0.00000     0.39601    0.00076     0.39677
      H   39    0.10190      0.00000     0.39708    0.00102     0.39810
      H   40    0.11409      0.00000     0.38492    0.00099     0.38591
      H   41    0.23067      0.00000     0.26659    0.00274     0.26933
      H   42    0.23662      0.00000     0.26002    0.00336     0.26338
 =======================================================================
   * Total *   -0.00000     23.99186    55.69331    0.31483    80.00000

 Normal termination of Gaussian 16 at Sun Dec 13 15:13:47 2020.
