 Gaussian 16, Revision A.03,

 -----------------------------------------------------------
 # opt freq B3LYP/6-31G(d) empiricaldispersion=gd3bj scf=xqc
 -----------------------------------------------------------

 ------------------------------
 CID_88904799_JID_5315_neutraal
 ------------------------------
 Symbolic Z-matrix:
 Charge =  0 Multiplicity = 1

 SCF Done:  E(RB3LYP) =  -1165.16378258     A.U. after   14 cycles
 SCF Done:  E(RB3LYP) =  -1165.16877950     A.U. after   12 cycles
 SCF Done:  E(RB3LYP) =  -1165.16982645     A.U. after   12 cycles
 SCF Done:  E(RB3LYP) =  -1165.17004632     A.U. after   12 cycles
 SCF Done:  E(RB3LYP) =  -1165.17043405     A.U. after   11 cycles
 SCF Done:  E(RB3LYP) =  -1165.17080685     A.U. after   11 cycles
 SCF Done:  E(RB3LYP) =  -1165.17117438     A.U. after   12 cycles
 SCF Done:  E(RB3LYP) =  -1165.17157851     A.U. after   11 cycles
 SCF Done:  E(RB3LYP) =  -1165.17193172     A.U. after   12 cycles
 SCF Done:  E(RB3LYP) =  -1165.17198155     A.U. after   11 cycles
 SCF Done:  E(RB3LYP) =  -1165.17639773     A.U. after   10 cycles
 SCF Done:  E(RB3LYP) =  -1165.17640152     A.U. after    9 cycles
 SCF Done:  E(RB3LYP) =  -1165.17640214     A.U. after    8 cycles
 SCF Done:  E(RB3LYP) =  -1165.17640243     A.U. after    8 cycles
 SCF Done:  E(RB3LYP) =  -1165.17640248     A.U. after    6 cycles
 SCF Done:  E(RB3LYP) =  -1165.17640251     A.U. after    6 cycles
 Optimization completed.
    -- Stationary point found.
 Normal termination of Gaussian 16 at Thu Dec 10 16:05:47 2020.

 --------------------------------------------------------------------
 #N Geom=AllCheck Guess=TCheck SCRF=Check GenChk RB3LYP/6-31G(d) Freq
 --------------------------------------------------------------------

 Structure from the checkpoint file:  "JID_5315.chk"
 ------------------------------
 CID_88904799_JID_5315_neutraal
 ------------------------------
 Charge =  0 Multiplicity = 1

 SCF Done:  E(RB3LYP) =  -1165.17640251     A.U. after    1 cycles

  Exact polarizability: 138.532   4.396 111.741  -2.013   0.626 109.239
 Approx polarizability: 172.044  -0.698 165.820  -6.341   1.295 163.616

                      1                      2                      3
                      A                      A                      A
 Frequencies --     35.6931                45.9826                59.4876
 Red. masses --      4.5656                 6.1866                 4.6192
 Frc consts  --      0.0034                 0.0077                 0.0096
 IR Inten    --      1.3002                 1.0009                 2.2592

                      4                      5                      6
                      A                      A                      A
 Frequencies --     73.4484               106.5858               121.2409
 Red. masses --      4.8927                 1.9416                 2.0780
 Frc consts  --      0.0156                 0.0130                 0.0180
 IR Inten    --      1.6963                 1.5232                 2.6544

                      7                      8                      9
                      A                      A                      A
 Frequencies --    128.7262               135.4762               155.4973
 Red. masses --      3.6049                 3.4811                 1.4346
 Frc consts  --      0.0352                 0.0376                 0.0204
 IR Inten    --      0.3927                 1.3070                 0.6743

                     10                     11                     12
                      A                      A                      A
 Frequencies --    168.2726               191.3454               216.1251
 Red. masses --      3.1865                 1.9482                 1.1430
 Frc consts  --      0.0532                 0.0420                 0.0315
 IR Inten    --      8.8032                 2.4108                 2.1809

                     13                     14                     15
                      A                      A                      A
 Frequencies --    223.6575               239.4236               278.0195
 Red. masses --      2.3455                 3.5632                 3.7735
 Frc consts  --      0.0691                 0.1203                 0.1718
 IR Inten    --      8.1055                 7.0963                 3.6673

                     16                     17                     18
                      A                      A                      A
 Frequencies --    285.1696               307.7909               319.3219
 Red. masses --      3.0536                 3.6900                 3.8152
 Frc consts  --      0.1463                 0.2060                 0.2292
 IR Inten    --      3.1895                 5.1047                 2.7030

                     19                     20                     21
                      A                      A                      A
 Frequencies --    326.6275               360.0612               396.5794
 Red. masses --      3.2074                 2.4902                 5.5972
 Frc consts  --      0.2016                 0.1902                 0.5187
 IR Inten    --      0.9919                 2.7666                 6.4489

                     22                     23                     24
                      A                      A                      A
 Frequencies --    426.8127               464.7224               484.8361
 Red. masses --      5.1048                 3.7294                 4.0994
 Frc consts  --      0.5479                 0.4745                 0.5677
 IR Inten    --      5.6213                 4.2784               140.3416

                     25                     26                     27
                      A                      A                      A
 Frequencies --    504.2876               532.5111               586.4108
 Red. masses --      4.9082                 2.8279                 1.2366
 Frc consts  --      0.7354                 0.4725                 0.2505
 IR Inten    --     22.0847                23.9931               131.0912

                     28                     29                     30
                      A                      A                      A
 Frequencies --    647.6898               706.8075               733.2439
 Red. masses --      3.9888                 4.2260                 3.8050
 Frc consts  --      0.9859                 1.2439                 1.2053
 IR Inten    --      4.9981                16.7701                 4.0469

                     31                     32                     33
                      A                      A                      A
 Frequencies --    763.6301               801.8833               816.7251
 Red. masses --      2.7129                 5.1605                 1.9588
 Frc consts  --      0.9321                 1.9551                 0.7698
 IR Inten    --     30.3946               165.5864                13.3927

                     34                     35                     36
                      A                      A                      A
 Frequencies --    897.8028               938.9648               959.8482
 Red. masses --      2.8080                 3.7820                 3.9592
 Frc consts  --      1.3335                 1.9646                 2.1491
 IR Inten    --      7.9167               112.7282                80.2559

                     37                     38                     39
                      A                      A                      A
 Frequencies --    995.4189              1003.3236              1006.5556
 Red. masses --      2.2702                 1.5982                 1.3899
 Frc consts  --      1.3253                 0.9479                 0.8297
 IR Inten    --     39.5390                 9.9929                31.8936

                     40                     41                     42
                      A                      A                      A
 Frequencies --   1024.7808              1059.7039              1096.0280
 Red. masses --      3.1606                 1.9981                 3.2422
 Frc consts  --      1.9556                 1.3220                 2.2948
 IR Inten    --    117.6913                13.7801                49.4275

                     43                     44                     45
                      A                      A                      A
 Frequencies --   1108.8993              1120.4169              1144.6315
 Red. masses --      5.3038                 2.1649                 7.1404
 Frc consts  --      3.8426                 1.6012                 5.5120
 IR Inten    --    216.5573                30.2826               131.6361

                     46                     47                     48
                      A                      A                      A
 Frequencies --   1163.7228              1186.8830              1189.3442
 Red. masses --      3.5760                 1.3074                 2.0321
 Frc consts  --      2.8533                 1.0851                 1.6936
 IR Inten    --      1.7858                 5.6178               101.5664

                     49                     50                     51
                      A                      A                      A
 Frequencies --   1194.4404              1217.4471              1228.7993
 Red. masses --      1.4874                 1.3517                 1.5298
 Frc consts  --      1.2503                 1.1804                 1.3610
 IR Inten    --     57.4896                23.2905                36.9867

                     52                     53                     54
                      A                      A                      A
 Frequencies --   1250.2605              1262.6776              1294.8713
 Red. masses --      1.3307                 1.2446                 1.3352
 Frc consts  --      1.2255                 1.1692                 1.3190
 IR Inten    --     37.6457                10.9045                53.2741

                     55                     56                     57
                      A                      A                      A
 Frequencies --   1348.2094              1357.3581              1366.7130
 Red. masses --      1.2548                 4.7916                 1.6957
 Frc consts  --      1.3438                 5.2013                 1.8662
 IR Inten    --     33.9375               172.6890                16.7645

                     58                     59                     60
                      A                      A                      A
 Frequencies --   1385.0756              1402.2436              1411.8395
 Red. masses --      1.2265                 1.2303                 1.2384
 Frc consts  --      1.3863                 1.4253                 1.4544
 IR Inten    --     13.6938                23.5822                 3.4619

                     61                     62                     63
                      A                      A                      A
 Frequencies --   1425.4624              1431.6072              1439.7201
 Red. masses --      1.1956                 1.3708                 1.3403
 Frc consts  --      1.4314                 1.6552                 1.6369
 IR Inten    --     16.8862                 5.7199                 7.4721

                     64                     65                     66
                      A                      A                      A
 Frequencies --   1446.0559              1485.9646              1489.0001
 Red. masses --      1.3256                 1.0496                 1.0548
 Frc consts  --      1.6332                 1.3656                 1.3779
 IR Inten    --     13.3900                 4.5354                 3.0554

                     67                     68                     69
                      A                      A                      A
 Frequencies --   1491.3576              1500.1626              1504.3055
 Red. masses --      1.1350                 1.0952                 1.1357
 Frc consts  --      1.4874                 1.4522                 1.5142
 IR Inten    --      1.6328                 1.6483                 1.6962

                     70                     71                     72
                      A                      A                      A
 Frequencies --   1513.0608              1513.9701              1530.5113
 Red. masses --      1.0967                 1.0583                 1.0679
 Frc consts  --      1.4793                 1.4293                 1.4739
 IR Inten    --      5.0971                 9.3652                 5.3126

                     73                     74                     75
                      A                      A                      A
 Frequencies --   1537.1518              1547.7186              1558.6617
 Red. masses --      1.0505                 1.0522                 1.0804
 Frc consts  --      1.4624                 1.4850                 1.5465
 IR Inten    --      8.3524                 9.1084                10.5483

                     76                     77                     78
                      A                      A                      A
 Frequencies --   3030.2563              3040.3502              3047.4644
 Red. masses --      1.0365                 1.0397                 1.0636
 Frc consts  --      5.6077                 5.6624                 5.8200
 IR Inten    --     44.8233                50.2901                 1.9465

                     79                     80                     81
                      A                      A                      A
 Frequencies --   3049.1129              3055.8389              3064.3924
 Red. masses --      1.0813                 1.0673                 1.0711
 Frc consts  --      5.9232                 5.8721                 5.9262
 IR Inten    --     20.2659                31.6561                76.6430

                     82                     83                     84
                      A                      A                      A
 Frequencies --   3074.2492              3089.8876              3095.2668
 Red. masses --      1.0820                 1.0294                 1.1019
 Frc consts  --      6.0250                 5.7908                 6.2197
 IR Inten    --     39.7876                 0.5264                18.1033

                     85                     86                     87
                      A                      A                      A
 Frequencies --   3096.3998              3102.9206              3115.7335
 Red. masses --      1.0995                 1.1036                 1.0952
 Frc consts  --      6.2107                 6.2603                 6.2640
 IR Inten    --     27.8228                46.8942                32.3368

                     88                     89                     90
                      A                      A                      A
 Frequencies --   3140.7241              3149.9642              3184.0402
 Red. masses --      1.1023                 1.1026                 1.0953
 Frc consts  --      6.4065                 6.4457                 6.5423
 IR Inten    --     35.9573                22.5213                 1.8008

                     91                     92                     93
                      A                      A                      A
 Frequencies --   3188.2609              3198.0671              3706.8818
 Red. masses --      1.1068                 1.1078                 1.0666
 Frc consts  --      6.6288                 6.6757                 8.6354
 IR Inten    --      0.8678                 0.2750               163.4453

 - Thermochemistry -
 -------------------
 Temperature   298.150 Kelvin.  Pressure   1.00000 Atm.
 Atom     1 has atomic number  6 and mass  12.00000

 Molecular mass:   242.08241 amu.
 Principal axes and moments of inertia in atomic units:
                           1         2         3
     Eigenvalues --  1746.051566099.762406293.67389
           X            0.99998   0.00436   0.00423
           Y           -0.00444   0.99982   0.01842
           Z           -0.00415  -0.01844   0.99982
 This molecule is an asymmetric top.
 Rotational symmetry number  1.
 Warning -- assumption of classical behavior for rotation
           may cause significant error
 Rotational temperatures (Kelvin)      0.04961     0.01420     0.01376
 Rotational constants (GHZ):           1.03361     0.29587     0.28675
 Zero-point vibrational energy     730349.3 (Joules/Mol)
                                  174.55768 (Kcal/Mol)
 Warning -- explicit consideration of  27 degrees of freedom as
           vibrations may cause significant error
 Vibrational temperatures:     51.35    66.16    85.59   105.68   153.35
          (Kelvin)            174.44   185.21   194.92   223.73   242.11
                              275.30   310.96   321.79   344.48   400.01
                              410.30   442.84   459.43   469.94   518.05
                              570.59   614.09   668.63   697.57   725.56
                              766.16   843.71   931.88  1016.94  1054.97
                             1098.69  1153.73  1175.09  1291.74  1350.96
                             1381.01  1432.19  1443.56  1448.21  1474.43
                             1524.68  1576.94  1595.46  1612.03  1646.87
                             1674.34  1707.66  1711.20  1718.53  1751.63
                             1767.97  1798.85  1816.71  1863.03  1939.77
                             1952.94  1966.40  1992.81  2017.52  2031.32
                             2050.92  2059.76  2071.44  2080.55  2137.97
                             2142.34  2145.73  2158.40  2164.36  2176.96
                             2178.27  2202.06  2211.62  2226.82  2242.57
                             4359.86  4374.39  4384.62  4386.99  4396.67
                             4408.98  4423.16  4445.66  4453.40  4455.03
                             4464.41  4482.85  4518.80  4532.10  4581.12
                             4587.20  4601.31  5333.38

 Zero-point correction=                           0.278175 (Hartree/Particle)
 Thermal correction to Energy=                    0.295836
 Thermal correction to Enthalpy=                  0.296780
 Thermal correction to Gibbs Free Energy=         0.232367
 Sum of electronic and zero-point Energies=          -1164.898227
 Sum of electronic and thermal Energies=             -1164.880566
 Sum of electronic and thermal Enthalpies=           -1164.879622
 Sum of electronic and thermal Free Energies=        -1164.944036

                     E (Thermal)             CV                S
                      KCal/Mol        Cal/Mol-Kelvin    Cal/Mol-Kelvin
 Total                  185.640             63.792            135.569
 Electronic               0.000              0.000              0.000
 Translational            0.889              2.981             42.353
 Rotational               0.889              2.981             32.572
 Vibrational            183.863             57.831             60.644
 Vibration     1          0.594              1.982              5.485
 Vibration     2          0.595              1.979              4.983
 Vibration     3          0.597              1.974              4.474
 Vibration     4          0.599              1.967              4.059
 Vibration     5          0.605              1.944              3.330
 Vibration     6          0.609              1.931              3.080
 Vibration     7          0.611              1.925              2.965
 Vibration     8          0.613              1.918              2.867
 Vibration     9          0.620              1.897              2.604
 Vibration    10          0.625              1.882              2.455
 Vibration    11          0.634              1.852              2.215
 Vibration    12          0.645              1.816              1.991
 Vibration    13          0.649              1.805              1.929
 Vibration    14          0.657              1.780              1.807
 Vibration    15          0.679              1.714              1.546
 Vibration    16          0.683              1.701              1.502
 Vibration    17          0.698              1.659              1.374
 Vibration    18          0.705              1.637              1.314
 Vibration    19          0.710              1.622              1.277
 Vibration    20          0.735              1.555              1.122
 Vibration    21          0.763              1.477              0.975
 Vibration    22          0.788              1.412              0.869
 Vibration    23          0.822              1.328              0.752
 Vibration    24          0.841              1.284              0.697
 Vibration    25          0.860              1.241              0.647
 Vibration    26          0.887              1.178              0.582
 Vibration    27          0.943              1.061              0.474

 Optimization completed.
    -- Stationary point found.
 Normal termination of Gaussian 16 at Thu Dec 10 16:18:25 2020.

 ----------------------------------------------------------------------
 # B3LYP/6-311++G(d,p) empiricaldispersion=gd3bj scf=xqc pop=npa geom=c
 heck
 ----------------------------------------------------------------------

 --------------------------------------
 CID_88904799_JID_5315_Energie_neutraal
 --------------------------------------
 Structure from the checkpoint file:  "JID_5315.chk"
 Charge =  0 Multiplicity = 1

 SCF Done:  E(RB3LYP) =  -1165.44132740     A.U. after   15 cycles
 Normal termination of Gaussian 16 at Thu Dec 10 16:24:47 2020.

 ----------------------------------------------------------------------
 # B3LYP/6-311++G(d,p) empiricaldispersion=gd3bj scf=xqc pop=npa geom=c
 heck
 ----------------------------------------------------------------------

 ------------------------------------
 CID_88904799_JID_5315_Energie_kation
 ------------------------------------
 Structure from the checkpoint file:  "JID_5315.chk"
 Charge =  1 Multiplicity = 2

 SCF Done:  E(UB3LYP) =  -1165.10703415     A.U. after   25 cycles
 Normal termination of Gaussian 16 at Thu Dec 10 16:39:29 2020.
 Gaussian 16:  ES64L-G16RevA.03 25-Dec-2016

 ----------------------------------------------------------------------
 # B3LYP/6-311++G(d,p) empiricaldispersion=gd3bj scf=xqc pop=npa geom=c
 heck
 ----------------------------------------------------------------------

 -----------------------------------
 CID_88904799_JID_5315_Energie_anion
 -----------------------------------
 Structure from the checkpoint file:  "JID_5315.chk"
 Charge = -1 Multiplicity = 2

                         Standard orientation:
 ---------------------------------------------------------------------
 Center     Atomic      Atomic             Coordinates (Angstroms)
 Number     Number       Type             X           Y           Z
 ---------------------------------------------------------------------
      1          6           0        3.905591    0.744319   -0.774276
      2          8           0        3.685351    0.061486    0.450679
      3          6           0        2.377081   -0.395920    0.726901
      4          6           0        1.371575    0.671519    1.197494
      5          6           0        0.910380    1.775253    0.219866
      6          6           0        0.468021    1.438934   -1.213946
      7          6           0       -0.662647    0.436849   -1.361731
      8          8           0       -1.822752    0.916390   -0.616852
      9         16           0       -2.729292   -0.166591    0.189863
     10          8           0       -1.907604   -1.340388    0.512310
     11          8           0       -3.427305    0.580529    1.220955
     12          6           0       -3.905337   -0.658317   -1.076456
     13          8           0        0.284059    0.014978    1.832569
     14          8           0        1.807807   -1.111385   -0.347100
     15          6           0        2.412682   -2.378832   -0.571599
     16          1           0        4.989815    0.834180   -0.876418
     17          1           0        3.469535    1.750636   -0.780506
     18          1           0        3.511609    0.181668   -1.628242
     19          1           0        2.518889   -1.070917    1.580957
     20          1           0        1.885964    1.193262    2.012493
     21          1           0        0.082071    2.276458    0.732116
     22          1           0        1.714032    2.517832    0.142665
     23          1           0        0.170339    2.378326   -1.696804
     24          1           0        1.304474    1.036085   -1.793881
     25          1           0       -0.966164    0.346738   -2.411334
     26          1           0       -0.366860   -0.542183   -0.989682
     27          1           0       -4.451533    0.228730   -1.399806
     28          1           0       -3.361044   -1.110699   -1.907477
     29          1           0       -4.584965   -1.385962   -0.628572
     30          1           0       -0.141505   -0.611584    1.222229
     31          1           0        3.476281   -2.275498   -0.816046
     32          1           0        2.311493   -3.020765    0.314185
     33          1           0        1.885705   -2.836554   -1.411693
 ---------------------------------------------------------------------

 SCF Done:  E(UB3LYP) =  -1165.43471946     A.U. after   26 cycles

 The electronic state is 2-A.
 Alpha  occ. eigenvalues --  -88.98811 -19.07826 -19.05183 -19.04605 -19.03784
 Alpha  occ. eigenvalues --  -19.03463 -19.01900 -10.18256 -10.13330 -10.13329
 Alpha  occ. eigenvalues --  -10.12862 -10.12441 -10.11648 -10.08131 -10.07996
 Alpha  occ. eigenvalues --   -8.04892  -6.01278  -6.01099  -6.00924  -1.05857
 Alpha  occ. eigenvalues --   -0.99206  -0.95081  -0.93252  -0.93020  -0.92217
 Alpha  occ. eigenvalues --   -0.71346  -0.68745  -0.66898  -0.63198  -0.60910
 Alpha  occ. eigenvalues --   -0.57579  -0.53699  -0.51170  -0.47768  -0.45773
 Alpha  occ. eigenvalues --   -0.43595  -0.42727  -0.42228  -0.41725  -0.39827
 Alpha  occ. eigenvalues --   -0.38792  -0.36254  -0.36031  -0.35725  -0.35324
 Alpha  occ. eigenvalues --   -0.34541  -0.34253  -0.34153  -0.33395  -0.32199
 Alpha  occ. eigenvalues --   -0.29826  -0.28512  -0.28163  -0.27073  -0.25749
 Alpha  occ. eigenvalues --   -0.25407  -0.24410  -0.23511  -0.23167  -0.22650
 Alpha  occ. eigenvalues --   -0.22270  -0.21667  -0.19978  -0.19709  -0.17153
 Alpha  occ. eigenvalues --    0.03791
 Alpha virt. eigenvalues --    0.05757   0.06878   0.07602   0.08135   0.09177
 Alpha virt. eigenvalues --    0.09197   0.10100   0.10379   0.10689   0.11224
 Alpha virt. eigenvalues --    0.11834   0.12466   0.12745   0.13167   0.13303

  Beta  occ. eigenvalues --  -88.98805 -19.07813 -19.05178 -19.04601 -19.03771
  Beta  occ. eigenvalues --  -19.03452 -19.01897 -10.18254 -10.13328 -10.13301
  Beta  occ. eigenvalues --  -10.12835 -10.12406 -10.11567 -10.08116 -10.07991
  Beta  occ. eigenvalues --   -8.04883  -6.01271  -6.01093  -6.00917  -1.05826
  Beta  occ. eigenvalues --   -0.99199  -0.95054  -0.93229  -0.93003  -0.92209
  Beta  occ. eigenvalues --   -0.71310  -0.68678  -0.66856  -0.63155  -0.60859
  Beta  occ. eigenvalues --   -0.57542  -0.53654  -0.51122  -0.47734  -0.45737
  Beta  occ. eigenvalues --   -0.43558  -0.42712  -0.42214  -0.41689  -0.39799
  Beta  occ. eigenvalues --   -0.38745  -0.36229  -0.35991  -0.35690  -0.35264
  Beta  occ. eigenvalues --   -0.34514  -0.34216  -0.34115  -0.33364  -0.32171
  Beta  occ. eigenvalues --   -0.29802  -0.28486  -0.28148  -0.27047  -0.25724
  Beta  occ. eigenvalues --   -0.25387  -0.24394  -0.23497  -0.23134  -0.22622
  Beta  occ. eigenvalues --   -0.22253  -0.21643  -0.19965  -0.19700  -0.17144
  Beta virt. eigenvalues --    0.06081   0.06936   0.07253   0.08220   0.08438
  Beta virt. eigenvalues --    0.09810   0.09858   0.10239   0.10967   0.11143
  Beta virt. eigenvalues --    0.11404   0.12303   0.12721   0.12869   0.13295

 Mulliken charges and spin densities:
               1          2
     1  C    0.542839  -0.822876
     2  O   -0.086133   0.028401
     3  C   -0.965740   0.308797
     4  C    0.151415  -0.325287
     5  C   -0.615205   0.215756
     6  C    0.859156  -0.774335
     7  C   -0.811489  -0.045487
     8  O   -0.029877   0.015488
     9  S    0.239107  -0.019906
    10  O   -0.247130   0.012984
    11  O   -0.101018   0.016996
    12  C    0.862036  -1.369606
    13  O   -0.097535   0.001178
    14  O   -0.153775   0.007935
    15  C    0.459387  -0.659193
    16  H   -0.193907   0.360882
    17  H   -0.110618   0.258668
    18  H   -0.256608   0.408827
    19  H    0.146363   0.057267
    20  H    0.173746   0.037202
    21  H    0.233245   0.000554
    22  H    0.119866   0.000312
    23  H   -0.082446   0.290107
    24  H    0.207558  -0.071202
    25  H   -0.870901   1.065510
    26  H    0.845711  -0.572094
    27  H   -0.287603   0.503871
    28  H   -0.571578   0.793665
    29  H   -0.220126   0.428256
    30  H    0.235856   0.026257
    31  H   -0.081374   0.234059
    32  H    0.062322   0.072402
    33  H   -0.355543   0.514614
 Sum of Mulliken charges =  -1.00000   1.00000

 Dipole moment (field-independent basis, Debye):
    X=              3.1598    Y=              1.1089    Z=              4.1331  Tot=              5.3194
 Quadrupole moment (field-independent basis, Debye-Ang):
   XX=           -175.2010   YY=           -130.4490   ZZ=           -151.5811
   XY=             -1.7279   XZ=             -0.6847   YZ=             -3.9705

 Summary of Natural Population Analysis:

                                       Natural Population
                Natural  -----------------------------------------------
    Atom  No    Charge         Core      Valence    Rydberg      Total
 -----------------------------------------------------------------------
      C    1   -0.10414      0.99959     2.09499    0.00956     3.10414
      O    2   -0.30585      0.99988     3.29638    0.00959     4.30585
      C    3    0.21434      0.99954     1.76579    0.02033     2.78566
      C    4    0.04818      0.99953     1.93816    0.01414     2.95182
      C    5   -0.20557      0.99959     2.19665    0.00933     3.20557
      C    6   -0.20384      0.99961     2.19386    0.01038     3.20384
      C    7   -0.02059      0.99954     2.00719    0.01386     3.02059
      O    8   -0.37773      0.99990     3.36846    0.00936     4.37773
      S    9    1.13585      4.99936     1.76389    0.10090     6.86415
      O   10   -0.46627      0.99990     3.46010    0.00627     4.46627
      O   11   -0.44604      0.99990     3.44039    0.00575     4.44604
      C   12   -0.39038      0.99961     2.38085    0.00992     3.39038
      O   13   -0.37823      0.99989     3.37098    0.00736     4.37823
      O   14   -0.30970      0.99987     3.29933    0.01050     4.30970
      C   15   -0.09999      0.99960     2.09114    0.00925     3.09999
      H   16    0.09030      0.00000     0.40864    0.00107     0.40970
      H   17    0.07989      0.00000     0.41873    0.00138     0.42011
      H   18    0.08761      0.00000     0.41071    0.00168     0.41239
      H   19    0.08189      0.00000     0.41651    0.00160     0.41811
      H   20    0.09095      0.00000     0.40790    0.00116     0.40905
      H   21    0.11075      0.00000     0.38798    0.00127     0.38925
      H   22    0.09917      0.00000     0.39970    0.00113     0.40083
      H   23    0.09989      0.00000     0.39897    0.00114     0.40011
      H   24    0.10815      0.00000     0.38980    0.00205     0.39185
      H   25    0.09342      0.00000     0.40374    0.00285     0.40658
      H   26    0.10458      0.00000     0.39255    0.00287     0.39542
      H   27    0.12006      0.00000     0.37853    0.00141     0.37994
      H   28    0.12234      0.00000     0.37403    0.00363     0.37766
      H   29    0.11846      0.00000     0.38036    0.00117     0.38154
      H   30    0.24127      0.00000     0.25522    0.00351     0.25873
      H   31    0.08500      0.00000     0.41372    0.00129     0.41500
      H   32    0.08096      0.00000     0.41797    0.00107     0.41904
      H   33    0.09526      0.00000     0.40361    0.00113     0.40474
 =======================================================================
   * Total *    0.00000     18.99531    45.72680    0.27789    65.00000

 Normal termination of Gaussian 16 at Thu Dec 10 16:54:55 2020.
