 Gaussian 16, Revision A.03,

 -----------------------------------------------------------
 # opt freq B3LYP/6-31G(d) empiricaldispersion=gd3bj scf=xqc
 -----------------------------------------------------------

 -----------------------------
 CID_151600319_JID_52_neutraal
 -----------------------------
 Symbolic Z-matrix:
 Charge =  0 Multiplicity = 1

 SCF Done:  E(RB3LYP) =  -421.549565920     A.U. after   14 cycles
 SCF Done:  E(RB3LYP) =  -421.556158555     A.U. after   13 cycles
 SCF Done:  E(RB3LYP) =  -421.557304925     A.U. after   12 cycles
 SCF Done:  E(RB3LYP) =  -421.557796824     A.U. after   12 cycles
 SCF Done:  E(RB3LYP) =  -421.557911102     A.U. after   11 cycles
 SCF Done:  E(RB3LYP) =  -421.557953544     A.U. after   10 cycles
 SCF Done:  E(RB3LYP) =  -421.557965475     A.U. after   10 cycles
 SCF Done:  E(RB3LYP) =  -421.557971553     A.U. after   10 cycles
 SCF Done:  E(RB3LYP) =  -421.557973173     A.U. after    8 cycles
 SCF Done:  E(RB3LYP) =  -421.557973348     A.U. after    8 cycles
 Optimization completed.
    -- Stationary point found.

 1\1\GINC-NODE318\FOpt\RB3LYP\6-31G(d)\C8H12N2\VSC10255\08-Dec-2020\0\\
 # opt freq B3LYP/6-31G(d) empiricaldispersion=gd3bj scf=xqc\\CID_15160
 0319_JID_52_neutraal\\0,1\C,0.9332788458,-0.1432866392,0.1793760945\C,
 0.0976918579,1.1005216197,0.2602741271\C,0.2060498394,2.1401027994,-0.
 5686901269\C,-0.6443450791,3.3960227786,-0.5255751007\C,0.1999923628,4
 .6390027686,-0.7423002521\C,-0.2554328849,5.6971783825,-1.4452715322\C
 ,-1.5101847218,5.6362708412,-2.1605019379\C,-2.1407768302,4.437407412,
 -2.2194267557\N,-1.6212120644,3.316865317,-1.6168731555\N,-1.393861419

 Normal termination of Gaussian 16 at Tue Dec  8 10:15:19 2020.

 --------------------------------------------------------------------
 #N Geom=AllCheck Guess=TCheck SCRF=Check GenChk RB3LYP/6-31G(d) Freq
 --------------------------------------------------------------------

 Structure from the checkpoint file:  "JID_52.chk"
 -----------------------------
 CID_151600319_JID_52_neutraal
 -----------------------------
 Charge =  0 Multiplicity = 1

 SCF Done:  E(RB3LYP) =  -421.557973348     A.U. after    1 cycles

  Exact polarizability: 136.614  -1.135  86.336  -9.426   2.223  65.297
 Approx polarizability: 187.762  -4.499 140.297 -20.481   4.405  98.149

                      1                      2                      3
                      A                      A                      A
 Frequencies --     69.0939                71.5147               152.3437
 Red. masses --      3.7351                 2.6018                 1.5119
 Frc consts  --      0.0105                 0.0078                 0.0207
 IR Inten    --      0.1745                 0.3319                 0.3605

                      4                      5                      6
                      A                      A                      A
 Frequencies --    195.3541               216.3562               274.7728
 Red. masses --      2.8735                 1.4709                 2.9031
 Frc consts  --      0.0646                 0.0406                 0.1291
 IR Inten    --      0.7768                 0.8038                 9.4238

                      7                      8                      9
                      A                      A                      A
 Frequencies --    320.5207               349.3918               355.6896
 Red. masses --      1.2066                 3.8484                 2.3105
 Frc consts  --      0.0730                 0.2768                 0.1722
 IR Inten    --     37.4712                 0.8441                28.4000

                     10                     11                     12
                      A                      A                      A
 Frequencies --    409.3219               416.5852               462.0718
 Red. masses --      2.3687                 2.7429                 2.7592
 Frc consts  --      0.2338                 0.2805                 0.3471
 IR Inten    --     42.4041                 1.5249                 3.1467

                     13                     14                     15
                      A                      A                      A
 Frequencies --    558.7340               608.7667               618.5210
 Red. masses --      2.0688                 2.9875                 4.8532
 Frc consts  --      0.3805                 0.6523                 1.0939
 IR Inten    --     76.7754                19.3651                 9.7533

                     16                     17                     18
                      A                      A                      A
 Frequencies --    664.2619               722.8735               760.7137
 Red. masses --      3.8987                 1.3222                 1.4798
 Frc consts  --      1.0136                 0.4071                 0.5046
 IR Inten    --     29.8500                51.5882                10.4781

                     19                     20                     21
                      A                      A                      A
 Frequencies --    780.4187               823.4244               913.4439
 Red. masses --      3.5724                 1.6380                 1.2592
 Frc consts  --      1.2819                 0.6543                 0.6190
 IR Inten    --     16.8932                 2.9019                 2.2701

                     22                     23                     24
                      A                      A                      A
 Frequencies --    925.8104               932.4435               970.7366
 Red. masses --      2.5088                 1.4757                 1.2638
 Frc consts  --      1.2669                 0.7560                 0.7017
 IR Inten    --     36.8394               106.0735                 9.6020

                     25                     26                     27
                      A                      A                      A
 Frequencies --    979.3116              1012.1639              1027.2604
 Red. masses --      2.2243                 2.6809                 1.1545
 Frc consts  --      1.2569                 1.6182                 0.7178
 IR Inten    --     14.7444                 2.8628                16.2247

                     28                     29                     30
                      A                      A                      A
 Frequencies --   1042.9440              1069.0900              1085.4821
 Red. masses --      2.4618                 2.5847                 1.5183
 Frc consts  --      1.5777                 1.7406                 1.0540
 IR Inten    --     21.4398                24.9424                 1.6895

                     31                     32                     33
                      A                      A                      A
 Frequencies --   1124.9086              1158.8228              1174.3684
 Red. masses --      1.7337                 1.6511                 1.9868
 Frc consts  --      1.2926                 1.3064                 1.6144
 IR Inten    --     24.4159                 3.9458                20.8432

                     34                     35                     36
                      A                      A                      A
 Frequencies --   1223.6769              1266.2617              1303.6855
 Red. masses --      1.3933                 1.4654                 1.4781
 Frc consts  --      1.2292                 1.3844                 1.4802
 IR Inten    --      8.4678                21.1024                15.8564

                     37                     38                     39
                      A                      A                      A
 Frequencies --   1343.6226              1357.7600              1396.2006
 Red. masses --      1.2677                 1.7758                 1.3667
 Frc consts  --      1.3484                 1.9288                 1.5697
 IR Inten    --      3.7670                20.0604                 0.4062

                     40                     41                     42
                      A                      A                      A
 Frequencies --   1441.2159              1476.1265              1510.2589
 Red. masses --      1.2570                 1.8371                 1.0700
 Frc consts  --      1.5383                 2.3585                 1.4379
 IR Inten    --      2.6156                13.2413                10.2894

                     43                     44                     45
                      A                      A                      A
 Frequencies --   1512.9967              1521.0172              1630.1696
 Red. masses --      1.9055                 1.0563                 4.8028
 Frc consts  --      2.5699                 1.4398                 7.5199
 IR Inten    --     99.9214                12.3667                60.1557

                     46                     47                     48
                      A                      A                      A
 Frequencies --   1676.7519              1708.4991              1754.7915
 Red. masses --      1.1266                 4.7681                 5.8335
 Frc consts  --      1.8662                 8.2002                10.5835
 IR Inten    --     44.8736                55.2724                 5.6665

                     49                     50                     51
                      A                      A                      A
 Frequencies --   3032.4127              3078.7913              3118.0056
 Red. masses --      1.0373                 1.0999                 1.1003
 Frc consts  --      5.6201                 6.1427                 6.3027
 IR Inten    --     40.5858                24.1985                18.5204

                     52                     53                     54
                      A                      A                      A
 Frequencies --   3164.4808              3171.6282              3177.2752
 Red. masses --      1.0911                 1.0857                 1.0871
 Frc consts  --      6.4376                 6.4346                 6.4661
 IR Inten    --      8.9987                15.3319                13.9488

                     55                     56                     57
                      A                      A                      A
 Frequencies --   3195.6117              3203.4250              3237.1772
 Red. masses --      1.0952                 1.0895                 1.0962
 Frc consts  --      6.5895                 6.5873                 6.7679
 IR Inten    --     21.5517                10.7641                17.9196

                     58                     59                     60
                      A                      A                      A
 Frequencies --   3446.9031              3536.5867              3608.3634
 Red. masses --      1.0499                 1.0917                 1.0767
 Frc consts  --      7.3493                 8.0451                 8.2594
 IR Inten    --      0.0151                 0.2899                24.5300

 - Thermochemistry -
 -------------------
 Temperature   298.150 Kelvin.  Pressure   1.00000 Atm.
 Atom     1 has atomic number  6 and mass  12.00000

 Molecular mass:   136.10005 amu.
 Principal axes and moments of inertia in atomic units:
                           1         2         3
     Eigenvalues --   577.300932350.257192440.63679
           X            0.99998  -0.00039   0.00685
           Y            0.00040   1.00000  -0.00077
           Z           -0.00685   0.00077   0.99998
 This molecule is an asymmetric top.
 Rotational symmetry number  1.
 Warning -- assumption of classical behavior for rotation
           may cause significant error
 Rotational temperatures (Kelvin)      0.15003     0.03685     0.03549
 Rotational constants (GHZ):           3.12617     0.76789     0.73946
 Zero-point vibrational energy     498491.1 (Joules/Mol)
                                  119.14224 (Kcal/Mol)
 Warning -- explicit consideration of  15 degrees of freedom as
           vibrations may cause significant error
 Vibrational temperatures:     99.41   102.89   219.19   281.07   311.29
          (Kelvin)            395.34   461.16   502.70   511.76   588.92
                              599.37   664.82   803.89   875.88   889.91
                              955.72  1040.05  1094.50  1122.85  1184.72
                             1314.24  1332.03  1341.58  1396.67  1409.01
                             1456.28  1478.00  1500.56  1538.18  1561.77
                             1618.49  1667.29  1689.65  1760.60  1821.87
                             1875.71  1933.17  1953.51  2008.82  2073.59
                             2123.82  2172.93  2176.86  2188.40  2345.45
                             2412.47  2458.15  2524.75  4362.97  4429.69
                             4486.11  4552.98  4563.27  4571.39  4597.77
                             4609.01  4657.58  4959.32  5088.36  5191.63

 Zero-point correction=                           0.189865 (Hartree/Particle)
 Thermal correction to Energy=                    0.199950
 Thermal correction to Enthalpy=                  0.200895
 Thermal correction to Gibbs Free Energy=         0.154745
 Sum of electronic and zero-point Energies=           -421.368108
 Sum of electronic and thermal Energies=              -421.358023
 Sum of electronic and thermal Enthalpies=            -421.357079
 Sum of electronic and thermal Free Energies=         -421.403228

                     E (Thermal)             CV                S
                      KCal/Mol        Cal/Mol-Kelvin    Cal/Mol-Kelvin
 Total                  125.471             38.974             97.129
 Electronic               0.000              0.000              0.000
 Translational            0.889              2.981             40.637
 Rotational               0.889              2.981             29.583
 Vibrational            123.693             33.013             26.909
 Vibration     1          0.598              1.969              4.179
 Vibration     2          0.598              1.968              4.111
 Vibration     3          0.619              1.900              2.643
 Vibration     4          0.636              1.846              2.176
 Vibration     5          0.645              1.816              1.989
 Vibration     6          0.677              1.720              1.566
 Vibration     7          0.706              1.634              1.307
 Vibration     8          0.727              1.576              1.169
 Vibration     9          0.731              1.564              1.141
 Vibration    10          0.774              1.450              0.929
 Vibration    11          0.780              1.434              0.904
 Vibration    12          0.820              1.334              0.760
 Vibration    13          0.914              1.121              0.526
 Vibration    14          0.968              1.013              0.435
 Vibration    15          0.978              0.993              0.419

 Optimization completed.
    -- Stationary point found.

 1\1\GINC-NODE318\Freq\RB3LYP\6-31G(d)\C8H12N2\VSC10255\08-Dec-2020\0\\
 #N Geom=AllCheck Guess=TCheck SCRF=Check GenChk RB3LYP/6-31G(d) Freq\\
 CID_151600319_JID_52_neutraal\\0,1\C,0.9332788458,-0.1432866392,0.1793
 760945\C,0.0976918579,1.1005216197,0.2602741271\C,0.2060498394,2.14010
 27994,-0.5686901269\C,-0.6443450791,3.3960227786,-0.5255751007\C,0.199
 9923628,4.6390027686,-0.7423002521\C,-0.2554328849,5.6971783825,-1.445
 2715322\C,-1.5101847218,5.6362708412,-2.1605019379\C,-2.1407768302,4.4
 37407412,-2.2194267557\N,-1.6212120644,3.316865317,-1.6168731555\N,-1.

 Normal termination of Gaussian 16 at Tue Dec  8 10:18:52 2020.

 ----------------------------------------------------------------------
 # B3LYP/6-311++G(d,p) empiricaldispersion=gd3bj scf=xqc pop=npa geom=c
 heck
 ----------------------------------------------------------------------

 -------------------------------------
 CID_151600319_JID_52_Energie_neutraal
 -------------------------------------
 Structure from the checkpoint file:  "JID_52.chk"
 Charge =  0 Multiplicity = 1

 SCF Done:  E(RB3LYP) =  -421.687173252     A.U. after   15 cycles
 Normal termination of Gaussian 16 at Tue Dec  8 10:20:07 2020.

 ----------------------------------------------------------------------
 # B3LYP/6-311++G(d,p) empiricaldispersion=gd3bj scf=xqc pop=npa geom=c
 heck
 ----------------------------------------------------------------------

 -----------------------------------
 CID_151600319_JID_52_Energie_kation
 -----------------------------------
 Structure from the checkpoint file:  "JID_52.chk"
 Charge =  1 Multiplicity = 2

 SCF Done:  E(UB3LYP) =  -421.423548722     A.U. after   20 cycles
 Normal termination of Gaussian 16 at Tue Dec  8 10:22:18 2020.
 Gaussian 16:  ES64L-G16RevA.03 25-Dec-2016

 ----------------------------------
 CID_151600319_JID_52_Energie_anion
 ----------------------------------
 Structure from the checkpoint file:  "JID_52.chk"
 Charge = -1 Multiplicity = 2

                         Standard orientation:
 ---------------------------------------------------------------------
 Center     Atomic      Atomic             Coordinates (Angstroms)
 Number     Number       Type             X           Y           Z
 ---------------------------------------------------------------------
      1          6           0       -3.826482    0.052947   -0.554524
      2          6           0       -2.498733    0.086155    0.143894
      3          6           0       -1.327748   -0.162907   -0.444675
      4          6           0        0.029467   -0.108799    0.231642
      5          6           0        0.902380   -1.275728   -0.194003
      6          6           0        2.232191   -1.141104   -0.380539
      7          6           0        2.866114    0.157341   -0.337548
      8          6           0        2.061751    1.245132   -0.247543
      9          7           0        0.693606    1.129702   -0.188480
     10          7           0       -0.153859   -0.049946    1.701661
     11          1           0       -3.719185   -0.200006   -1.614547
     12          1           0       -4.334019    1.024377   -0.484676
     13          1           0       -4.498349   -0.683745   -0.093865
     14          1           0       -2.506047    0.339974    1.202585
     15          1           0       -1.284374   -0.395309   -1.507817
     16          1           0        0.413769   -2.244805   -0.247099
     17          1           0        2.839622   -2.018318   -0.592461
     18          1           0        3.937950    0.268553   -0.443724
     19          1           0        2.439738    2.262520   -0.280617
     20          1           0        0.162394    1.958588    0.042251
     21          1           0       -0.638386   -0.895895    2.005993
     22          1           0        0.775023   -0.092439    2.121481
 ---------------------------------------------------------------------

 SCF Done:  E(UB3LYP) =  -421.670279796     A.U. after   33 cycles
 SCF Done:  E(UB3LYP) =  -421.670279796     a.u. after    1 cycles

 The electronic state is 2-A.
 Alpha  occ. eigenvalues --  -14.22496 -14.18953 -10.14234 -10.10021 -10.06820
 Alpha  occ. eigenvalues --  -10.06589 -10.06322 -10.06110 -10.05672 -10.04704
 Alpha  occ. eigenvalues --   -0.85401  -0.76729  -0.68991  -0.68646  -0.64028
 Alpha  occ. eigenvalues --   -0.58666  -0.52638  -0.51344  -0.45300  -0.43256
 Alpha  occ. eigenvalues --   -0.39873  -0.38712  -0.36161  -0.35324  -0.33531
 Alpha  occ. eigenvalues --   -0.32217  -0.30984  -0.30415  -0.28348  -0.26323
 Alpha  occ. eigenvalues --   -0.25509  -0.24641  -0.23019  -0.19014  -0.15246
 Alpha  occ. eigenvalues --   -0.14588  -0.08624   0.04708
 Alpha virt. eigenvalues --    0.06658   0.07521   0.07875   0.08596   0.09180
 Alpha virt. eigenvalues --    0.09485   0.10259   0.11084   0.11305   0.11511
 Alpha virt. eigenvalues --    0.12380   0.13138   0.13726   0.15477   0.16927

  Beta  occ. eigenvalues --  -14.22472 -14.18926 -10.14233 -10.09993 -10.06808
  Beta  occ. eigenvalues --  -10.06571 -10.06282 -10.06107 -10.05659 -10.04696
  Beta  occ. eigenvalues --   -0.85360  -0.76678  -0.68954  -0.68609  -0.63980
  Beta  occ. eigenvalues --   -0.58612  -0.52582  -0.51294  -0.45238  -0.43200
  Beta  occ. eigenvalues --   -0.39826  -0.38665  -0.36125  -0.35283  -0.33493
  Beta  occ. eigenvalues --   -0.32166  -0.30940  -0.30370  -0.28309  -0.26285
  Beta  occ. eigenvalues --   -0.25463  -0.24602  -0.22977  -0.18971  -0.15221
  Beta  occ. eigenvalues --   -0.14555  -0.08590
  Beta virt. eigenvalues --    0.06996   0.07680   0.07978   0.08489   0.09103
  Beta virt. eigenvalues --    0.09733   0.10172   0.10618   0.11254   0.11684
  Beta virt. eigenvalues --    0.12031   0.13101   0.13472   0.14021   0.15571

 Mulliken charges and spin densities:
               1          2
     1  C    2.604152  -3.400094
     2  C   -0.789582   0.858537
     3  C   -1.205539   1.100192
     4  C    1.837363  -2.008131
     5  C   -2.810037   2.746373
     6  C    2.275754  -2.771259
     7  C    0.074460  -0.094526
     8  C    0.491588  -0.782426
     9  N   -0.260683   0.268252
    10  N   -0.244691  -0.026910
    11  H   -0.282274   0.413985
    12  H   -0.310524   0.454492
    13  H   -0.377955   0.525013
    14  H   -0.348496   0.540522
    15  H    0.066494   0.080819
    16  H   -0.454013   0.633665
    17  H   -0.061305   0.205175
    18  H   -0.374048   0.530819
    19  H   -0.921972   1.076747
    20  H   -0.032993   0.316868
    21  H    0.008613   0.214886
    22  H    0.115691   0.117000
 Sum of Mulliken charges =  -1.00000   1.00000

 Dipole moment (field-independent basis, Debye):
    X=              1.3496    Y=             -2.0321    Z=             -0.2599  Tot=              2.4533
 Quadrupole moment (field-independent basis, Debye-Ang):
   XX=           -132.7293   YY=           -101.1980   ZZ=            -89.3663
   XY=             -6.3031   XZ=              0.8860   YZ=              0.3659

 Summary of Natural Population Analysis:

                                       Natural Population
                Natural  -----------------------------------------------
    Atom  No    Charge         Core      Valence    Rydberg      Total
 -----------------------------------------------------------------------
      C    1   -0.29651      0.99965     2.29179    0.00506     3.29651
      C    2   -0.08120      0.99951     2.07195    0.00974     3.08120
      C    3   -0.10166      0.99947     2.09074    0.01145     3.10166
      C    4    0.12136      0.99954     1.86148    0.01762     2.87864
      C    5   -0.12318      0.99951     2.11119    0.01249     3.12318
      C    6   -0.09985      0.99953     2.08937    0.01095     3.09985
      C    7   -0.18188      0.99955     2.17076    0.01157     3.18188
      C    8    0.03462      0.99954     1.95174    0.01410     2.96538
      N    9   -0.30368      0.99967     2.79023    0.01378     3.80368
      N   10   -0.42579      0.99976     2.91593    0.01009     3.92579
      H   11    0.09824      0.00000     0.40025    0.00151     0.40176
      H   12    0.10302      0.00000     0.39513    0.00185     0.39698
      H   13    0.10299      0.00000     0.39505    0.00196     0.39701
      H   14    0.10052      0.00000     0.39738    0.00210     0.39948
      H   15    0.09690      0.00000     0.40163    0.00146     0.40310
      H   16    0.10085      0.00000     0.39785    0.00130     0.39915
      H   17    0.09823      0.00000     0.40073    0.00104     0.40177
      H   18    0.10419      0.00000     0.39460    0.00121     0.39581
      H   19    0.09935      0.00000     0.39797    0.00268     0.40065
      H   20    0.19723      0.00000     0.29944    0.00333     0.30277
      H   21    0.17734      0.00000     0.32036    0.00229     0.32266
      H   22    0.17890      0.00000     0.31913    0.00197     0.32110
 =======================================================================
   * Total *    0.00000      9.99573    26.86470    0.13956    37.00000

 Normal termination of Gaussian 16 at Tue Dec  8 10:25:54 2020.
