 Gaussian 16, Revision A.03,

 -----------------------------------------------------------
 # opt freq B3LYP/6-31G(d) empiricaldispersion=gd3bj scf=xqc
 -----------------------------------------------------------

 ------------------------------
 CID_53816544_JID_5139_neutraal
 ------------------------------
 Symbolic Z-matrix:
 Charge =  0 Multiplicity = 1

 SCF Done:  E(RB3LYP) =  -620.779432335     A.U. after   14 cycles
 SCF Done:  E(RB3LYP) =  -620.783863020     A.U. after   13 cycles
 SCF Done:  E(RB3LYP) =  -620.780424369     A.U. after   14 cycles
 SCF Done:  E(RB3LYP) =  -620.784954186     A.U. after   13 cycles
 SCF Done:  E(RB3LYP) =  -620.784890558     A.U. after   12 cycles
 SCF Done:  E(RB3LYP) =  -620.785110388     A.U. after   11 cycles
 SCF Done:  E(RB3LYP) =  -620.785184783     A.U. after   12 cycles
 SCF Done:  E(RB3LYP) =  -620.785219966     A.U. after   12 cycles
 SCF Done:  E(RB3LYP) =  -620.785241003     A.U. after   11 cycles
 SCF Done:  E(RB3LYP) =  -620.785249131     A.U. after   11 cycles
 SCF Done:  E(RB3LYP) =  -620.785267484     A.U. after    9 cycles
 SCF Done:  E(RB3LYP) =  -620.785268020     A.U. after    9 cycles
 SCF Done:  E(RB3LYP) =  -620.785268331     A.U. after    9 cycles
 SCF Done:  E(RB3LYP) =  -620.785268484     A.U. after    8 cycles
 SCF Done:  E(RB3LYP) =  -620.785268533     A.U. after    7 cycles
 Optimization completed.
    -- Stationary point found.
 Normal termination of Gaussian 16 at Thu Dec 10 14:55:31 2020.

 --------------------------------------------------------------------
 #N Geom=AllCheck Guess=TCheck SCRF=Check GenChk RB3LYP/6-31G(d) Freq
 --------------------------------------------------------------------

 Structure from the checkpoint file:  "JID_5139.chk"
 ------------------------------
 CID_53816544_JID_5139_neutraal
 ------------------------------
 Charge =  0 Multiplicity = 1

 SCF Done:  E(RB3LYP) =  -620.785268533     A.U. after    1 cycles

  Exact polarizability: 173.514   7.416 131.742  -4.747  -5.118 125.731
 Approx polarizability: 225.601  20.447 191.017 -14.217 -14.714 204.329

                      1                      2                      3
                      A                      A                      A
 Frequencies --     10.4404                37.4537                44.2696
 Red. masses --      3.7388                 4.1215                 3.1439
 Frc consts  --      0.0002                 0.0034                 0.0036
 IR Inten    --      0.1396                 1.8760                 0.6681

                      4                      5                      6
                      A                      A                      A
 Frequencies --     70.2909                87.9011                94.6525
 Red. masses --      2.9484                 2.9123                 4.6079
 Frc consts  --      0.0086                 0.0133                 0.0243
 IR Inten    --      0.0139                 0.2682                 5.8101

                      7                      8                      9
                      A                      A                      A
 Frequencies --    136.9131               149.5991               196.1747
 Red. masses --      2.8594                 1.9806                 3.3708
 Frc consts  --      0.0316                 0.0261                 0.0764
 IR Inten    --      2.7655                 1.4142                 0.6872

                     10                     11                     12
                      A                      A                      A
 Frequencies --    231.3720               256.0695               267.3229
 Red. masses --      2.6241                 1.8248                 2.2717
 Frc consts  --      0.0828                 0.0705                 0.0956
 IR Inten    --      4.4499                 1.6617                 2.7634

                     13                     14                     15
                      A                      A                      A
 Frequencies --    300.0046               340.0227               373.0912
 Red. masses --      3.3918                 2.5749                 2.5661
 Frc consts  --      0.1799                 0.1754                 0.2104
 IR Inten    --      1.1730                 0.7241                 4.7766

                     16                     17                     18
                      A                      A                      A
 Frequencies --    441.8360               468.3440               512.8436
 Red. masses --      2.1128                 2.6739                 2.7697
 Frc consts  --      0.2430                 0.3456                 0.4292
 IR Inten    --      2.2045                 6.3571                 0.5716

                     19                     20                     21
                      A                      A                      A
 Frequencies --    536.0995               577.9352               596.9326
 Red. masses --      2.4160                 2.0616                 3.4104
 Frc consts  --      0.4091                 0.4057                 0.7160
 IR Inten    --      7.7224                 1.0661                 2.1986

                     22                     23                     24
                      A                      A                      A
 Frequencies --    645.5881               701.0915               752.3434
 Red. masses --      2.0326                 2.6191                 2.8913
 Frc consts  --      0.4991                 0.7585                 0.9642
 IR Inten    --      0.5128                 5.4679                 2.0620

                     25                     26                     27
                      A                      A                      A
 Frequencies --    810.1402               834.3174               849.8137
 Red. masses --      1.8141                 1.9001                 1.5724
 Frc consts  --      0.7015                 0.7793                 0.6690
 IR Inten    --      5.1617                 0.5139                 2.0729

                     28                     29                     30
                      A                      A                      A
 Frequencies --    855.1532               880.4882               888.0943
 Red. masses --      1.7483                 1.9705                 2.0101
 Frc consts  --      0.7533                 0.9000                 0.9341
 IR Inten    --      5.3056                 0.4590                 1.0460

                     31                     32                     33
                      A                      A                      A
 Frequencies --    906.3420               920.9045               928.5215
 Red. masses --      2.6813                 2.5401                 1.5791
 Frc consts  --      1.2977                 1.2692                 0.8021
 IR Inten    --      1.8439                 0.4190                 0.3898

                     34                     35                     36
                      A                      A                      A
 Frequencies --    930.8852               933.2515               960.7435
 Red. masses --      1.9955                 2.1768                 1.9358
 Frc consts  --      1.0188                 1.1171                 1.0527
 IR Inten    --      2.7319                 0.7085                 4.9251

                     37                     38                     39
                      A                      A                      A
 Frequencies --    978.4459               985.4419              1029.2565
 Red. masses --      1.8005                 1.9017                 1.9769
 Frc consts  --      1.0156                 1.0880                 1.2339
 IR Inten    --      2.8681                 0.5122                 3.3237

                     40                     41                     42
                      A                      A                      A
 Frequencies --   1040.3679              1044.8272              1054.3655
 Red. masses --      1.8085                 1.9798                 1.6528
 Frc consts  --      1.1533                 1.2734                 1.0826
 IR Inten    --     16.3945                 1.5305                 3.6909

                     43                     44                     45
                      A                      A                      A
 Frequencies --   1072.1034              1087.9455              1139.5213
 Red. masses --      1.8484                 2.0312                 2.3879
 Frc consts  --      1.2517                 1.4165                 1.8269
 IR Inten    --      3.9480                 1.9124                 2.4153

                     46                     47                     48
                      A                      A                      A
 Frequencies --   1150.5681              1167.9972              1169.9575
 Red. masses --      1.9066                 1.4035                 1.4270
 Frc consts  --      1.4871                 1.1281                 1.1509
 IR Inten    --      2.4678                 1.8675                 1.3605

                     49                     50                     51
                      A                      A                      A
 Frequencies --   1193.5290              1203.0110              1241.7756
 Red. masses --      1.4225                 1.7558                 1.2927
 Frc consts  --      1.1939                 1.4972                 1.1745
 IR Inten    --      0.8628                 7.6319                 0.2907

                     52                     53                     54
                      A                      A                      A
 Frequencies --   1246.9977              1257.4900              1261.5469
 Red. masses --      1.4024                 1.3778                 1.3191
 Frc consts  --      1.2848                 1.2836                 1.2369
 IR Inten    --     17.9591                 3.6396                 5.7835

                     55                     56                     57
                      A                      A                      A
 Frequencies --   1270.6053              1281.4887              1284.8512
 Red. masses --      1.3433                 1.4558                 1.6709
 Frc consts  --      1.2778                 1.4086                 1.6252
 IR Inten    --      1.9251                 4.0030                 0.8288

                     58                     59                     60
                      A                      A                      A
 Frequencies --   1308.3566              1322.9051              1336.7081
 Red. masses --      1.4500                 1.3262                 1.4041
 Frc consts  --      1.4624                 1.3675                 1.4782
 IR Inten    --      6.9589                 2.0534                 3.7919

                     61                     62                     63
                      A                      A                      A
 Frequencies --   1348.6283              1350.9576              1354.1686
 Red. masses --      1.6305                 1.3342                 1.4028
 Frc consts  --      1.7472                 1.4347                 1.5156
 IR Inten    --      0.4899                 0.2288                 0.7740

                     64                     65                     66
                      A                      A                      A
 Frequencies --   1359.7697              1369.4221              1401.8935
 Red. masses --      1.5342                 1.4437                 1.9038
 Frc consts  --      1.6713                 1.5951                 2.2045
 IR Inten    --      0.4207                 3.4406                 0.5932

                     67                     68                     69
                      A                      A                      A
 Frequencies --   1431.8661              1493.6301              1505.0766
 Red. masses --      1.1895                 1.0955                 1.0852
 Frc consts  --      1.4369                 1.4400                 1.4484
 IR Inten    --      5.8682                 6.4105                 1.4158

                     70                     71                     72
                      A                      A                      A
 Frequencies --   1507.8430              1511.0570              1511.6458
 Red. masses --      1.0857                 1.0893                 1.0901
 Frc consts  --      1.4543                 1.4654                 1.4677
 IR Inten    --      1.4539                 4.6653                 2.1815

                     73                     74                     75
                      A                      A                      A
 Frequencies --   1516.7323              1522.0232              1536.3160
 Red. masses --      1.0856                 1.0874                 1.1075
 Frc consts  --      1.4714                 1.4842                 1.5401
 IR Inten    --      2.1246                 3.0118                 0.5091

                     76                     77                     78
                      A                      A                      A
 Frequencies --   1538.9496              1722.8250              1753.6176
 Red. masses --      1.1089                 6.5543                 9.8086
 Frc consts  --      1.5474                11.4620                17.7717
 IR Inten    --      0.5665                 2.2434                 7.0524

                     79                     80                     81
                      A                      A                      A
 Frequencies --   1822.6025              2920.4051              3015.0111
 Red. masses --      9.3583                 1.0845                 1.0698
 Frc consts  --     18.3160                 5.4496                 5.7295
 IR Inten    --    177.1444                76.8554                42.3445

                     82                     83                     84
                      A                      A                      A
 Frequencies --   3018.4274              3019.4522              3028.4785
 Red. masses --      1.0655                 1.0710                 1.0610
 Frc consts  --      5.7196                 5.7531                 5.7335
 IR Inten    --     18.0989                23.4614                33.9882

                     85                     86                     87
                      A                      A                      A
 Frequencies --   3034.5424              3044.7762              3051.2516
 Red. masses --      1.0689                 1.0700                 1.0620
 Frc consts  --      5.7993                 5.8446                 5.8256
 IR Inten    --     14.4242                26.0177                21.1483

                     88                     89                     90
                      A                      A                      A
 Frequencies --   3052.1871              3053.6170              3060.1041
 Red. masses --      1.0609                 1.0826                 1.0995
 Frc consts  --      5.8230                 5.9475                 6.0662
 IR Inten    --     29.5321                 3.8959                18.9438

                     91                     92                     93
                      A                      A                      A
 Frequencies --   3062.3332              3074.1320              3084.7022
 Red. masses --      1.0946                 1.0753                 1.0938
 Frc consts  --      6.0479                 5.9872                 6.1323
 IR Inten    --     34.6052                74.0160                32.6450

                     94                     95                     96
                      A                      A                      A
 Frequencies --   3091.2659              3105.9991              3109.1545
 Red. masses --      1.0925                 1.0959                 1.1019
 Frc consts  --      6.1507                 6.2292                 6.2758
 IR Inten    --     17.3050                53.5855                17.9010

                     97                     98                     99
                      A                      A                      A
 Frequencies --   3112.0681              3115.1497              3205.6248
 Red. masses --      1.1041                 1.1033                 1.0922
 Frc consts  --      6.3000                 6.3082                 6.6126
 IR Inten    --     48.0566                40.1469                15.7101

 - Thermochemistry -
 -------------------
 Temperature   298.150 Kelvin.  Pressure   1.00000 Atm.
 Atom     1 has atomic number  6 and mass  12.00000

 Molecular mass:   204.15142 amu.
 Principal axes and moments of inertia in atomic units:
                           1         2         3
     Eigenvalues --  2028.124344645.492575691.16914
           X            0.99988  -0.01495  -0.00391
           Y            0.01493   0.99988  -0.00459
           Z            0.00398   0.00453   0.99998
 This molecule is an asymmetric top.
 Rotational symmetry number  1.
 Warning -- assumption of classical behavior for rotation
           may cause significant error
 Rotational temperatures (Kelvin)      0.04271     0.01864     0.01522
 Rotational constants (GHZ):           0.88986     0.38849     0.31711
 Zero-point vibrational energy     816301.9 (Joules/Mol)
                                  195.10083 (Kcal/Mol)
 Warning -- explicit consideration of  21 degrees of freedom as
           vibrations may cause significant error
 Vibrational temperatures:     15.02    53.89    63.69   101.13   126.47
          (Kelvin)            136.18   196.99   215.24   282.25   332.89
                              368.43   384.62   431.64   489.22   536.79
                              635.70   673.84   737.87   771.33   831.52
                              858.85   928.86  1008.71  1082.45  1165.61
                             1200.40  1222.69  1230.37  1266.83  1277.77
                             1304.02  1324.98  1335.94  1339.34  1342.74
                             1382.30  1407.77  1417.83  1480.87  1496.86
                             1503.27  1517.00  1542.52  1565.31  1639.52
                             1655.41  1680.49  1683.31  1717.22  1730.86
                             1786.64  1794.15  1809.25  1815.08  1828.12
                             1843.78  1848.61  1882.43  1903.37  1923.22
                             1940.38  1943.73  1948.35  1956.41  1970.29
                             2017.01  2060.14  2149.00  2165.47  2169.45
                             2174.07  2174.92  2182.24  2189.85  2210.42
                             2214.21  2478.76  2523.06  2622.32  4201.81
                             4337.93  4342.84  4344.32  4357.31  4366.03
                             4380.75  4390.07  4391.42  4393.47  4402.81
                             4406.01  4422.99  4438.20  4447.64  4468.84
                             4473.38  4477.57  4482.01  4612.18

 Zero-point correction=                           0.310913 (Hartree/Particle)
 Thermal correction to Energy=                    0.326016
 Thermal correction to Enthalpy=                  0.326960
 Thermal correction to Gibbs Free Energy=         0.265942
 Sum of electronic and zero-point Energies=           -620.474356
 Sum of electronic and thermal Energies=              -620.459253
 Sum of electronic and thermal Enthalpies=            -620.458309
 Sum of electronic and thermal Free Energies=         -620.519326

                     E (Thermal)             CV                S
                      KCal/Mol        Cal/Mol-Kelvin    Cal/Mol-Kelvin
 Total                  204.578             56.605            128.422
 Electronic               0.000              0.000              0.000
 Translational            0.889              2.981             41.845
 Rotational               0.889              2.981             32.350
 Vibrational            202.800             50.644             54.227
 Vibration     1          0.593              1.987              7.925
 Vibration     2          0.594              1.982              5.389
 Vibration     3          0.595              1.980              5.058
 Vibration     4          0.598              1.968              4.145
 Vibration     5          0.601              1.958              3.706
 Vibration     6          0.603              1.953              3.562
 Vibration     7          0.614              1.916              2.847
 Vibration     8          0.618              1.903              2.677
 Vibration     9          0.636              1.845              2.169
 Vibration    10          0.653              1.793              1.868
 Vibration    11          0.666              1.753              1.688
 Vibration    12          0.672              1.733              1.613
 Vibration    13          0.693              1.674              1.417
 Vibration    14          0.720              1.596              1.212
 Vibration    15          0.745              1.527              1.067
 Vibration    16          0.802              1.379              0.821
 Vibration    17          0.826              1.320              0.742
 Vibration    18          0.868              1.222              0.627
 Vibration    19          0.891              1.170              0.574
 Vibration    20          0.934              1.079              0.489
 Vibration    21          0.955              1.038              0.455

 Optimization completed.
    -- Stationary point found.
 Normal termination of Gaussian 16 at Thu Dec 10 15:06:59 2020.

 ----------------------------------------------------------------------
 # B3LYP/6-311++G(d,p) empiricaldispersion=gd3bj scf=xqc pop=npa geom=c
 heck
 ----------------------------------------------------------------------

 --------------------------------------
 CID_53816544_JID_5139_Energie_neutraal
 --------------------------------------
 Structure from the checkpoint file:  "JID_5139.chk"
 Charge =  0 Multiplicity = 1

 SCF Done:  E(RB3LYP) =  -620.953495672     A.U. after   14 cycles
 Normal termination of Gaussian 16 at Thu Dec 10 15:12:11 2020.

 ----------------------------------------------------------------------
 # B3LYP/6-311++G(d,p) empiricaldispersion=gd3bj scf=xqc pop=npa geom=c
 heck
 ----------------------------------------------------------------------

 ------------------------------------
 CID_53816544_JID_5139_Energie_kation
 ------------------------------------
 Structure from the checkpoint file:  "JID_5139.chk"
 Charge =  1 Multiplicity = 2

 SCF Done:  E(UB3LYP) =  -620.663886640     A.U. after   20 cycles
 Normal termination of Gaussian 16 at Thu Dec 10 15:21:18 2020.
 Gaussian 16:  ES64L-G16RevA.03 25-Dec-2016

 ----------------------------------------------------------------------
 # B3LYP/6-311++G(d,p) empiricaldispersion=gd3bj scf=xqc pop=npa geom=c
 heck
 ----------------------------------------------------------------------

 -----------------------------------
 CID_53816544_JID_5139_Energie_anion
 -----------------------------------
 Structure from the checkpoint file:  "JID_5139.chk"
 Charge = -1 Multiplicity = 2

                         Standard orientation:
 ---------------------------------------------------------------------
 Center     Atomic      Atomic             Coordinates (Angstroms)
 Number     Number       Type             X           Y           Z
 ---------------------------------------------------------------------
      1          6           0       -3.775117   -0.501649    0.934459
      2          6           0       -3.619603   -1.458131   -0.257999
      3          6           0       -2.137329   -1.307762   -0.649829
      4          6           0       -1.783413    0.131528   -0.290507
      5          6           0       -0.647804    0.752538   -0.637063
      6          6           0       -0.332467    2.185780   -0.250724
      7          6           0        0.907413    2.260838    0.625507
      8          8           0        1.973061    2.709629    0.262344
      9          6           0        0.467051    0.063219   -1.392117
     10          6           0        1.505719   -0.553608   -0.485449
     11          6           0        1.349168   -0.967642    0.778319
     12          6           0        2.640852   -1.458612    1.387050
     13          6           0        3.573359   -1.601119    0.156585
     14          6           0        2.947324   -0.692501   -0.927042
     15          6           0       -2.927379    0.718956    0.528148
     16          1           0       -4.816254   -0.245500    1.154411
     17          1           0       -3.350234   -0.962963    1.835544
     18          1           0       -4.259125   -1.122457   -1.084667
     19          1           0       -3.898258   -2.490562   -0.025028
     20          1           0       -1.954012   -1.538289   -1.705112
     21          1           0       -1.514959   -2.001298   -0.067465
     22          1           0       -0.134572    2.788867   -1.145528
     23          1           0       -1.169212    2.635020    0.295282
     24          1           0        0.775246    1.858259    1.653064
     25          1           0        0.068142   -0.708893   -2.063244
     26          1           0        0.970935    0.792313   -2.041943
     27          1           0        0.418647   -0.904512    1.334404
     28          1           0        2.528954   -2.399739    1.939971
     29          1           0        3.029618   -0.721053    2.105805
     30          1           0        4.613599   -1.345436    0.378600
     31          1           0        3.557841   -2.640870   -0.189313
     32          1           0        3.409739    0.306313   -0.947323
     33          1           0        3.047848   -1.105495   -1.939167
     34          1           0       -2.587607    1.299511    1.391883
     35          1           0       -3.527465    1.398756   -0.094956
 ---------------------------------------------------------------------

 SCF Done:  E(UB3LYP) =  -620.940245696     A.U. after   33 cycles
 SCF Done:  E(UB3LYP) =  -620.940245696     a.u. after    1 cycles

 The electronic state is 2-A.
 Alpha  occ. eigenvalues --  -19.00685 -10.14240 -10.07335 -10.07172 -10.07011
 Alpha  occ. eigenvalues --  -10.06992 -10.06923 -10.06890 -10.06830 -10.06608
 Alpha  occ. eigenvalues --  -10.06493 -10.06151 -10.06032 -10.05990 -10.05556
 Alpha  occ. eigenvalues --   -0.93705  -0.75289  -0.73953  -0.69928  -0.64013
 Alpha  occ. eigenvalues --   -0.61361  -0.60731  -0.60607  -0.57014  -0.51181
 Alpha  occ. eigenvalues --   -0.48025  -0.47268  -0.46436  -0.41866  -0.40407
 Alpha  occ. eigenvalues --   -0.39149  -0.38382  -0.37047  -0.36569  -0.35996
 Alpha  occ. eigenvalues --   -0.33237  -0.32334  -0.31329  -0.30330  -0.29596
 Alpha  occ. eigenvalues --   -0.28920  -0.28123  -0.26943  -0.26789  -0.26228
 Alpha  occ. eigenvalues --   -0.24708  -0.24539  -0.24490  -0.23769  -0.23568
 Alpha  occ. eigenvalues --   -0.23370  -0.22297  -0.20949  -0.15470  -0.13609
 Alpha  occ. eigenvalues --   -0.12151   0.04610
 Alpha virt. eigenvalues --    0.06510   0.06834   0.07533   0.07856   0.08497
 Alpha virt. eigenvalues --    0.08959   0.09351   0.09798   0.09982   0.10773
 Alpha virt. eigenvalues --    0.10919   0.11287   0.11600   0.11915   0.12122

  Beta  occ. eigenvalues --  -19.00560 -10.14105 -10.07341 -10.07164 -10.07015
  Beta  occ. eigenvalues --  -10.06982 -10.06912 -10.06881 -10.06824 -10.06571
  Beta  occ. eigenvalues --  -10.06469 -10.06128 -10.06008 -10.05965 -10.05535
  Beta  occ. eigenvalues --   -0.93462  -0.75257  -0.73912  -0.69878  -0.63963
  Beta  occ. eigenvalues --   -0.61286  -0.60653  -0.60576  -0.56969  -0.51091
  Beta  occ. eigenvalues --   -0.47954  -0.47159  -0.46251  -0.41813  -0.40339
  Beta  occ. eigenvalues --   -0.39071  -0.38325  -0.37012  -0.36518  -0.35897
  Beta  occ. eigenvalues --   -0.33114  -0.32250  -0.31280  -0.30286  -0.29549
  Beta  occ. eigenvalues --   -0.28804  -0.27859  -0.26855  -0.26647  -0.26068
  Beta  occ. eigenvalues --   -0.24686  -0.24511  -0.24453  -0.23726  -0.23489
  Beta  occ. eigenvalues --   -0.23325  -0.22246  -0.20884  -0.15354  -0.13546
  Beta  occ. eigenvalues --   -0.12041
  Beta virt. eigenvalues --    0.06737   0.07282   0.07751   0.08032   0.08400
  Beta virt. eigenvalues --    0.08827   0.09234   0.09548   0.10119   0.10208
  Beta virt. eigenvalues --    0.11007   0.11038   0.11492   0.11862   0.12097

 Mulliken charges and spin densities:
               1          2
     1  C    0.372976  -0.778488
     2  C    0.291004  -0.800834
     3  C    0.695598  -1.160404
     4  C   -0.351453   0.895132
     5  C    0.307733   0.544450
     6  C   -0.530538  -0.212905
     7  C   -0.021297  -0.022963
     8  O   -0.233254   0.047999
     9  C   -0.265902  -0.302442
    10  C    0.335261   0.570943
    11  C   -1.185764   0.870913
    12  C    0.879707  -1.632360
    13  C   -0.243840  -0.102283
    14  C   -0.531843  -0.121800
    15  C    0.556291  -0.990454
    16  H   -0.326352   0.486490
    17  H   -0.029163   0.165820
    18  H    0.114232   0.020386
    19  H   -0.513430   0.682320
    20  H   -0.262226   0.399065
    21  H    0.077953   0.099043
    22  H    0.050622   0.132952
    23  H   -0.056136   0.222332
    24  H   -0.050667   0.126101
    25  H   -0.103514   0.302508
    26  H    0.128404   0.050851
    27  H   -0.001768   0.224691
    28  H   -0.215695   0.365005
    29  H    0.105008   0.029827
    30  H    0.059672   0.075245
    31  H   -0.005965   0.147084
    32  H    0.201116  -0.045615
    33  H   -0.091738   0.242228
    34  H   -0.003553   0.149186
    35  H   -0.151478   0.319973
 Sum of Mulliken charges =  -1.00000   1.00000

 Dipole moment (field-independent basis, Debye):
    X=              3.0884    Y=              1.9425    Z=             -0.6419  Tot=              3.7046
 Quadrupole moment (field-independent basis, Debye-Ang):
   XX=           -162.0450   YY=           -143.5771   ZZ=           -122.0904
   XY=             -8.6757   XZ=              2.3748   YZ=              0.8989

 Summary of Natural Population Analysis:

                                       Natural Population
                Natural  -----------------------------------------------
    Atom  No    Charge         Core      Valence    Rydberg      Total
 -----------------------------------------------------------------------
      C    1   -0.18785      0.99964     2.18054    0.00766     3.18785
      C    2   -0.18756      0.99964     2.18031    0.00761     3.18756
      C    3   -0.20612      0.99960     2.19860    0.00792     3.20612
      C    4    0.00776      0.99943     1.98211    0.01070     2.99224
      C    5   -0.01455      0.99940     2.00353    0.01162     3.01455
      C    6   -0.24602      0.99957     2.23680    0.00965     3.24602
      C    7    0.24575      0.99973     1.73525    0.01927     2.75425
      O    8   -0.27453      0.99988     3.26769    0.00696     4.27453
      C    9   -0.21590      0.99955     2.20589    0.01046     3.21590
      C   10    0.00055      0.99947     1.98886    0.01112     2.99945
      C   11   -0.09969      0.99943     2.09091    0.00935     3.09969
      C   12   -0.20190      0.99964     2.19412    0.00815     3.20190
      C   13   -0.18633      0.99965     2.17876    0.00792     3.18633
      C   14   -0.20294      0.99959     2.19499    0.00836     3.20294
      C   15   -0.20457      0.99960     2.19685    0.00812     3.20457
      H   16    0.09836      0.00000     0.40044    0.00121     0.40164
      H   17    0.09450      0.00000     0.40382    0.00168     0.40550
      H   18    0.09202      0.00000     0.40656    0.00142     0.40798
      H   19    0.10097      0.00000     0.39757    0.00146     0.39903
      H   20    0.10385      0.00000     0.39494    0.00121     0.39615
      H   21    0.10830      0.00000     0.38940    0.00230     0.39170
      H   22    0.10570      0.00000     0.39302    0.00128     0.39430
      H   23    0.11095      0.00000     0.38761    0.00144     0.38905
      H   24    0.04524      0.00000     0.45263    0.00214     0.45476
      H   25    0.11293      0.00000     0.38579    0.00127     0.38707
      H   26    0.10385      0.00000     0.39490    0.00125     0.39615
      H   27    0.10353      0.00000     0.39480    0.00167     0.39647
      H   28    0.09900      0.00000     0.39989    0.00111     0.40100
      H   29    0.09622      0.00000     0.40265    0.00113     0.40378
      H   30    0.09505      0.00000     0.40414    0.00082     0.40495
      H   31    0.09581      0.00000     0.40307    0.00112     0.40419
      H   32    0.10347      0.00000     0.39544    0.00109     0.39653
      H   33    0.09808      0.00000     0.40092    0.00100     0.40192
      H   34    0.10432      0.00000     0.39421    0.00146     0.39568
      H   35    0.10175      0.00000     0.39713    0.00112     0.39825
 =======================================================================
   * Total *   -0.00000     14.99382    40.83414    0.17205    56.00000

 Normal termination of Gaussian 16 at Thu Dec 10 15:35:52 2020.
